
     Program PWSCF v.7.2 starts on 11Feb2025 at 22:23:46 

     This program is part of the open-source Quantum ESPRESSO suite
     for quantum simulation of materials; please cite
         "P. Giannozzi et al., J. Phys.:Condens. Matter 21 395502 (2009);
         "P. Giannozzi et al., J. Phys.:Condens. Matter 29 465901 (2017);
         "P. Giannozzi et al., J. Chem. Phys. 152 154105 (2020);
          URL http://www.quantum-espresso.org", 
     in publications or presentations arising from this work. More details at
     http://www.quantum-espresso.org/quote

     Parallel version (MPI & OpenMP), running on       8 processor cores
     Number of MPI processes:                 8
     Threads/MPI process:                     1

     MPI processes distributed on     1 nodes
     479158 MiB available memory on the printing compute node when the environment starts

     Waiting for input...
     Reading input from standard input

     Current dimensions of program PWSCF are:
     Max number of different atomic species (ntypx) = 10
     Max number of k-points (npk) =  40000
     Max angular momentum in pseudopotentials (lmaxx) =  4

     R & G space division:  proc/nbgrp/npool/nimage =       8
     Subspace diagonalization in iterative solution of the eigenvalue problem:
     a serial algorithm will be used


     Parallelization info
     --------------------
     sticks:   dense  smooth     PW     G-vecs:    dense   smooth      PW
     Min         191     191     69                 3245     3245     712
     Max         192     192     70                 3246     3246     713
     Sum        1529    1529    559                25967    25967    5701

     Using Slab Decomposition



     bravais-lattice index     =            7
     lattice parameter (alat)  =       4.5199  a.u.
     unit-cell volume          =     268.8638 (a.u.)^3
     number of atoms/cell      =            4
     number of atomic types    =            2
     number of electrons       =        14.00
     number of Kohn-Sham states=           11
     kinetic-energy cutoff     =      80.0000  Ry
     charge density cutoff     =     320.0000  Ry
     scf convergence threshold =      1.0E-08
     mixing beta               =       0.7000
     number of iterations used =            8  plain     mixing
     energy convergence thresh.=      1.0E-04
     force convergence thresh. =      1.0E-03
     press convergence thresh. =      1.0E+00
     Exchange-correlation= PBE
                           (   1   4   3   4   0   0   0)
     nstep                     =           50


     celldm(1)=   4.519926  celldm(2)=   0.000000  celldm(3)=   5.823289
     celldm(4)=   0.000000  celldm(5)=   0.000000  celldm(6)=   0.000000

     crystal axes: (cart. coord. in units of alat)
               a(1) = (   0.500000  -0.500000   2.911644 )  
               a(2) = (   0.500000   0.500000   2.911644 )  
               a(3) = (  -0.500000  -0.500000   2.911644 )  

     reciprocal axes: (cart. coord. in units 2 pi/alat)
               b(1) = (  1.000000 -1.000000  0.000000 )  
               b(2) = (  0.000000  1.000000  0.171724 )  
               b(3) = ( -1.000000  0.000000  0.171724 )  


     PseudoPot. # 1 for Li read from file:
     ../pseudo/Li_ONCV_PBE_sr.upf
     MD5 check sum: 50ff420e78310ffa21704f3361e624a4
     Pseudo is Norm-conserving, Zval =  3.0
     Generated using ONCVPSP code by D. R. Hamann
     Using radial grid of 1944 points,  4 beta functions with: 
                l(1) =   0
                l(2) =   0
                l(3) =   1
                l(4) =   1

     PseudoPot. # 2 for Si read from file:
     ../pseudo/Si_ONCV_PBE_sr.upf
     MD5 check sum: e543d271109d17c80368dfa7c482276d
     Pseudo is Norm-conserving + core correction, Zval =  4.0
     Generated using ONCVPSP code by D. R. Hamann
     Using radial grid of 1510 points,  6 beta functions with: 
                l(1) =   0
                l(2) =   0
                l(3) =   1
                l(4) =   1
                l(5) =   2
                l(6) =   2

     atomic species   valence    mass     pseudopotential
        Li             3.00     6.94100     Li( 1.00)
        Si             4.00    28.08550     Si( 1.00)

      8 Sym. Ops. (no inversion) found



   Cartesian axes

     site n.     atom                  positions (alat units)
         1           Li  tau(   1) = (   0.0000000   0.0000000   1.8917069  )
         2           Li  tau(   2) = (   0.0000000   0.0000000   3.9315816  )
         3           Si  tau(   3) = (   0.0000000   0.5000000   0.4882565  )
         4           Si  tau(   4) = (   0.5000000   0.0000000   5.3350320  )

     number of k points=    97  Marzari-Vanderbilt smearing, width (Ry)=  0.0200
                       cart. coord. in units 2pi/alat
        k(    1) = (   0.0000000   0.0000000   0.0000000), wk =   0.0082645
        k(    2) = (   0.5000000   0.0000000  -0.0858621), wk =   0.0082645
        k(    3) = (   0.0000000   0.0909091   0.0156113), wk =   0.0330579
        k(    4) = (   0.5000000   0.0909091  -0.0702508), wk =   0.0165289
        k(    5) = (   0.0000000   0.1818182   0.0312226), wk =   0.0330579
        k(    6) = (   0.5000000   0.1818182  -0.0546395), wk =   0.0165289
        k(    7) = (   0.0000000   0.2727273   0.0468339), wk =   0.0330579
        k(    8) = (   0.5000000   0.2727273  -0.0390282), wk =   0.0165289
        k(    9) = (   0.0000000   0.3636364   0.0624452), wk =   0.0330579
        k(   10) = (   0.5000000   0.3636364  -0.0234169), wk =   0.0165289
        k(   11) = (   0.0000000   0.4545455   0.0780565), wk =   0.0330579
        k(   12) = (   0.5000000   0.4545455  -0.0078056), wk =   0.0165289
        k(   13) = (   0.0909091  -0.0909091   0.0000000), wk =   0.0165289
        k(   14) = (   0.5909091  -0.0909091  -0.0858621), wk =   0.0165289
        k(   15) = (   0.5909091   0.0000000  -0.0702508), wk =   0.0165289
        k(   16) = (   0.0909091   0.0909091   0.0312226), wk =   0.0165289
        k(   17) = (   0.5909091   0.0909091  -0.0546395), wk =   0.0165289
        k(   18) = (   0.0909091   0.1818182   0.0468339), wk =   0.0330579
        k(   19) = (   0.5909091   0.1818182  -0.0390282), wk =   0.0165289
        k(   20) = (   0.0909091   0.2727273   0.0624452), wk =   0.0330579
        k(   21) = (   0.5909091   0.2727273  -0.0234169), wk =   0.0165289
        k(   22) = (   0.0909091   0.3636364   0.0780565), wk =   0.0330579
        k(   23) = (   0.5909091   0.3636364  -0.0078056), wk =   0.0165289
        k(   24) = (   0.0909091  -0.5454545  -0.0780565), wk =   0.0330579
        k(   25) = (   0.5909091  -0.5454545  -0.1639186), wk =   0.0165289
        k(   26) = (   0.0909091  -0.4545455  -0.0624452), wk =   0.0330579
        k(   27) = (   0.5909091  -0.4545455  -0.1483073), wk =   0.0165289
        k(   28) = (   0.0909091  -0.3636364  -0.0468339), wk =   0.0330579
        k(   29) = (   0.5909091  -0.3636364  -0.1326960), wk =   0.0165289
        k(   30) = (   0.0909091  -0.2727273  -0.0312226), wk =   0.0330579
        k(   31) = (   0.5909091  -0.2727273  -0.1170847), wk =   0.0165289
        k(   32) = (   0.0909091  -0.1818182  -0.0156113), wk =   0.0330579
        k(   33) = (   0.5909091  -0.1818182  -0.1014734), wk =   0.0165289
        k(   34) = (   0.1818182  -0.1818182   0.0000000), wk =   0.0165289
        k(   35) = (   0.6818182  -0.1818182  -0.0858621), wk =   0.0165289
        k(   36) = (   0.6818182  -0.0909091  -0.0702508), wk =   0.0165289
        k(   37) = (   0.6818182   0.0000000  -0.0546395), wk =   0.0165289
        k(   38) = (   0.6818182   0.0909091  -0.0390282), wk =   0.0165289
        k(   39) = (   0.1818182   0.1818182   0.0624452), wk =   0.0165289
        k(   40) = (   0.6818182   0.1818182  -0.0234169), wk =   0.0165289
        k(   41) = (   0.1818182   0.2727273   0.0780565), wk =   0.0330579
        k(   42) = (   0.6818182   0.2727273  -0.0078056), wk =   0.0165289
        k(   43) = (   0.1818182  -0.6363636  -0.0780565), wk =   0.0330579
        k(   44) = (   0.6818182  -0.6363636  -0.1639186), wk =   0.0165289
        k(   45) = (   0.1818182  -0.5454545  -0.0624452), wk =   0.0330579
        k(   46) = (   0.6818182  -0.5454545  -0.1483073), wk =   0.0165289
        k(   47) = (   0.1818182  -0.4545455  -0.0468339), wk =   0.0330579
        k(   48) = (   0.6818182  -0.4545455  -0.1326960), wk =   0.0165289
        k(   49) = (   0.1818182  -0.3636364  -0.0312226), wk =   0.0330579
        k(   50) = (   0.6818182  -0.3636364  -0.1170847), wk =   0.0165289
        k(   51) = (   0.1818182  -0.2727273  -0.0156113), wk =   0.0330579
        k(   52) = (   0.6818182  -0.2727273  -0.1014734), wk =   0.0165289
        k(   53) = (   0.2727273  -0.2727273   0.0000000), wk =   0.0165289
        k(   54) = (   0.7727273  -0.2727273  -0.0858621), wk =   0.0165289
        k(   55) = (   0.7727273  -0.1818182  -0.0702508), wk =   0.0165289
        k(   56) = (   0.7727273  -0.0909091  -0.0546395), wk =   0.0165289
        k(   57) = (   0.7727273   0.0000000  -0.0390282), wk =   0.0165289
        k(   58) = (   0.7727273   0.0909091  -0.0234169), wk =   0.0165289
        k(   59) = (   0.7727273   0.1818182  -0.0078056), wk =   0.0165289
        k(   60) = (   0.2727273  -0.7272727  -0.0780565), wk =   0.0165289
        k(   61) = (   0.7727273  -0.7272727  -0.1639186), wk =   0.0165289
        k(   62) = (   0.2727273  -0.6363636  -0.0624452), wk =   0.0330579
        k(   63) = (   0.7727273  -0.6363636  -0.1483073), wk =   0.0165289
        k(   64) = (   0.2727273  -0.5454545  -0.0468339), wk =   0.0330579
        k(   65) = (   0.7727273  -0.5454545  -0.1326960), wk =   0.0165289
        k(   66) = (   0.2727273  -0.4545455  -0.0312226), wk =   0.0330579
        k(   67) = (   0.7727273  -0.4545455  -0.1170847), wk =   0.0165289
        k(   68) = (   0.2727273  -0.3636364  -0.0156113), wk =   0.0330579
        k(   69) = (   0.7727273  -0.3636364  -0.1014734), wk =   0.0165289
        k(   70) = (   0.3636364  -0.3636364   0.0000000), wk =   0.0165289
        k(   71) = (   0.8636364  -0.3636364  -0.0858621), wk =   0.0165289
        k(   72) = (   0.8636364  -0.2727273  -0.0702508), wk =   0.0165289
        k(   73) = (   0.8636364  -0.1818182  -0.0546395), wk =   0.0165289
        k(   74) = (   0.8636364  -0.0909091  -0.0390282), wk =   0.0165289
        k(   75) = (   0.8636364   0.0000000  -0.0234169), wk =   0.0165289
        k(   76) = (   0.8636364   0.0909091  -0.0078056), wk =   0.0165289
        k(   77) = (   0.8636364  -0.8181818  -0.1639186), wk =   0.0165289
        k(   78) = (   0.8636364  -0.7272727  -0.1483073), wk =   0.0165289
        k(   79) = (   0.3636364  -0.6363636  -0.0468339), wk =   0.0165289
        k(   80) = (   0.8636364  -0.6363636  -0.1326960), wk =   0.0165289
        k(   81) = (   0.3636364  -0.5454545  -0.0312226), wk =   0.0330579
        k(   82) = (   0.8636364  -0.5454545  -0.1170847), wk =   0.0165289
        k(   83) = (   0.3636364  -0.4545455  -0.0156113), wk =   0.0330579
        k(   84) = (   0.8636364  -0.4545455  -0.1014734), wk =   0.0165289
        k(   85) = (   0.4545455  -0.4545455   0.0000000), wk =   0.0165289
        k(   86) = (   0.9545455  -0.4545455  -0.0858621), wk =   0.0165289
        k(   87) = (   0.9545455  -0.3636364  -0.0702508), wk =   0.0165289
        k(   88) = (   0.9545455  -0.2727273  -0.0546395), wk =   0.0165289
        k(   89) = (   0.9545455  -0.1818182  -0.0390282), wk =   0.0165289
        k(   90) = (   0.9545455  -0.0909091  -0.0234169), wk =   0.0165289
        k(   91) = (   0.9545455   0.0000000  -0.0078056), wk =   0.0165289
        k(   92) = (   0.9545455  -0.9090909  -0.1639186), wk =   0.0165289
        k(   93) = (   0.9545455  -0.8181818  -0.1483073), wk =   0.0165289
        k(   94) = (   0.9545455  -0.7272727  -0.1326960), wk =   0.0165289
        k(   95) = (   0.9545455  -0.6363636  -0.1170847), wk =   0.0165289
        k(   96) = (   0.4545455  -0.5454545  -0.0156113), wk =   0.0165289
        k(   97) = (   0.9545455  -0.5454545  -0.1014734), wk =   0.0165289

     Dense  grid:    25967 G-vectors     FFT dimensions: (  80,  80,  80)

     Estimated max dynamical RAM per process >      24.64 MB

     Estimated total dynamical RAM >     197.09 MB

     Initial potential from superposition of free atoms

     starting charge      13.9897, renormalised to      14.0000
     Starting wfcs are   12 randomized atomic wfcs

     total cpu time spent up to now is        3.6 secs

     Self-consistent Calculation

     iteration #  1     ecut=    80.00 Ry     beta= 0.70
     Davidson diagonalization with overlap
     ethr =  1.00E-02,  avg # of iterations =  5.7

     total cpu time spent up to now is        8.9 secs

     total energy              =     -44.91670936 Ry
     estimated scf accuracy    <       0.40818315 Ry

     iteration #  2     ecut=    80.00 Ry     beta= 0.70
     Davidson diagonalization with overlap
     ethr =  2.92E-03,  avg # of iterations =  3.0

     total cpu time spent up to now is       13.0 secs

     total energy              =     -44.73536491 Ry
     estimated scf accuracy    <       2.33016723 Ry

     iteration #  3     ecut=    80.00 Ry     beta= 0.70
     Davidson diagonalization with overlap
     ethr =  2.92E-03,  avg # of iterations =  2.3

     total cpu time spent up to now is       16.7 secs

     total energy              =     -45.12180718 Ry
     estimated scf accuracy    <       0.04937925 Ry

     iteration #  4     ecut=    80.00 Ry     beta= 0.70
     Davidson diagonalization with overlap
     ethr =  3.53E-04,  avg # of iterations =  1.8

     total cpu time spent up to now is       19.7 secs

     total energy              =     -45.12869469 Ry
     estimated scf accuracy    <       0.00124002 Ry

     iteration #  5     ecut=    80.00 Ry     beta= 0.70
     Davidson diagonalization with overlap
     ethr =  8.86E-06,  avg # of iterations =  5.2

     total cpu time spent up to now is       23.8 secs

     total energy              =     -45.12899499 Ry
     estimated scf accuracy    <       0.00001028 Ry

     iteration #  6     ecut=    80.00 Ry     beta= 0.70
     Davidson diagonalization with overlap
     ethr =  7.34E-08,  avg # of iterations =  3.5

     total cpu time spent up to now is       27.5 secs

     total energy              =     -45.12900079 Ry
     estimated scf accuracy    <       0.00000011 Ry

     iteration #  7     ecut=    80.00 Ry     beta= 0.70
     Davidson diagonalization with overlap
     ethr =  8.12E-10,  avg # of iterations =  3.4

     total cpu time spent up to now is       31.1 secs

     End of self-consistent calculation

          k = 0.0000 0.0000 0.0000 (  3281 PWs)   bands (ev):

   -36.9860 -36.9363  -4.1202  -1.3550   4.2885   8.1954  10.7777  17.6842
    18.1236  18.1236  18.4256

          k = 0.5000 0.0000-0.0859 (  3250 PWs)   bands (ev):

   -36.8724 -36.8556   1.4423   2.0356   3.2190   4.7286   7.6559  11.0988
    11.6066  14.5317  17.3876

          k = 0.0000 0.0909 0.0156 (  3262 PWs)   bands (ev):

   -36.9773 -36.9296  -3.9207  -1.1741   4.4145   8.3192  10.8361  14.9035
    16.1059  18.2886  19.2174

          k = 0.5000 0.0909-0.0703 (  3256 PWs)   bands (ev):

   -36.8650 -36.8495   1.6446   2.2238   3.4162   4.8903   7.8469  11.1544
    11.7792  14.5400  17.0503

          k = 0.0000 0.1818 0.0312 (  3257 PWs)   bands (ev):

   -36.9539 -36.9119  -3.3245  -0.6362   4.7769   8.6063  10.7174  11.9207
    13.6496  18.7815  18.8083

          k = 0.5000 0.1818-0.0546 (  3256 PWs)   bands (ev):

   -36.8450 -36.8331   2.2485   2.7842   4.0053   5.3684   8.4090  11.2614
    12.2447  14.3549  15.9728

          k = 0.0000 0.2727 0.0468 (  3261 PWs)   bands (ev):

   -36.9228 -36.8889  -2.3381   0.2429   5.2711   8.2504   8.8904  10.6382
    12.6696  16.5055  18.1755

          k = 0.5000 0.2727-0.0390 (  3239 PWs)   bands (ev):

   -36.8187 -36.8115   3.2448   3.7029   4.9773   6.1404   9.2718  11.1459
    12.7066  13.5821  14.0704

          k = 0.0000 0.3636 0.0624 (  3245 PWs)   bands (ev):

   -36.8933 -36.8685  -0.9756   1.4254   4.9208   6.6371   7.4414  10.7690
    12.4150  14.9615  17.1493

          k = 0.5000 0.3636-0.0234 (  3218 PWs)   bands (ev):

   -36.7945 -36.7915   4.6097   4.9459   6.3026   7.1590   9.7616  10.4908
    11.7728  11.8723  12.7549

          k = 0.0000 0.4545 0.0781 (  3248 PWs)   bands (ev):

   -36.8750 -36.8571   0.7210   2.6107   3.0548   5.1530   7.5515  11.1186
    11.6835  14.5813  17.1732

          k = 0.5000 0.4545-0.0078 (  3220 PWs)   bands (ev):

   -36.7800 -36.7797   6.2372   6.3835   7.7276   8.1292   8.7879   8.9048
    10.1116  10.5047  12.8147

          k = 0.0909-0.0909 0.0000 (  3265 PWs)   bands (ev):

   -36.9688 -36.9230  -3.7213  -0.9925   4.5259   8.5457  10.7897  14.4570
    15.8384  16.2392  16.7891

          k = 0.5909-0.0909-0.0859 (  3253 PWs)   bands (ev):

   -36.8747 -36.8552   0.0343   2.2764   4.1662   6.0926   7.5771  10.9443
    12.1100  15.0115  16.7746

          k = 0.5909 0.0000-0.0703 (  3253 PWs)   bands (ev):

   -36.8822 -36.8614  -0.1637   2.0860   3.9875   5.9020   7.4566  10.6739
    11.9608  15.3668  17.2280

          k = 0.0909 0.0909 0.0312 (  3264 PWs)   bands (ev):

   -36.9688 -36.9230  -3.7215  -0.9937   4.5620   8.3456  11.0321  14.4468
    15.8463  16.2114  16.8235

          k = 0.5909 0.0909-0.0546 (  3257 PWs)   bands (ev):

   -36.8747 -36.8552   0.0335   2.2678   4.1909   6.0628   7.6854  10.6315
    12.0625  15.6348  17.0006

          k = 0.0909 0.1818 0.0468 (  3260 PWs)   bands (ev):

   -36.9456 -36.9054  -3.1257  -0.4563   4.9547   8.5485  10.9633  12.1595
    13.7106  16.0191  16.6643

          k = 0.5909 0.1818-0.0390 (  3254 PWs)   bands (ev):

   -36.8544 -36.8386   0.6243   2.8142   4.7683   6.5789   8.2613  10.7214
    12.3650  14.8063  15.4375

          k = 0.0909 0.2727 0.0624 (  3265 PWs)   bands (ev):

   -36.9148 -36.8825  -2.1401   0.4224   5.4885   8.3576   8.8633  10.9341
    12.8804  16.0599  17.0620

          k = 0.5909 0.2727-0.0234 (  3246 PWs)   bands (ev):

   -36.8278 -36.8169   1.6011   3.7086   5.6962   7.4298   9.1237  10.5601
    12.2397  13.3332  13.4775

          k = 0.0909 0.3636 0.0781 (  3252 PWs)   bands (ev):

   -36.8857 -36.8622  -0.7783   1.6058   5.1446   6.7863   7.6111  10.7475
    12.5713  15.1823  16.7060

          k = 0.5909 0.3636-0.0078 (  3240 PWs)   bands (ev):

   -36.8030 -36.7970   2.9470   4.9196   6.8548   8.5198   9.1380   9.7578
    11.4253  11.9939  13.5728

          k = 0.0909-0.5455-0.0781 (  3263 PWs)   bands (ev):

   -36.8675 -36.8509   0.9177   2.8030   3.2480   5.3150   7.7766  11.0926
    11.7867  14.7879  17.0226

          k = 0.5909-0.5455-0.1639 (  3224 PWs)   bands (ev):

   -36.7878 -36.7856   4.6181   6.2389   6.6554   8.3787   8.8041   9.7900
    11.1599  11.5236  12.3913

          k = 0.0909-0.4545-0.0624 (  3254 PWs)   bands (ev):

   -36.8675 -36.8509   0.9194   2.8048   3.2426   5.3265   7.6981  11.2862
    11.9155  14.3787  16.7736

          k = 0.5909-0.4545-0.1483 (  3208 PWs)   bands (ev):

   -36.7878 -36.7856   4.5925   6.3572   6.6636   8.1779   9.0623   9.4054
    11.1339  11.7131  12.1342

          k = 0.0909-0.3636-0.0468 (  3249 PWs)   bands (ev):

   -36.8857 -36.8622  -0.7779   1.6142   5.0819   6.8044   7.6151  11.0677
    12.4643  14.7509  16.5606

          k = 0.5909-0.3636-0.1327 (  3218 PWs)   bands (ev):

   -36.8030 -36.7970   2.9319   5.0180   6.7741   8.3679   9.2193   9.6302
    11.1396  12.6017  13.3324

          k = 0.0909-0.2727-0.0312 (  3264 PWs)   bands (ev):

   -36.9148 -36.8825  -2.1398   0.4281   5.3758   8.4364   9.2638  10.6525
    12.6058  16.2002  16.9120

          k = 0.5909-0.2727-0.1171 (  3239 PWs)   bands (ev):

   -36.8278 -36.8169   1.5954   3.7617   5.6415   7.4077   8.7408  11.2835
    12.5485  12.9650  13.7049

          k = 0.0909-0.1818-0.0156 (  3256 PWs)   bands (ev):

   -36.9456 -36.9054  -3.1255  -0.4533   4.8796   8.9411  10.6784  11.9715
    13.6983  16.0889  16.5843

          k = 0.5909-0.1818-0.1015 (  3247 PWs)   bands (ev):

   -36.8544 -36.8386   0.6237   2.8385   4.7248   6.6109   8.0270  11.3763
    12.5009  14.2663  15.3169

          k = 0.1818-0.1818 0.0000 (  3255 PWs)   bands (ev):

   -36.9232 -36.8880  -2.5309   0.0887   5.2453   9.4680  10.7064  11.8631
    13.3457  13.9768  14.0639

          k = 0.6818-0.1818-0.0859 (  3260 PWs)   bands (ev):

   -36.8784 -36.8548  -0.9133   1.5195   6.1929   7.9015   8.5553  10.9590
    12.9915  14.1271  14.7611

          k = 0.6818-0.0909-0.0703 (  3259 PWs)   bands (ev):

   -36.8994 -36.8716  -1.5053   0.9716   5.7633   7.4463   7.9040  10.5902
    13.1134  15.7222  16.8910

          k = 0.6818 0.0000-0.0546 (  3256 PWs)   bands (ev):

   -36.9072 -36.8779  -1.7036   0.7861   5.6674   7.2825   7.5980  10.4512
    13.1078  15.9052  18.1772

          k = 0.6818 0.0909-0.0390 (  3253 PWs)   bands (ev):

   -36.8994 -36.8716  -1.5055   0.9645   5.9266   7.4358   7.6539  10.5425
    13.2788  16.0452  16.8536

          k = 0.1818 0.1818 0.0624 (  3247 PWs)   bands (ev):

   -36.9232 -36.8880  -2.5312   0.0811   5.4010   8.7088  11.0352  12.3894
    13.2792  13.9669  14.2782

          k = 0.6818 0.1818-0.0234 (  3254 PWs)   bands (ev):

   -36.8784 -36.8548  -0.9127   1.5012   6.5333   7.9054   8.0288  10.8156
    13.1342  14.3375  15.0443

          k = 0.1818 0.2727 0.0781 (  3253 PWs)   bands (ev):

   -36.8933 -36.8656  -1.5474   0.9606   6.0188   8.7018   9.1692  11.4363
    12.8279  13.9351  14.4594

          k = 0.6818 0.2727-0.0078 (  3245 PWs)   bands (ev):

   -36.8506 -36.8329   0.0678   2.3831   7.4149   8.5037   8.6331  10.6049
    11.6010  12.6244  14.3454

          k = 0.1818-0.6364-0.0781 (  3260 PWs)   bands (ev):

   -36.8651 -36.8455  -0.1878   2.1480   5.7446   7.2616   8.1083  10.8911
    12.8164  14.3920  15.0062

          k = 0.6818-0.6364-0.1639 (  3241 PWs)   bands (ev):

   -36.8245 -36.8131   1.4216   3.5832   7.2697   8.5835   8.9957   9.8676
    11.4224  12.1491  13.9114

          k = 0.1818-0.5455-0.0624 (  3251 PWs)   bands (ev):

   -36.8475 -36.8344   1.5081   3.3722   3.8175   5.8145   8.3712  11.1241
    12.1820  14.5858  15.7716

          k = 0.6818-0.5455-0.1483 (  3231 PWs)   bands (ev):

   -36.8081 -36.8021   3.1118   4.8733   5.3426   7.1692   9.8194  10.4191
    12.2026  12.8536  13.3118

          k = 0.1818-0.4545-0.0468 (  3249 PWs)   bands (ev):

   -36.8475 -36.8344   1.5086   3.3844   3.8102   5.8211   8.1970  11.5260
    12.4532  14.0298  15.7567

          k = 0.6818-0.4545-0.1327 (  3234 PWs)   bands (ev):

   -36.8081 -36.8021   3.1006   4.9360   5.3420   7.1030   9.3925  10.9183
    12.1094  12.8814  13.4961

          k = 0.1818-0.3636-0.0312 (  3247 PWs)   bands (ev):

   -36.8651 -36.8455  -0.1885   2.1706   5.6188   7.2583   8.1246  11.6491
    12.5494  14.0338  14.9511

          k = 0.6818-0.3636-0.1171 (  3230 PWs)   bands (ev):

   -36.8245 -36.8131   1.4139   3.6444   7.0192   8.3663   9.2619  10.0746
    11.3665  12.5662  13.8477

          k = 0.1818-0.2727-0.0156 (  3257 PWs)   bands (ev):

   -36.8933 -36.8655  -1.5476   0.9753   5.7827   8.8983   9.8864  11.0299
    12.4448  13.8527  14.1620

          k = 0.6818-0.2727-0.1015 (  3247 PWs)   bands (ev):

   -36.8506 -36.8329   0.0646   2.4197   6.8637   8.5608   9.3665  10.7498
    11.7152  12.4079  13.8915

          k = 0.2727-0.2727 0.0000 (  3259 PWs)   bands (ev):

   -36.8648 -36.8435  -0.5683   1.8710   6.4064   9.2012  10.1206  11.0915
    11.7761  12.0618  13.2479

          k = 0.7727-0.2727-0.0859 (  3251 PWs)   bands (ev):

   -36.8794 -36.8547  -1.1048   1.3599   6.3832   8.9135   9.3618  11.5735
    11.9857  13.1472  14.0223

          k = 0.7727-0.1818-0.0703 (  3247 PWs)   bands (ev):

   -36.9086 -36.8770  -2.0874   0.4711   5.9025   8.2922  10.2523  12.4829
    12.7802  13.9827  14.4255

          k = 0.7727-0.0909-0.0546 (  3256 PWs)   bands (ev):

   -36.9306 -36.8941  -2.6818  -0.0704   5.5855   7.6597   9.9293  12.2448
    13.6781  15.9976  16.7900

          k = 0.7727 0.0000-0.0390 (  3261 PWs)   bands (ev):

   -36.9388 -36.9006  -2.8808  -0.2531   5.5352   7.3270   9.7773  12.1963
    13.8439  16.5259  19.0541

          k = 0.7727 0.0909-0.0234 (  3257 PWs)   bands (ev):

   -36.9306 -36.8942  -2.6821  -0.0745   5.7716   7.3253   9.9189  12.3620
    14.1004  15.9879  16.4800

          k = 0.7727 0.1818-0.0078 (  3244 PWs)   bands (ev):

   -36.9086 -36.8770  -2.0874   0.4605   6.2718   7.6259  10.2340  12.5758
    12.9341  14.3257  14.9398

          k = 0.2727-0.7273-0.0781 (  3248 PWs)   bands (ev):

   -36.8648 -36.8435  -0.5664   1.8422   6.7765   9.0626   9.2876  10.8735
    12.0740  12.2383  14.1877

          k = 0.7727-0.7273-0.1639 (  3252 PWs)   bands (ev):

   -36.8794 -36.8547  -1.1039   1.3394   6.8913   8.0934   9.2556  11.5292
    12.1009  13.3955  14.8012

          k = 0.2727-0.6364-0.0624 (  3240 PWs)   bands (ev):

   -36.8379 -36.8237   0.7896   3.0358   6.6753   8.0343   8.8365  10.6791
    11.8345  12.8616  13.8588

          k = 0.7727-0.6364-0.1483 (  3249 PWs)   bands (ev):

   -36.8518 -36.8349   0.2544   2.5332   6.2633   7.6501   8.4230  10.6225
    12.4847  13.7906  14.1325

          k = 0.2727-0.5455-0.0468 (  3238 PWs)   bands (ev):

   -36.8211 -36.8128   2.4838   4.2961   4.7506   6.6391   9.2860  10.8834
    12.6644  13.4006  13.7449

          k = 0.7727-0.5455-0.1327 (  3251 PWs)   bands (ev):

   -36.8346 -36.8238   1.9489   3.7880   4.2411   6.1886   8.8440  10.9894
    12.4066  14.1475  14.7506

          k = 0.2727-0.4545-0.0312 (  3228 PWs)   bands (ev):

   -36.8211 -36.8128   2.4782   4.3360   4.7468   6.6084   8.9722  11.4522
    12.7016  13.2373  14.1139

          k = 0.7727-0.4545-0.1171 (  3243 PWs)   bands (ev):

   -36.8346 -36.8238   1.9472   3.8112   4.2349   6.1819   8.5954  11.4941
    12.6819  13.7755  14.7812

          k = 0.2727-0.3636-0.0156 (  3247 PWs)   bands (ev):

   -36.8379 -36.8237   0.7850   3.0823   6.4774   7.9473   8.9113  11.1533
    12.2310  12.7433  13.4805

          k = 0.7727-0.3636-0.1015 (  3241 PWs)   bands (ev):

   -36.8518 -36.8348   0.2521   2.5657   6.0984   7.5945   8.4790  11.2567
    12.5716  13.5331  13.9241

          k = 0.3636-0.3636 0.0000 (  3223 PWs)   bands (ev):

   -36.8125 -36.8040   2.1282   4.3185   7.2075   8.6203   9.2122   9.6024
    10.8000  12.9600  13.6560

          k = 0.8636-0.3636-0.0859 (  3253 PWs)   bands (ev):

   -36.8767 -36.8549  -0.5320   1.8324   5.3990   6.9836   7.8213  10.8109
    12.7113  15.0592  16.0453

          k = 0.8636-0.2727-0.0703 (  3258 PWs)   bands (ev):

   -36.9054 -36.8751  -1.8929   0.6389   5.9080   8.1840   8.8100  11.3190
    13.4137  14.9126  15.8706

          k = 0.8636-0.1818-0.0546 (  3254 PWs)   bands (ev):

   -36.9358 -36.8978  -2.8784  -0.2435   5.5107   7.6190  11.3678  13.3739
    13.7316  14.5970  15.5025

          k = 0.8636-0.0909-0.0390 (  3261 PWs)   bands (ev):

   -36.9586 -36.9153  -3.4743  -0.7816   5.2220   7.0751  12.5759  13.7657
    14.9302  15.7186  16.6429

          k = 0.8636 0.0000-0.0234 (  3256 PWs)   bands (ev):

   -36.9671 -36.9219  -3.6738  -0.9627   5.1599   6.8123  12.6600  13.8442
    14.9053  17.2773  18.3715

          k = 0.8636 0.0909-0.0078 (  3259 PWs)   bands (ev):

   -36.9586 -36.9153  -3.4746  -0.7835   5.3443   6.8615  12.7022  13.9591
    14.9802  15.6875  16.5342

          k = 0.8636-0.8182-0.1639 (  3254 PWs)   bands (ev):

   -36.9358 -36.8978  -2.8787  -0.2484   5.7455   7.1989  11.4018  13.6883
    13.8831  14.7908  15.4835

          k = 0.8636-0.7273-0.1483 (  3260 PWs)   bands (ev):

   -36.9054 -36.8751  -1.8931   0.6295   6.2082   7.6742   8.7584  11.4192
    13.8339  15.0216  16.0466

          k = 0.3636-0.6364-0.0468 (  3241 PWs)   bands (ev):

   -36.8125 -36.8040   2.1394   4.2381   7.4548   8.6794   9.2094   9.3667
    11.2854  11.9365  13.9395

          k = 0.8636-0.6364-0.1327 (  3256 PWs)   bands (ev):

   -36.8767 -36.8549  -0.5321   1.8182   5.4997   6.9676   7.8086  10.4457
    12.7437  15.5831  16.2237

          k = 0.3636-0.5455-0.0312 (  3227 PWs)   bands (ev):

   -36.7967 -36.7928   3.8247   5.5324   5.9990   7.7500   9.6097  10.1988
    11.5592  12.3211  12.7319

          k = 0.8636-0.5455-0.1171 (  3257 PWs)   bands (ev):

   -36.8587 -36.8437   1.1635   3.0399   3.4883   5.5192   8.0712  11.0139
    11.9114  14.9773  16.5937

          k = 0.3636-0.4545-0.0156 (  3220 PWs)   bands (ev):

   -36.7968 -36.7928   3.8067   5.6245   6.0014   7.6308   9.5268  10.1495
    11.5069  12.4391  12.6481

          k = 0.8636-0.4545-0.1015 (  3255 PWs)   bands (ev):

   -36.8587 -36.8437   1.1651   3.0452   3.4815   5.5312   7.9429  11.3209
    12.0751  14.4198  16.4469

          k = 0.4545-0.4545 0.0000 (  3202 PWs)   bands (ev):

   -36.7821 -36.7811   5.4372   6.8512   7.2619   8.4197   8.5763   8.9740
    10.3188  11.1189  12.3255

          k = 0.9545-0.4545-0.0859 (  3250 PWs)   bands (ev):

   -36.8731 -36.8555   0.7699   2.6589   3.1039   5.1917   7.6172  11.0889
    11.6953  14.6928  17.1793

          k = 0.9545-0.3636-0.0703 (  3254 PWs)   bands (ev):

   -36.8914 -36.8669  -0.9270   1.4614   5.0560   6.6432   7.4794  10.4520
    12.5268  15.6293  17.2969

          k = 0.9545-0.2727-0.0546 (  3260 PWs)   bands (ev):

   -36.9208 -36.8873  -2.2896   0.2741   5.6961   7.6846   8.4665  11.1285
    13.5296  16.1318  17.9168

          k = 0.9545-0.1818-0.0390 (  3264 PWs)   bands (ev):

   -36.9518 -36.9102  -3.2762  -0.6050   5.3301   7.1648  11.2471  13.4120
    13.8720  17.0164  17.4584

          k = 0.9545-0.0909-0.0234 (  3254 PWs)   bands (ev):

   -36.9751 -36.9280  -3.8729  -1.1414   5.0337   6.7036  13.4376  14.3215
    16.3102  16.9440  17.5768

          k = 0.9545 0.0000-0.0078 (  3262 PWs)   bands (ev):

   -36.9837 -36.9347  -4.0726  -1.3217   4.9409   6.5165  13.5910  15.3226
    17.4776  17.9648  18.0260

          k = 0.9545-0.9091-0.1639 (  3250 PWs)   bands (ev):

   -36.9751 -36.9280  -3.8730  -1.1420   5.0755   6.6320  13.6634  14.1845
    16.3349  16.9005  17.5159

          k = 0.9545-0.8182-0.1483 (  3263 PWs)   bands (ev):

   -36.9518 -36.9102  -3.2764  -0.6063   5.4093   7.0247  11.2578  13.5234
    14.0026  16.8253  17.4044

          k = 0.9545-0.7273-0.1327 (  3253 PWs)   bands (ev):

   -36.9208 -36.8873  -2.2898   0.2716   5.7948   7.5134   8.4523  11.1698
    13.7080  16.0910  17.8629

          k = 0.9545-0.6364-0.1171 (  3252 PWs)   bands (ev):

   -36.8914 -36.8669  -0.9273   1.4576   5.0902   6.6293   7.4770  10.3417
    12.5412  15.9280  17.4172

          k = 0.4545-0.5455-0.0156 (  3217 PWs)   bands (ev):

   -36.7821 -36.7811   5.4676   6.9058   7.0166   8.3516   8.8586   9.0609
    10.6069  10.6302  12.9312

          k = 0.9545-0.5455-0.1015 (  3250 PWs)   bands (ev):

   -36.8731 -36.8555   0.7688   2.6586   3.1068   5.1850   7.6570  10.9836
    11.6535  14.9121  17.2924

     the Fermi energy is    10.4601 ev

!    total energy              =     -45.12900085 Ry
     estimated scf accuracy    <          2.9E-09 Ry
     smearing contrib. (-TS)   =      -0.00050212 Ry
     internal energy E=F+TS    =     -45.12849873 Ry

     The total energy is F=E-TS. E is the sum of the following terms:
     one-electron contribution =      -5.72011396 Ry
     hartree contribution      =       7.23276301 Ry
     xc contribution           =     -13.69747500 Ry
     ewald contribution        =     -32.94367277 Ry

     convergence has been achieved in   7 iterations

     Forces acting on atoms (cartesian axes, Ry/au):

     atom    1 type  1   force =     0.00000000    0.00000000   -0.36936850
     atom    2 type  1   force =     0.00000000    0.00000000    0.36936850
     atom    3 type  2   force =     0.00000000   -0.00000000   -0.39449525
     atom    4 type  2   force =     0.00000000    0.00000000    0.39449525
     The non-local contrib.  to forces
     atom    1 type  1   force =     0.00000000    0.00000000   -0.01423517
     atom    2 type  1   force =     0.00000000    0.00000000    0.01423517
     atom    3 type  2   force =     0.00000000    0.00000000   -0.39060264
     atom    4 type  2   force =     0.00000000    0.00000000    0.39060264
     The ionic contribution  to forces
     atom    1 type  1   force =     0.00000000    0.00000000   -2.05781295
     atom    2 type  1   force =    -0.00000000    0.00000000    2.05781295
     atom    3 type  2   force =     0.00000000   -0.00000000   -1.56518154
     atom    4 type  2   force =    -0.00000000    0.00000000    1.56518154
     The local contribution  to forces
     atom    1 type  1   force =     0.00000000    0.00000000    1.70265155
     atom    2 type  1   force =     0.00000000    0.00000000   -1.70265155
     atom    3 type  2   force =     0.00000000    0.00000000    1.53679031
     atom    4 type  2   force =     0.00000000   -0.00000000   -1.53679031
     The core correction contribution to forces
     atom    1 type  1   force =     0.00000000    0.00000000    0.00000000
     atom    2 type  1   force =     0.00000000    0.00000000    0.00000000
     atom    3 type  2   force =     0.00000000    0.00000000    0.02450032
     atom    4 type  2   force =     0.00000000    0.00000000   -0.02450032
     The Hubbard contrib.    to forces
     atom    1 type  1   force =     0.00000000    0.00000000    0.00000000
     atom    2 type  1   force =     0.00000000    0.00000000    0.00000000
     atom    3 type  2   force =     0.00000000    0.00000000    0.00000000
     atom    4 type  2   force =     0.00000000    0.00000000    0.00000000
     The SCF correction term to forces
     atom    1 type  1   force =    -0.00000000   -0.00000000    0.00002807
     atom    2 type  1   force =     0.00000000    0.00000000   -0.00002807
     atom    3 type  2   force =    -0.00000000    0.00000000   -0.00000170
     atom    4 type  2   force =     0.00000000    0.00000000    0.00000170

     Total force =     0.764277     Total SCF correction =     0.000040


     Computing stress (Cartesian axis) and pressure

          total   stress  (Ry/bohr**3)                   (kbar)     P=      750.85
   0.00434761   0.00000000   0.00000000          639.56        0.00        0.00
   0.00000000   0.00434761  -0.00000000            0.00      639.56       -0.00
   0.00000000  -0.00000000   0.00661723            0.00       -0.00      973.43


     BFGS Geometry Optimization
     Energy error            =      0.0E+00 Ry
     Gradient error          =      3.9E-01 Ry/Bohr
     Cell gradient error     =      4.7E+02 kbar

     number of scf cycles    =   1
     number of bfgs steps    =   0

     enthalpy           new  =     -44.2151514503 Ry

     new trust radius        =       0.3944952451 bohr
ibrav =      7
 celldm(1) =      4.62712515
 celldm(3) =      6.14604936
Input lattice vectors:
     0.51185850    -0.51185850     3.14590763
     0.51185850     0.51185850     3.14590763
    -0.51185850    -0.51185850     3.14590763
New lattice vectors in INITIAL alat:
     0.51185850    -0.51185850     3.14590763
     0.51185850     0.51185850     3.14590763
    -0.51185850    -0.51185850     3.14590763
New lattice vectors in NEW alat (for information only):
     0.50000000    -0.50000000     3.07302468
     0.50000000     0.50000000     3.07302468
    -0.50000000    -0.50000000     3.07302468
Discrepancy in bohr =     0.000000    0.000000    0.000000
     new conv_thr            =       0.0000000100 Ry

     new unit-cell volume =    304.43865 a.u.^3 (    45.11315 Ang^3 )
     density =      2.57853 g/cm^3

CELL_PARAMETERS (alat=  4.51992603)
   0.511858504  -0.511858504   3.145907634
   0.511858504   0.511858504   3.145907634
  -0.511858504  -0.511858504   3.145907634

ATOMIC_POSITIONS (crystal)
Li           -0.0000000000        0.3108186866        0.3108186866
Li            0.0000000000        0.6891813134        0.6891813134
Si           -0.5000000000        0.5688575533        0.0688575533
Si            0.5000000000        0.9311424467        0.4311424467



     Writing config-only to output data dir ./output/LiSi.save/
     NEW-OLD atomic charge density approx. for the potential
     extrapolated charge   15.63475, renormalised to   14.00000

     total cpu time spent up to now is       32.9 secs

     Self-consistent Calculation

     iteration #  1     ecut=    80.00 Ry     beta= 0.70
     Davidson diagonalization with overlap
     c_bands:  1 eigenvalues not converged
     c_bands:  1 eigenvalues not converged
     ethr =  1.00E-06,  avg # of iterations = 14.1

     total cpu time spent up to now is       44.6 secs

     total energy              =     -45.42555030 Ry
     estimated scf accuracy    <       0.28792929 Ry

     iteration #  2     ecut=    80.00 Ry     beta= 0.70
     Davidson diagonalization with overlap
     ethr =  2.06E-03,  avg # of iterations =  2.2

     total cpu time spent up to now is       48.2 secs

     total energy              =     -45.47108787 Ry
     estimated scf accuracy    <       0.41595067 Ry

     iteration #  3     ecut=    80.00 Ry     beta= 0.70
     Davidson diagonalization with overlap
     ethr =  2.06E-03,  avg # of iterations =  2.0

     total cpu time spent up to now is       51.2 secs

     total energy              =     -45.51624571 Ry
     estimated scf accuracy    <       0.40529410 Ry

     iteration #  4     ecut=    80.00 Ry     beta= 0.70
     Davidson diagonalization with overlap
     ethr =  2.06E-03,  avg # of iterations =  1.6

     total cpu time spent up to now is       54.0 secs

     total energy              =     -45.56991060 Ry
     estimated scf accuracy    <       0.00619729 Ry

     iteration #  5     ecut=    80.00 Ry     beta= 0.70
     Davidson diagonalization with overlap
     ethr =  4.43E-05,  avg # of iterations =  2.8

     total cpu time spent up to now is       57.4 secs

     total energy              =     -45.57121337 Ry
     estimated scf accuracy    <       0.00019371 Ry

     iteration #  6     ecut=    80.00 Ry     beta= 0.70
     Davidson diagonalization with overlap
     ethr =  1.38E-06,  avg # of iterations =  4.5

     total cpu time spent up to now is       61.0 secs

     total energy              =     -45.57126299 Ry
     estimated scf accuracy    <       0.00000477 Ry

     iteration #  7     ecut=    80.00 Ry     beta= 0.70
     Davidson diagonalization with overlap
     ethr =  3.41E-08,  avg # of iterations =  2.7

     total cpu time spent up to now is       64.2 secs

     total energy              =     -45.57126483 Ry
     estimated scf accuracy    <       0.00000030 Ry

     iteration #  8     ecut=    80.00 Ry     beta= 0.70
     Davidson diagonalization with overlap
     ethr =  2.13E-09,  avg # of iterations =  2.3

     total cpu time spent up to now is       67.1 secs

     End of self-consistent calculation

          k = 0.0000 0.0000 0.0000 (  3281 PWs)   bands (ev):

   -37.1790 -37.0813  -5.8019  -2.1518   2.7838   6.8200   9.1056  15.6289
    16.3253  16.3253  17.7990

          k = 0.4884 0.0000-0.0795 (  3250 PWs)   bands (ev):

   -37.0627 -37.0584   0.0545   0.0810   3.2193   3.5780   6.9105   8.7763
     9.7328  12.3575  15.7260

          k = 0.0000 0.0888 0.0144 (  3262 PWs)   bands (ev):

   -37.1716 -37.0778  -5.6043  -1.9628   2.9422   6.9323   9.2508  12.8570
    15.4582  16.4927  17.8353

          k = 0.4884 0.0888-0.0650 (  3256 PWs)   bands (ev):

   -37.0576 -37.0536   0.2470   0.2706   3.4073   3.7523   7.0968   8.9195
     9.9013  12.4809  15.6117

          k = 0.0000 0.1776 0.0289 (  3257 PWs)   bands (ev):

   -37.1510 -37.0687  -5.0129  -1.3981   3.4133   7.2316   9.3566   9.9535
    12.5290  16.9947  17.1106

          k = 0.4884 0.1776-0.0506 (  3256 PWs)   bands (ev):

   -37.0438 -37.0408   0.8220   0.8365   3.9685   4.2708   7.6482   9.3320
    10.3844  12.7687  14.6099

          k = 0.0000 0.2664 0.0433 (  3261 PWs)   bands (ev):

   -37.1226 -37.0584  -4.0318  -0.4661   4.1729   6.3549   7.8475   9.5599
    10.6141  14.6610  16.5253

          k = 0.4884 0.2664-0.0361 (  3239 PWs)   bands (ev):

   -37.0257 -37.0239   1.7677   1.7701   4.8911   5.1173   8.5225   9.9387
    11.0355  11.9660  12.2174

          k = 0.0000 0.3552 0.0578 (  3245 PWs)   bands (ev):

   -37.0930 -37.0522  -2.6680   0.8133   3.6227   5.1524   6.8924   8.8123
    10.5721  12.9646  15.1945

          k = 0.4884 0.3552-0.0217 (  3218 PWs)   bands (ev):

   -37.0091 -37.0083   3.0339   3.0629   6.1365   6.2518   9.1671   9.5090
     9.9371  10.4856  11.4851

          k = 0.0000 0.4440 0.0722 (  3248 PWs)   bands (ev):

   -37.0693 -37.0547  -0.9326   1.1382   2.4843   4.3695   6.6687   8.9703
     9.7548  12.4505  15.3329

          k = 0.4884 0.4440-0.0072 (  3220 PWs)   bands (ev):

   -36.9991 -36.9991   4.4671   4.5462   7.1389   7.2687   7.6622   7.7866
     9.4106   9.9508  11.6359

          k = 0.0888-0.0888 0.0000 (  3265 PWs)   bands (ev):

   -37.1642 -37.0742  -5.4068  -1.7738   3.0936   7.1058   9.3191  12.3455
    14.3640  15.0032  16.6447

          k = 0.5772-0.0888-0.0795 (  3253 PWs)   bands (ev):

   -37.0745 -37.0477  -1.6526   1.7263   2.6024   5.3531   6.5602   9.1067
    10.1753  13.0385  15.0215

          k = 0.5772 0.0000-0.0650 (  3253 PWs)   bands (ev):

   -37.0800 -37.0522  -1.8465   1.5389   2.4204   5.1773   6.4142   8.8741
     9.9599  13.1537  15.1585

          k = 0.0888 0.0888 0.0289 (  3264 PWs)   bands (ev):

   -37.1642 -37.0742  -5.4069  -1.7739   3.1085   6.9919   9.4806  12.3425
    14.3607  15.0036  16.6260

          k = 0.5772 0.0888-0.0506 (  3257 PWs)   bands (ev):

   -37.0745 -37.0477  -1.6532   1.7249   2.6057   5.3562   6.6177   8.9518
    10.0648  13.5353  15.1687

          k = 0.0888 0.1776 0.0433 (  3260 PWs)   bands (ev):

   -37.1440 -37.0651  -4.8162  -1.2099   3.5901   7.2538   9.5193  10.1964
    12.6097  14.2061  16.2782

          k = 0.5772 0.1776-0.0361 (  3254 PWs)   bands (ev):

   -37.0594 -37.0360  -1.0744   2.2792   3.1527   5.8930   7.1671   9.2908
    10.4726  13.2847  14.2521

          k = 0.0888 0.2664 0.0578 (  3265 PWs)   bands (ev):

   -37.1161 -37.0545  -3.8361  -0.2790   4.3645   6.5212   7.8087   9.8535
    10.8773  14.6073  14.9234

          k = 0.5772 0.2664-0.0217 (  3246 PWs)   bands (ev):

   -37.0391 -37.0209  -0.1162   3.1896   4.0355   6.7730   8.0114   9.7172
    10.5342  11.1921  13.0618

          k = 0.0888 0.3552 0.0722 (  3252 PWs)   bands (ev):

   -37.0872 -37.0480  -2.4738   0.9991   3.8088   5.3473   7.0284   8.8967
    10.7597  13.2525  15.0728

          k = 0.5772 0.3552-0.0072 (  3240 PWs)   bands (ev):

   -37.0195 -37.0080   1.2085   4.4355   5.0866   7.8600   7.9866   8.8102
    10.4321  11.1469  11.8098

          k = 0.0888-0.5328-0.0722 (  3263 PWs)   bands (ev):

   -37.0640 -37.0500  -0.7406   1.3290   2.6675   4.5435   6.8836   9.1050
     9.8071  12.7435  15.3995

          k = 0.5772-0.5328-0.1517 (  3224 PWs)   bands (ev):

   -37.0061 -37.0021   2.8657   4.6857   5.9765   7.5715   7.7279   9.1540
     9.8328  10.2870  11.7082

          k = 0.0888-0.4440-0.0578 (  3254 PWs)   bands (ev):

   -37.0640 -37.0500  -0.7398   1.3271   2.6678   4.5514   6.8146   9.1450
    10.0312  12.4099  15.1609

          k = 0.5772-0.4440-0.1373 (  3208 PWs)   bands (ev):

   -37.0061 -37.0021   2.8632   4.6820   6.0390   7.6269   7.6871   8.7799
     9.7059  10.8139  11.1816

          k = 0.0888-0.3552-0.0433 (  3249 PWs)   bands (ev):

   -37.0871 -37.0480  -2.4733   1.0009   3.8009   5.2933   7.0968   9.0484
    10.6951  12.9531  14.9789

          k = 0.5772-0.3552-0.1228 (  3218 PWs)   bands (ev):

   -37.0195 -37.0080   1.2072   4.4760   5.0750   7.7620   8.0034   8.5429
    10.7007  11.3034  11.7638

          k = 0.0888-0.2664-0.0289 (  3264 PWs)   bands (ev):

   -37.1161 -37.0545  -3.8358  -0.2778   4.3096   6.5193   8.1962   9.5634
    10.6450  14.8345  14.9516

          k = 0.5772-0.2664-0.1084 (  3239 PWs)   bands (ev):

   -37.0391 -37.0209  -0.1160   3.2094   4.0285   6.6940   7.8020  10.2985
    10.6567  11.4675  12.5580

          k = 0.0888-0.1776-0.0144 (  3256 PWs)   bands (ev):

   -37.1440 -37.0651  -4.8159  -1.2095   3.5575   7.4682   9.4537   9.9520
    12.5953  14.2142  16.3151

          k = 0.5772-0.1776-0.0939 (  3247 PWs)   bands (ev):

   -37.0593 -37.0360  -1.0736   2.2861   3.1470   5.8685   7.0401   9.6677
    10.6876  13.0799  13.4082

          k = 0.1776-0.1776 0.0000 (  3255 PWs)   bands (ev):

   -37.1248 -37.0556  -4.2268  -0.6461   4.0161   7.9072   9.5493   9.8708
    11.7287  12.3660  14.0829

          k = 0.6660-0.1776-0.0795 (  3260 PWs)   bands (ev):

   -37.0844 -37.0398  -2.6183   0.8759   5.3259   5.7226   8.0455   9.4386
    11.4927  12.2987  13.8576

          k = 0.6660-0.0888-0.0650 (  3259 PWs)   bands (ev):

   -37.1013 -37.0504  -3.2027   0.3173   4.8661   5.2297   7.4157   9.0540
    11.3087  13.7054  15.2421

          k = 0.6660 0.0000-0.0506 (  3256 PWs)   bands (ev):

   -37.1075 -37.0545  -3.3982   0.1301   4.7345   5.0608   7.1250   8.9353
    11.2831  13.5869  16.0498

          k = 0.6660 0.0888-0.0361 (  3253 PWs)   bands (ev):

   -37.1013 -37.0504  -3.2031   0.3157   4.9478   5.2313   7.1848   9.0851
    11.5489  13.7421  15.2493

          k = 0.1776 0.1776 0.0578 (  3247 PWs)   bands (ev):

   -37.1248 -37.0556  -4.2272  -0.6477   4.0874   7.5065   9.3983  10.5532
    11.7828  12.3782  14.1872

          k = 0.6660 0.1776-0.0217 (  3254 PWs)   bands (ev):

   -37.0844 -37.0398  -2.6189   0.8707   5.5039   5.7253   7.5689   9.4771
    11.8260  12.3731  14.2571

          k = 0.1776 0.2664 0.0722 (  3253 PWs)   bands (ev):

   -37.0983 -37.0444  -3.2502   0.2800   4.8856   6.9715   8.0596  10.3413
    11.2111  11.9952  14.0129

          k = 0.6660 0.2664-0.0072 (  3245 PWs)   bands (ev):

   -37.0614 -37.0267  -1.6503   1.7864   6.3140   6.4517   8.1502   9.2730
    10.0441  12.4399  12.6694

          k = 0.1776-0.6216-0.0722 (  3260 PWs)   bands (ev):

   -37.0712 -37.0368  -1.8923   1.5539   4.3487   5.8840   7.4960   9.2489
    11.2149  12.7528  13.7276

          k = 0.6660-0.6216-0.1517 (  3241 PWs)   bands (ev):

   -37.0384 -37.0164  -0.3063   3.0452   5.6175   7.4421   8.3261   8.5767
    10.0352  11.7583  12.1449

          k = 0.1776-0.5328-0.0578 (  3251 PWs)   bands (ev):

   -37.0497 -37.0376  -0.1658   1.8951   3.2116   5.0742   7.4604   9.4928
    10.1818  13.1311  14.2615

          k = 0.6660-0.5328-0.1373 (  3231 PWs)   bands (ev):

   -37.0214 -37.0137   1.3959   3.4053   4.6666   6.5038   8.9416   9.6991
    10.4230  11.1987  11.6924

          k = 0.1776-0.4440-0.0433 (  3249 PWs)   bands (ev):

   -37.0497 -37.0376  -0.1647   1.8927   3.2170   5.0794   7.3056   9.6364
    10.6147  12.5569  14.0546

          k = 0.6660-0.4440-0.1228 (  3234 PWs)   bands (ev):

   -37.0213 -37.0137   1.3952   3.4056   4.6962   6.4715   8.5738   9.8858
    10.7663  11.3862  11.7581

          k = 0.1776-0.3552-0.0289 (  3247 PWs)   bands (ev):

   -37.0711 -37.0368  -1.8917   1.5605   4.3344   5.7577   7.6208   9.6291
    11.0624  12.8142  13.1150

          k = 0.6660-0.3552-0.1084 (  3230 PWs)   bands (ev):

   -37.0384 -37.0164  -0.3065   3.0688   5.5953   7.0783   8.5160   8.7311
    10.6671  11.2458  12.3152

          k = 0.1776-0.2664-0.0144 (  3257 PWs)   bands (ev):

   -37.0983 -37.0444  -3.2496   0.2839   4.7660   6.9683   8.8301   9.8642
    10.8069  11.8735  13.8699

          k = 0.6660-0.2664-0.0939 (  3247 PWs)   bands (ev):

   -37.0614 -37.0267  -1.6499   1.7991   6.0587   6.4021   8.8412   9.3329
    10.0612  11.9103  12.3354

          k = 0.2664-0.2664 0.0000 (  3259 PWs)   bands (ev):

   -37.0740 -37.0320  -2.2778   1.2109   5.5178   7.1275   9.2538   9.6908
    10.0838  11.4341  11.9548

          k = 0.7548-0.2664-0.0795 (  3251 PWs)   bands (ev):

   -37.0866 -37.0381  -2.8121   0.6963   5.2665   7.2083   8.2590  10.1890
    10.5661  12.0420  12.9873

          k = 0.7548-0.1776-0.0650 (  3247 PWs)   bands (ev):

   -37.1121 -37.0499  -3.7873  -0.2308   4.5361   7.3734   8.4103  11.0829
    11.5469  12.0008  14.0785

          k = 0.7548-0.0888-0.0506 (  3256 PWs)   bands (ev):

   -37.1306 -37.0596  -4.3754  -0.7917   4.0868   6.8537   8.0965  11.3353
    11.5331  14.4571  14.8204

          k = 0.7548-0.0000-0.0361 (  3261 PWs)   bands (ev):

   -37.1374 -37.0634  -4.5720  -0.9795   3.9517   6.6228   7.9404  11.2325
    11.6638  14.3694  17.3495

          k = 0.7548 0.0888-0.0217 (  3257 PWs)   bands (ev):

   -37.1306 -37.0596  -4.3757  -0.7925   4.1426   6.6919   8.0775  11.3437
    12.0318  14.2854  14.5297

          k = 0.7548 0.1776-0.0072 (  3244 PWs)   bands (ev):

   -37.1121 -37.0499  -3.7878  -0.2334   4.6571   7.0436   8.3623  11.1720
    11.6164  12.7838  14.2370

          k = 0.2664-0.7104-0.0722 (  3248 PWs)   bands (ev):

   -37.0741 -37.0320  -2.2783   1.2017   5.7199   7.1414   8.4379   9.3499
    10.5104  12.1853  12.4741

          k = 0.7548-0.7104-0.1517 (  3252 PWs)   bands (ev):

   -37.0866 -37.0382  -2.8127   0.6902   5.4660   7.2440   7.6290  10.1706
    10.6737  12.9621  13.3424

          k = 0.2664-0.6216-0.0578 (  3240 PWs)   bands (ev):

   -37.0495 -37.0228  -0.9287   2.4668   5.1835   6.7570   8.2068   9.5539
    10.0389  11.8551  12.7071

          k = 0.7548-0.6216-0.1373 (  3249 PWs)   bands (ev):

   -37.0607 -37.0299  -1.4581   1.9609   4.7463   6.3998   7.7131   9.3142
    11.1004  11.6974  13.8525

          k = 0.2664-0.5328-0.0433 (  3238 PWs)   bands (ev):

   -37.0308 -37.0215   0.7846   2.8207   4.1027   5.9482   8.3702   9.9633
    10.8128  11.3396  12.8363

          k = 0.7548-0.5328-0.1228 (  3251 PWs)   bands (ev):

   -37.0405 -37.0297   0.2631   2.3150   3.6133   5.4704   7.9206   9.6854
    10.4226  12.5617  13.7508

          k = 0.2664-0.4440-0.0289 (  3228 PWs)   bands (ev):

   -37.0308 -37.0215   0.7848   2.8198   4.1218   5.9328   8.0942  10.3886
    11.1091  11.5078  12.4250

          k = 0.7548-0.4440-0.1084 (  3243 PWs)   bands (ev):

   -37.0405 -37.0297   0.2639   2.3131   3.6244   5.4679   7.6995   9.9558
    10.8685  12.5965  12.8528

          k = 0.2664-0.3552-0.0144 (  3247 PWs)   bands (ev):

   -37.0495 -37.0228  -0.9284   2.4835   5.1642   6.5238   8.3852   9.7480
    10.5544  11.6988  12.1749

          k = 0.7548-0.3552-0.0939 (  3241 PWs)   bands (ev):

   -37.0607 -37.0299  -1.4575   1.9717   4.7306   6.1906   7.9161   9.7031
    11.0777  11.7043  13.2275

          k = 0.3552-0.3552 0.0000 (  3223 PWs)   bands (ev):

   -37.0282 -37.0113   0.4062   3.7495   5.6899   7.5122   7.8280   8.7989
    10.5412  11.5769  12.0399

          k = 0.8436-0.3552-0.0795 (  3253 PWs)   bands (ev):

   -37.0802 -37.0431  -2.2313   1.2309   4.0361   5.5728   7.2230   9.0438
    10.9633  13.4866  14.2117

          k = 0.8436-0.2664-0.0650 (  3258 PWs)   bands (ev):

   -37.1084 -37.0500  -3.5922  -0.0475   4.6697   6.7240   7.5391  10.2113
    11.5695  13.2829  14.3796

          k = 0.8436-0.1776-0.0506 (  3254 PWs)   bands (ev):

   -37.1357 -37.0608  -4.5714  -0.9773   3.9374   6.7848   9.6235  11.3445
    12.7381  12.7590  15.0932

          k = 0.8436-0.0888-0.0361 (  3261 PWs)   bands (ev):

   -37.1555 -37.0701  -5.1618  -1.5399   3.4807   6.3297  10.9058  11.3663
    14.0383  14.0777  15.2617

          k = 0.8436 0.0000-0.0217 (  3256 PWs)   bands (ev):

   -37.1627 -37.0737  -5.3592  -1.7282   3.3350   6.1427  10.9018  11.4373
    14.1410  15.0593  16.6754

          k = 0.8436 0.0888-0.0072 (  3259 PWs)   bands (ev):

   -37.1555 -37.0701  -5.1620  -1.5401   3.5110   6.2311  11.0083  11.5040
    14.0383  14.1619  14.8937

          k = 0.8436-0.7992-0.1517 (  3254 PWs)   bands (ev):

   -37.1357 -37.0608  -4.5718  -0.9782   4.0035   6.5810   9.6233  11.7290
    12.7463  12.9742  14.7054

          k = 0.8436-0.7104-0.1373 (  3260 PWs)   bands (ev):

   -37.1084 -37.0500  -3.5927  -0.0497   4.7786   6.7384   7.1824  10.2795
    12.2019  13.2876  14.0427

          k = 0.3552-0.6216-0.0433 (  3241 PWs)   bands (ev):

   -37.0282 -37.0113   0.4069   3.7173   5.7150   7.7344   7.9253   8.6015
    10.4387  11.0510  12.2440

          k = 0.8436-0.6216-0.1228 (  3256 PWs)   bands (ev):

   -37.0802 -37.0431  -2.2319   1.2273   4.0470   5.6777   7.0963   8.8612
    10.9994  14.0839  14.2195

          k = 0.3552-0.5328-0.0289 (  3227 PWs)   bands (ev):

   -37.0129 -37.0071   2.0924   4.0493   5.3048   7.1095   8.5818   9.4053
    10.4089  10.5678  11.5233

          k = 0.8436-0.5328-0.1084 (  3257 PWs)   bands (ev):

   -37.0577 -37.0446  -0.5011   1.5665   2.8944   4.7620   7.1651   9.2388
     9.8735  13.1136  15.2899

          k = 0.3552-0.4440-0.0144 (  3220 PWs)   bands (ev):

   -37.0129 -37.0071   2.0908   4.0499   5.3480   7.0606   8.6742   8.9176
    10.5366  10.9455  11.4160

          k = 0.8436-0.4440-0.0939 (  3255 PWs)   bands (ev):

   -37.0577 -37.0446  -0.5000   1.5641   2.8964   4.7704   7.0513   9.3314
    10.1700  12.6313  14.9876

          k = 0.4440-0.4440 0.0000 (  3202 PWs)   bands (ev):

   -37.0014 -36.9994   3.6915   4.9843   6.6588   7.2182   7.9566   8.1340
     9.1653  10.6095  11.1479

          k = 0.9324-0.4440-0.0795 (  3250 PWs)   bands (ev):

   -37.0679 -37.0535  -0.8847   1.1862   2.5303   4.4117   6.7306   9.0011
     9.7400  12.5666  15.3817

          k = 0.9324-0.3552-0.0650 (  3254 PWs)   bands (ev):

   -37.0915 -37.0511  -2.6201   0.8582   3.6790   5.2690   6.8326   8.6863
    10.6735  13.4397  15.3071

          k = 0.9324-0.2664-0.0506 (  3260 PWs)   bands (ev):

   -37.1209 -37.0574  -3.9839  -0.4217   4.3785   6.4096   7.0977   9.9872
    11.5462  13.9771  16.4185

          k = 0.9324-0.1776-0.0361 (  3264 PWs)   bands (ev):

   -37.1493 -37.0678  -4.9650  -1.3528   3.6385   6.4315   9.4968  11.3871
    12.7188  14.9712  15.8009

          k = 0.9324-0.0888-0.0217 (  3254 PWs)   bands (ev):

   -37.1697 -37.0769  -5.5565  -1.9162   3.1725   6.0310  11.0309  12.6921
    14.9395  15.4214  15.7792

          k = 0.9324-0.0000-0.0072 (  3262 PWs)   bands (ev):

   -37.1771 -37.0804  -5.7541  -2.1048   3.0173   5.8840  10.9703  14.2161
    15.0469  16.3376  17.1189

          k = 0.9324-0.8880-0.1517 (  3250 PWs)   bands (ev):

   -37.1697 -37.0769  -5.5565  -1.9163   3.1820   5.9992  11.1213  12.6800
    14.8679  15.4202  15.7511

          k = 0.9324-0.7992-0.1373 (  3263 PWs)   bands (ev):

   -37.1493 -37.0678  -4.9652  -1.3529   3.6592   6.3654   9.4985  11.5432
    12.7732  14.7319  15.7957

          k = 0.9324-0.7104-0.1228 (  3253 PWs)   bands (ev):

   -37.1209 -37.0574  -3.9841  -0.4221   4.4127   6.4153   6.9808  10.0129
    11.7780  13.8056  16.4220

          k = 0.9324-0.6216-0.1084 (  3252 PWs)   bands (ev):

   -37.0915 -37.0511  -2.6204   0.8575   3.6829   5.3003   6.7891   8.6347
    10.6873  13.6368  15.3457

          k = 0.4440-0.5328-0.0144 (  3217 PWs)   bands (ev):

   -37.0014 -36.9994   3.6936   4.9962   6.5496   7.1963   8.0575   8.1721
     9.5776   9.9672  11.9075

          k = 0.9324-0.5328-0.0939 (  3250 PWs)   bands (ev):

   -37.0679 -37.0535  -0.8852   1.1872   2.5304   4.4072   6.7655   8.9808
     9.6398  12.7308  15.5012

     the Fermi energy is     8.9961 ev

!    total energy              =     -45.57126490 Ry
     estimated scf accuracy    <          3.4E-09 Ry
     smearing contrib. (-TS)   =      -0.00061004 Ry
     internal energy E=F+TS    =     -45.57065486 Ry

     The total energy is F=E-TS. E is the sum of the following terms:
     one-electron contribution =      -5.33997795 Ry
     hartree contribution      =       6.38643625 Ry
     xc contribution           =     -13.39331638 Ry
     ewald contribution        =     -33.22379678 Ry

     convergence has been achieved in   8 iterations

     Forces acting on atoms (cartesian axes, Ry/au):

     atom    1 type  1   force =     0.00000000    0.00000000   -0.03928321
     atom    2 type  1   force =     0.00000000   -0.00000000    0.03928321
     atom    3 type  2   force =     0.00000000    0.00000000   -0.07041902
     atom    4 type  2   force =    -0.00000000    0.00000000    0.07041902
     The non-local contrib.  to forces
     atom    1 type  1   force =     0.00000000    0.00000000    0.00651670
     atom    2 type  1   force =    -0.00000000   -0.00000000   -0.00651670
     atom    3 type  2   force =     0.00000000   -0.00000000   -0.17943279
     atom    4 type  2   force =     0.00000000   -0.00000000    0.17943279
     The ionic contribution  to forces
     atom    1 type  1   force =     0.00000000   -0.00000000   -0.84237287
     atom    2 type  1   force =    -0.00000000   -0.00000000    0.84237287
     atom    3 type  2   force =     0.00000000    0.00000000    0.21144415
     atom    4 type  2   force =     0.00000000    0.00000000   -0.21144415
     The local contribution  to forces
     atom    1 type  1   force =     0.00000000   -0.00000000    0.79653921
     atom    2 type  1   force =    -0.00000000    0.00000000   -0.79653921
     atom    3 type  2   force =    -0.00000000    0.00000000   -0.11246660
     atom    4 type  2   force =    -0.00000000   -0.00000000    0.11246660
     The core correction contribution to forces
     atom    1 type  1   force =     0.00000000    0.00000000    0.00000000
     atom    2 type  1   force =     0.00000000    0.00000000    0.00000000
     atom    3 type  2   force =     0.00000000   -0.00000000    0.01010416
     atom    4 type  2   force =    -0.00000000   -0.00000000   -0.01010416
     The Hubbard contrib.    to forces
     atom    1 type  1   force =     0.00000000    0.00000000    0.00000000
     atom    2 type  1   force =     0.00000000    0.00000000    0.00000000
     atom    3 type  2   force =     0.00000000    0.00000000    0.00000000
     atom    4 type  2   force =     0.00000000    0.00000000    0.00000000
     The SCF correction term to forces
     atom    1 type  1   force =    -0.00000000    0.00000000    0.00003375
     atom    2 type  1   force =     0.00000000   -0.00000000   -0.00003375
     atom    3 type  2   force =    -0.00000000    0.00000000   -0.00006793
     atom    4 type  2   force =    -0.00000000    0.00000000    0.00006793

     Total force =     0.114035     Total SCF correction =     0.000107


     Computing stress (Cartesian axis) and pressure

          total   stress  (Ry/bohr**3)                   (kbar)     P=      285.28
   0.00172930  -0.00000000  -0.00000000          254.39       -0.00       -0.00
  -0.00000000   0.00172930   0.00000000           -0.00      254.39        0.00
   0.00000000  -0.00000000   0.00235935            0.00       -0.00      347.07

     Energy error            =      3.2E-01 Ry
     Gradient error          =      7.0E-02 Ry/Bohr
     Cell gradient error     =      2.5E+02 kbar

     number of scf cycles    =   2
     number of bfgs steps    =   1

     enthalpy           old  =     -44.2151514503 Ry
     enthalpy           new  =     -44.5364989552 Ry

     CASE: enthalpy          _new < enthalpy          _old

     new trust radius        =       0.1593822726 bohr
ibrav =      7
 celldm(1) =      4.41579018
 celldm(3) =      6.32088431
Input lattice vectors:
     0.48848036    -0.48848036     3.08762784
     0.48848036     0.48848036     3.08762784
    -0.48848036    -0.48848036     3.08762784
New lattice vectors in INITIAL alat:
     0.48848036    -0.48848036     3.08762784
     0.48848036     0.48848036     3.08762784
    -0.48848036    -0.48848036     3.08762784
New lattice vectors in NEW alat (for information only):
     0.50000000    -0.50000000     3.16044215
     0.50000000     0.50000000     3.16044215
    -0.50000000    -0.50000000     3.16044215
Discrepancy in bohr =     0.000000    0.000000    0.000000
     new conv_thr            =       0.0000000070 Ry

     new unit-cell volume =    272.12794 a.u.^3 (    40.32520 Ang^3 )
     density =      2.88469 g/cm^3

CELL_PARAMETERS (alat=  4.51992603)
   0.488480359  -0.488480359   3.087627836
   0.488480359   0.488480359   3.087627836
  -0.488480359  -0.488480359   3.087627836

ATOMIC_POSITIONS (crystal)
Li           -0.0000000000        0.3074935382        0.3074935382
Li            0.0000000000        0.6925064618        0.6925064618
Si           -0.5000000000        0.5640545855        0.0640545855
Si            0.5000000000        0.9359454145        0.4359454145



     Writing config-only to output data dir ./output/LiSi.save/
     NEW-OLD atomic charge density approx. for the potential
     extrapolated charge   12.33896, renormalised to   14.00000

     total cpu time spent up to now is       68.8 secs

     Self-consistent Calculation

     iteration #  1     ecut=    80.00 Ry     beta= 0.70
     Davidson diagonalization with overlap
     c_bands:  1 eigenvalues not converged
     ethr =  1.00E-06,  avg # of iterations = 11.5

     total cpu time spent up to now is       78.1 secs

     total energy              =     -45.37611349 Ry
     estimated scf accuracy    <       0.12671191 Ry

     iteration #  2     ecut=    80.00 Ry     beta= 0.70
     Davidson diagonalization with overlap
     ethr =  9.05E-04,  avg # of iterations =  4.7

     total cpu time spent up to now is       82.3 secs

     total energy              =     -45.26403277 Ry
     estimated scf accuracy    <       3.17042635 Ry

     iteration #  3     ecut=    80.00 Ry     beta= 0.70
     Davidson diagonalization with overlap
     ethr =  9.05E-04,  avg # of iterations =  3.4

     total cpu time spent up to now is       85.8 secs

     total energy              =     -45.50268647 Ry
     estimated scf accuracy    <       0.06986971 Ry

     iteration #  4     ecut=    80.00 Ry     beta= 0.70
     Davidson diagonalization with overlap
     ethr =  4.99E-04,  avg # of iterations =  1.4

     total cpu time spent up to now is       88.5 secs

     total energy              =     -45.50407286 Ry
     estimated scf accuracy    <       0.01371218 Ry

     iteration #  5     ecut=    80.00 Ry     beta= 0.70
     Davidson diagonalization with overlap
     ethr =  9.79E-05,  avg # of iterations =  2.8

     total cpu time spent up to now is       91.4 secs

     total energy              =     -45.50451174 Ry
     estimated scf accuracy    <       0.00180484 Ry

     iteration #  6     ecut=    80.00 Ry     beta= 0.70
     Davidson diagonalization with overlap
     ethr =  1.29E-05,  avg # of iterations =  4.4

     total cpu time spent up to now is       95.0 secs

     total energy              =     -45.50485429 Ry
     estimated scf accuracy    <       0.00005699 Ry

     iteration #  7     ecut=    80.00 Ry     beta= 0.70
     Davidson diagonalization with overlap
     ethr =  4.07E-07,  avg # of iterations =  2.7

     total cpu time spent up to now is       98.0 secs

     total energy              =     -45.50486360 Ry
     estimated scf accuracy    <       0.00000154 Ry

     iteration #  8     ecut=    80.00 Ry     beta= 0.70
     Davidson diagonalization with overlap
     ethr =  1.10E-08,  avg # of iterations =  2.7

     total cpu time spent up to now is      101.1 secs

     total energy              =     -45.50486407 Ry
     estimated scf accuracy    <       0.00000002 Ry

     iteration #  9     ecut=    80.00 Ry     beta= 0.70
     Davidson diagonalization with overlap
     ethr =  1.77E-10,  avg # of iterations =  3.3

     total cpu time spent up to now is      104.4 secs

     total energy              =     -45.50486408 Ry
     estimated scf accuracy    <          7.8E-09 Ry

     iteration # 10     ecut=    80.00 Ry     beta= 0.70
     Davidson diagonalization with overlap
     ethr =  5.60E-11,  avg # of iterations =  1.8

     total cpu time spent up to now is      107.2 secs

     End of self-consistent calculation

          k = 0.0000 0.0000 0.0000 (  3281 PWs)   bands (ev):

   -35.8839 -35.7097  -6.0700  -1.4334   3.5612   7.9887  10.2430  16.7330
    18.3673  19.3270  19.8153

          k = 0.5118-0.0000-0.0810 (  3250 PWs)   bands (ev):

   -35.6926 -35.6884   0.3564   0.3753   4.4820   4.8507   8.1003  10.0262
    10.9198  13.6498  17.3400

          k =-0.0000 0.0931 0.0147 (  3262 PWs)   bands (ev):

   -35.8720 -35.7048  -5.8531  -1.2245   3.7375   8.0996  10.3909  14.1738
    17.6730  18.5482  19.3757

          k = 0.5118 0.0931-0.0662 (  3256 PWs)   bands (ev):

   -35.6850 -35.6811   0.5647   0.5819   4.6885   5.0440   8.3061  10.1960
    11.1013  13.7980  17.2540

          k =-0.0000 0.1861 0.0294 (  3257 PWs)   bands (ev):

   -35.8393 -35.6925  -5.2040  -0.6005   4.2621   8.3963  10.3184  11.2988
    14.5690  18.8632  19.0915

          k = 0.5118 0.1861-0.0515 (  3256 PWs)   bands (ev):

   -35.6645 -35.6615   1.1865   1.1986   5.3043   5.6179   8.9170  10.6872
    11.6277  14.1813  16.3517

          k =-0.0000 0.2792 0.0442 (  3261 PWs)   bands (ev):

   -35.7935 -35.6790  -4.1279   0.4300   5.1137   7.1882   9.0104  11.1957
    12.0627  16.4339  18.1391

          k = 0.5118 0.2792-0.0368 (  3239 PWs)   bands (ev):

   -35.6376 -35.6358   2.2095   2.2126   6.3153   6.5526   9.8954  11.4321
    12.3594  13.5625  13.7491

          k =-0.0000 0.3722 0.0589 (  3245 PWs)   bands (ev):

   -35.7453 -35.6726  -2.6332   1.8488   4.2217   6.2305   8.3673  10.0213
    11.9321  14.4739  16.7598

          k = 0.5118 0.3722-0.0221 (  3218 PWs)   bands (ev):

   -35.6128 -35.6121   3.5843   3.5966   7.6814   7.7999  10.5848  10.8154
    11.3339  12.1779  13.0439

          k =-0.0000 0.4653 0.0736 (  3248 PWs)   bands (ev):

   -35.7053 -35.6800  -0.7319   1.5562   3.6409   5.7300   7.8287  10.2148
    10.9816  13.7638  16.9681

          k = 0.5118 0.4653-0.0074 (  3220 PWs)   bands (ev):

   -35.5980 -35.5979   5.1004   5.1390   8.4784   8.5235   9.1872   9.2702
    11.1310  11.8833  13.2656

          k = 0.0931-0.0931 0.0000 (  3265 PWs)   bands (ev):

   -35.8604 -35.6999  -5.6363  -1.0161   3.9097   8.2664  10.4699  13.5205
    16.3097  17.1595  18.9327

          k = 0.6048-0.0931-0.0810 (  3253 PWs)   bands (ev):

   -35.7152 -35.6677  -1.5217   2.8400   3.1195   6.6993   7.7875  10.3400
    11.5385  14.4285  16.5758

          k = 0.6048-0.0000-0.0662 (  3253 PWs)   bands (ev):

   -35.7237 -35.6742  -1.7333   2.6405   2.9168   6.5080   7.6033  10.1150
    11.3118  14.5022  16.6672

          k = 0.0931 0.0931 0.0294 (  3264 PWs)   bands (ev):

   -35.8604 -35.6999  -5.6365  -1.0155   3.9184   8.1652  10.6252  13.5186
    16.3065  17.1501  18.7485

          k = 0.6048 0.0931-0.0515 (  3257 PWs)   bands (ev):

   -35.7152 -35.6677  -1.5224   2.8420   3.1220   6.7067   7.8075  10.2336
    11.4389  14.9020  16.6297

          k = 0.0931 0.1861 0.0442 (  3260 PWs)   bands (ev):

   -35.8282 -35.6873  -4.9883  -0.3920   4.4503   8.4312  10.5141  11.4717
    14.6294  16.0510  18.3487

          k = 0.6048 0.1861-0.0368 (  3254 PWs)   bands (ev):

   -35.6920 -35.6504  -0.8912   3.4410   3.7253   7.3007   8.3978  10.6354
    11.9014  14.8906  15.7155

          k = 0.0931 0.2792 0.0589 (  3265 PWs)   bands (ev):

   -35.7833 -35.6735  -3.9136   0.6373   5.3137   7.3644   9.0026  11.5578
    12.2636  16.3016  16.8158

          k = 0.6048 0.2792-0.0221 (  3246 PWs)   bands (ev):

   -35.6608 -35.6285   0.1529   4.4271   4.6888   8.2762   9.3241  11.0804
    11.9905  12.7026  15.3771

          k = 0.0931 0.3722 0.0736 (  3252 PWs)   bands (ev):

   -35.7362 -35.6664  -2.4210   2.0542   4.4211   6.4392   8.4942  10.1611
    12.1624  14.7421  16.6237

          k = 0.6048 0.3722-0.0074 (  3240 PWs)   bands (ev):

   -35.6304 -35.6099   1.5937   5.6868   5.8919   9.0820   9.5634  10.2951
    12.0461  13.0976  13.3255

          k = 0.0931-0.5583-0.0736 (  3263 PWs)   bands (ev):

   -35.6973 -35.6731  -0.5229   1.7619   3.8458   5.9188   8.0559  10.3962
    11.0432  14.0754  16.9914

          k = 0.6048-0.5583-0.1546 (  3224 PWs)   bands (ev):

   -35.6091 -35.6020   3.3880   5.3191   7.5317   8.7065   9.3659  10.6224
    11.3839  12.0360  13.2934

          k = 0.0931-0.4653-0.0589 (  3254 PWs)   bands (ev):

   -35.6973 -35.6731  -0.5219   1.7602   3.8422   5.9334   7.9987  10.4040
    11.2662  13.7567  16.8182

          k = 0.6048-0.4653-0.1399 (  3208 PWs)   bands (ev):

   -35.6091 -35.6020   3.3882   5.3144   7.5713   8.7720   9.3623  10.4161
    10.9120  12.5346  13.1292

          k = 0.0931-0.3722-0.0442 (  3249 PWs)   bands (ev):

   -35.7362 -35.6664  -2.4204   2.0528   4.4166   6.3923   8.6132  10.2282
    12.0589  14.5067  16.5818

          k = 0.6048-0.3722-0.1251 (  3218 PWs)   bands (ev):

   -35.6304 -35.6099   1.5942   5.6817   5.9183   9.1449   9.3787  10.0766
    12.4978  12.8683  13.5351

          k = 0.0931-0.2792-0.0294 (  3264 PWs)   bands (ev):

   -35.7833 -35.6735  -3.9132   0.6361   5.2752   7.3638   9.3328  11.1817
    12.1351  16.6106  16.8213

          k = 0.6048-0.2792-0.1104 (  3239 PWs)   bands (ev):

   -35.6608 -35.6285   0.1540   4.4304   4.6922   8.1693   9.2008  11.5841
    12.0636  13.0472  14.5205

          k = 0.0931-0.1861-0.0147 (  3256 PWs)   bands (ev):

   -35.8282 -35.6873  -4.9880  -0.3930   4.4296   8.6259  10.4277  11.2533
    14.6165  16.0567  18.6224

          k = 0.6048-0.1861-0.0957 (  3247 PWs)   bands (ev):

   -35.6920 -35.6504  -0.8900   3.4398   3.7231   7.2632   8.3400  10.9361
    12.0944  14.5747  15.0189

          k = 0.1861-0.1861 0.0000 (  3255 PWs)   bands (ev):

   -35.7978 -35.6741  -4.3420   0.2279   4.9455   9.0661  10.4774  11.0165
    13.5555  14.3151  16.4753

          k = 0.6979-0.1861-0.0810 (  3260 PWs)   bands (ev):

   -35.7330 -35.6534  -2.5803   1.9131   6.3160   6.5361   9.3990  11.0281
    12.8105  14.0087  15.6270

          k = 0.6979-0.0931-0.0662 (  3259 PWs)   bands (ev):

   -35.7594 -35.6686  -3.2195   1.3006   5.7848   6.0132   8.7431  10.6399
    12.7311  15.1998  16.9759

          k = 0.6979 0.0000-0.0515 (  3256 PWs)   bands (ev):

   -35.7690 -35.6744  -3.4335   1.0963   5.6137   5.8392   8.4456  10.5281
    12.7309  15.0221  17.3800

          k = 0.6979 0.0931-0.0368 (  3253 PWs)   bands (ev):

   -35.7594 -35.6686  -3.2201   1.3017   5.8230   6.0339   8.5162  10.7020
    13.0634  15.0830  16.9990

          k = 0.1861 0.1861 0.0589 (  3247 PWs)   bands (ev):

   -35.7978 -35.6741  -4.3426   0.2293   4.9942   8.7011  10.3713  11.6249
    13.6491  14.3243  16.5684

          k = 0.6979 0.1861-0.0221 (  3254 PWs)   bands (ev):

   -35.7330 -35.6534  -2.5812   1.9130   6.3914   6.5969   8.9223  11.1227
    13.2830  14.0477  15.8279

          k = 0.1861 0.2792 0.0736 (  3253 PWs)   bands (ev):

   -35.7555 -35.6591  -3.2721   1.2542   5.8786   7.8342   9.2813  12.1226
    12.3995  13.7997  16.1011

          k = 0.6979 0.2792-0.0074 (  3245 PWs)   bands (ev):

   -35.6970 -35.6349  -1.5227   2.9210   7.1026   7.5257   9.4872  10.6383
    11.7129  14.4959  14.7580

          k = 0.1861-0.6514-0.0736 (  3260 PWs)   bands (ev):

   -35.7115 -35.6502  -1.7858   2.6643   5.0012   7.0265   8.9855  10.5828
    12.6889  14.2929  15.3989

          k = 0.6979-0.6514-0.1546 (  3241 PWs)   bands (ev):

   -35.6605 -35.6211  -0.0557   4.3077   6.3158   8.7293   9.5793  10.0919
    11.5687  13.8264  14.0375

          k = 0.1861-0.5583-0.0589 (  3251 PWs)   bands (ev):

   -35.6757 -35.6545   0.1029   2.3723   4.4496   6.5004   8.6848  10.8905
    11.4377  14.5992  15.8749

          k = 0.6979-0.5583-0.1399 (  3231 PWs)   bands (ev):

   -35.6326 -35.6190   1.7996   3.9940   6.0590   8.0636  10.3370  11.0625
    12.0094  12.5645  13.3146

          k = 0.1861-0.4653-0.0442 (  3249 PWs)   bands (ev):

   -35.6757 -35.6545   0.1043   2.3696   4.4485   6.5171   8.5481  10.9718
    11.8876  13.9946  15.6850

          k = 0.6979-0.4653-0.1251 (  3234 PWs)   bands (ev):

   -35.6326 -35.6190   1.8004   3.9914   6.0817   8.0463   9.9779  11.1863
    12.3682  12.9450  13.3604

          k = 0.1861-0.3722-0.0294 (  3247 PWs)   bands (ev):

   -35.7115 -35.6502  -1.7848   2.6649   4.9934   6.9112   9.2031  10.8141
    12.4420  14.4165  14.8221

          k = 0.6979-0.3722-0.1104 (  3230 PWs)   bands (ev):

   -35.6605 -35.6211  -0.0548   4.3220   6.3040   8.3802   9.7221  10.3763
    12.0525  13.2178  14.2376

          k = 0.1861-0.2792-0.0147 (  3257 PWs)   bands (ev):

   -35.7555 -35.6591  -3.2713   1.2537   5.7888   7.8322   9.9507  11.4341
    12.2512  13.6461  16.0690

          k = 0.6979-0.2792-0.0957 (  3247 PWs)   bands (ev):

   -35.6970 -35.6349  -1.5217   2.9264   7.0497   7.3279  10.1414  10.7431
    11.6042  13.8166  14.2867

          k = 0.2792-0.2792 0.0000 (  3259 PWs)   bands (ev):

   -35.7171 -35.6420  -2.2080   2.2738   6.6321   7.9344  10.4547  10.8165
    11.8807  13.1699  14.1206

          k = 0.7910-0.2792-0.0810 (  3251 PWs)   bands (ev):

   -35.7370 -35.6504  -2.7928   1.7135   6.2958   8.0615   9.4817  11.4928
    12.3360  13.7354  15.1927

          k = 0.7910-0.1861-0.0662 (  3247 PWs)   bands (ev):

   -35.7775 -35.6664  -3.8605   0.6930   5.4548   8.5872   9.3591  12.2517
    13.4234  13.8254  16.3414

          k = 0.7910-0.0931-0.0515 (  3256 PWs)   bands (ev):

   -35.8067 -35.6801  -4.5049   0.0759   4.9352   8.0722   9.0833  12.7869
    13.2879  16.0753  16.5818

          k = 0.7910-0.0000-0.0368 (  3261 PWs)   bands (ev):

   -35.8174 -35.6854  -4.7204  -0.1301   4.7692   7.8524   8.9275  12.8883
    13.2602  15.7496  18.8356

          k = 0.7910 0.0931-0.0221 (  3257 PWs)   bands (ev):

   -35.8067 -35.6801  -4.5053   0.0770   4.9696   7.9383   9.0645  13.0764
    13.5513  15.6231  16.4523

          k = 0.7910 0.1861-0.0074 (  3244 PWs)   bands (ev):

   -35.7775 -35.6664  -3.8612   0.6941   5.5357   8.3113   9.3056  12.4798
    13.5112  14.6376  15.9496

          k = 0.2792-0.7444-0.0736 (  3248 PWs)   bands (ev):

   -35.7171 -35.6420  -2.2090   2.2710   6.7971   7.9447   9.6523  10.7304
    12.2305  14.1345  14.4482

          k = 0.7910-0.7444-0.1546 (  3252 PWs)   bands (ev):

   -35.7370 -35.6504  -2.7937   1.7128   6.4442   8.0799   8.9263  11.5370
    12.4646  14.8992  15.6451

          k = 0.2792-0.6514-0.0589 (  3240 PWs)   bands (ev):

   -35.6778 -35.6301  -0.7340   3.6680   5.8833   7.9898   9.7365  10.8245
    11.5111  13.5646  14.9099

          k = 0.7910-0.6514-0.1399 (  3249 PWs)   bands (ev):

   -35.6952 -35.6402  -1.3120   3.1160   5.4207   7.5718   9.1689  10.7486
    12.5532  13.3030  16.1188

          k = 0.2792-0.5583-0.0442 (  3238 PWs)   bands (ev):

   -35.6469 -35.6305   1.1362   3.3684   5.4350   7.4584   9.6940  11.4835
    12.1198  12.8229  14.6687

          k = 0.7910-0.5583-0.1251 (  3251 PWs)   bands (ev):

   -35.6617 -35.6427   0.5693   2.8249   4.8955   6.9329   9.1833  11.1575
    11.6980  14.1588  15.3485

          k = 0.2792-0.4653-0.0294 (  3228 PWs)   bands (ev):

   -35.6469 -35.6305   1.1375   3.3657   5.4471   7.4565   9.4306  11.8756
    12.4424  13.0193  14.0840

          k = 0.7910-0.4653-0.1104 (  3243 PWs)   bands (ev):

   -35.6617 -35.6427   0.5707   2.8220   4.8996   6.9429   8.9819  11.3679
    12.1670  14.2090  14.3425

          k = 0.2792-0.3722-0.0147 (  3247 PWs)   bands (ev):

   -35.6778 -35.6301  -0.7330   3.6764   5.8736   7.7667  10.0356  10.9931
    11.7825  13.4325  14.2523

          k = 0.7910-0.3722-0.0957 (  3241 PWs)   bands (ev):

   -35.6952 -35.6402  -1.3109   3.1197   5.4123   7.3792   9.4793  10.9925
    12.4123  13.3716  15.1496

          k = 0.3722-0.3722 0.0000 (  3223 PWs)   bands (ev):

   -35.6443 -35.6140   0.7225   5.0663   6.3713   8.8991   9.0037  10.4765
    12.3906  13.0517  14.0464

          k = 0.8840-0.3722-0.0810 (  3253 PWs)   bands (ev):

   -35.7255 -35.6593  -2.1560   2.3092   4.6658   6.6853   8.6968  10.3425
    12.4026  14.9495  15.9112

          k = 0.8840-0.2792-0.0662 (  3258 PWs)   bands (ev):

   -35.7713 -35.6671  -3.6466   0.8961   5.6111   7.5749   8.7889  12.0048
    12.8808  15.0166  16.0991

          k = 0.8840-0.1861-0.0515 (  3254 PWs)   bands (ev):

   -35.8150 -35.6814  -4.7200  -0.1295   4.7656   8.0332  10.6556  12.4783
    14.6345  14.7347  16.7984

          k = 0.8840-0.0931-0.0368 (  3261 PWs)   bands (ev):

   -35.8465 -35.6942  -5.3675  -0.7499   4.2400   7.5994  11.9923  12.5844
    15.8948  16.0949  16.6973

          k = 0.8840-0.0000-0.0221 (  3256 PWs)   bands (ev):

   -35.8579 -35.6993  -5.5840  -0.9572   4.0669   7.4245  11.9414  12.8102
    15.9189  16.6295  18.7600

          k = 0.8840 0.0931-0.0074 (  3259 PWs)   bands (ev):

   -35.8465 -35.6942  -5.3677  -0.7491   4.2567   7.5160  12.0959  12.7302
    15.9348  16.0318  16.4009

          k = 0.8840-0.8375-0.1546 (  3254 PWs)   bands (ev):

   -35.8150 -35.6814  -4.7204  -0.1282   4.8054   7.8580  10.6585  12.8825
    14.7250  14.9444  16.0321

          k = 0.8840-0.7444-0.1399 (  3260 PWs)   bands (ev):

   -35.7713 -35.6671  -3.6473   0.8972   5.6852   7.5782   8.4832  12.0696
    13.6229  14.9406  15.6346

          k = 0.3722-0.6514-0.0442 (  3241 PWs)   bands (ev):

   -35.6443 -35.6140   0.7218   5.0449   6.3853   8.9238   9.2974  10.2394
    11.9501  13.1112  14.1611

          k = 0.8840-0.6514-0.1251 (  3256 PWs)   bands (ev):

   -35.7255 -35.6593  -2.1569   2.3101   4.6720   6.7768   8.5062  10.2597
    12.4971  15.3805  16.0055

          k = 0.3722-0.5583-0.0294 (  3227 PWs)   bands (ev):

   -35.6196 -35.6092   2.5541   4.6734   6.7664   8.7207   9.7982  10.9568
    11.8877  12.1905  13.0042

          k = 0.8840-0.5583-0.1104 (  3257 PWs)   bands (ev):

   -35.6879 -35.6649  -0.2621   2.0179   4.0998   6.1555   8.3517  10.5958
    11.1126  14.4770  16.8765

          k = 0.3722-0.4653-0.0147 (  3220 PWs)   bands (ev):

   -35.6196 -35.6092   2.5545   4.6706   6.8007   8.6939   9.8773  10.4321
    11.8941  12.7032  13.1548

          k = 0.8840-0.4653-0.0957 (  3255 PWs)   bands (ev):

   -35.6879 -35.6649  -0.2608   2.0156   4.0963   6.1731   8.2559  10.6340
    11.4200  14.0114  16.6137

          k = 0.4653-0.4653 0.0000 (  3202 PWs)   bands (ev):

   -35.6017 -35.5981   4.2736   5.5948   8.0900   8.5149   9.3981   9.7504
    10.6705  12.6095  12.7799

          k = 0.9771-0.4653-0.0810 (  3250 PWs)   bands (ev):

   -35.7032 -35.6782  -0.6798   1.6079   3.6928   5.7751   7.8920  10.2611
    10.9699  13.8816  16.9972

          k = 0.9771-0.3722-0.0662 (  3254 PWs)   bands (ev):

   -35.7430 -35.6710  -2.5809   1.9024   4.2774   6.3402   8.2476  10.0043
    12.0923  14.8762  16.7394

          k = 0.9771-0.2792-0.0515 (  3260 PWs)   bands (ev):

   -35.7909 -35.6776  -4.0755   0.4854   5.2691   7.2369   8.3639  11.7722
    12.9276  15.4530  18.0544

          k = 0.9771-0.1861-0.0368 (  3264 PWs)   bands (ev):

   -35.8365 -35.6912  -5.1515  -0.5429   4.4170   7.6929  10.5536  12.6703
    14.7270  16.2838  17.7972

          k = 0.9771-0.0931-0.0221 (  3254 PWs)   bands (ev):

   -35.8691 -35.7035  -5.8006  -1.1652   3.8857   7.3185  12.1318  14.0126
    16.1602  17.4308  17.9248

          k = 0.9771 0.0000-0.0074 (  3262 PWs)   bands (ev):

   -35.8809 -35.7084  -6.0175  -1.3734   3.7075   7.1815  12.0661  15.5948
    16.1985  18.3963  18.9749

          k = 0.9771-0.9305-0.1546 (  3250 PWs)   bands (ev):

   -35.8691 -35.7035  -5.8006  -1.1649   3.8906   7.2919  12.2194  14.0068
    16.0608  17.4286  17.9192

          k = 0.9771-0.8375-0.1399 (  3263 PWs)   bands (ev):

   -35.8365 -35.6912  -5.1517  -0.5423   4.4287   7.6368  10.5591  12.8434
    14.7752  16.0156  17.7921

          k = 0.9771-0.7444-0.1251 (  3253 PWs)   bands (ev):

   -35.7909 -35.6776  -4.0758   0.4861   5.2911   7.2382   8.2654  11.7983
    13.2121  15.1896  18.0333

[...]

   -35.7812 -35.6197  -5.6015  -1.0039   3.9441   8.3184  10.5036  13.6803
    16.5288  17.2800  19.0101

          k = 0.6072-0.0934-0.0809 (  3271 PWs)   bands (ev):

   -35.6324 -35.5847  -1.4559   2.8807   3.2209   6.7740   7.8423  10.4103
    11.6201  14.5093  16.6592

          k = 0.6072 0.0000-0.0662 (  3275 PWs)   bands (ev):

   -35.6412 -35.5915  -1.6691   2.6796   3.0171   6.5810   7.6550  10.1860
    11.3932  14.5801  16.7337

          k = 0.0934 0.0934 0.0294 (  3261 PWs)   bands (ev):

   -35.7812 -35.6197  -5.6016  -1.0033   3.9524   8.2185  10.6575  13.6782
    16.5248  17.2692  18.8095

          k = 0.6072 0.0934-0.0515 (  3271 PWs)   bands (ev):

   -35.6324 -35.5847  -1.4567   2.8829   3.2236   6.7809   7.8596  10.3082
    11.5235  14.9825  16.7012

          k = 0.0934 0.1868 0.0441 (  3272 PWs)   bands (ev):

   -35.7482 -35.6064  -4.9484  -0.3750   4.4886   8.4888  10.6242  11.5469
    14.7417  16.2585  18.4395

          k = 0.6072 0.1868-0.0368 (  3262 PWs)   bands (ev):

   -35.6086 -35.5667  -0.8208   3.4872   3.8302   7.3789   8.4536  10.7163
    11.9935  15.0533  15.8114

          k = 0.0934 0.2803 0.0589 (  3263 PWs)   bands (ev):

   -35.7021 -35.5916  -3.8656   0.6621   5.3597   7.4878   9.0694  11.6409
    12.3248  16.4200  17.0066

          k = 0.6072 0.2803-0.0221 (  3248 PWs)   bands (ev):

   -35.5764 -35.5439   0.2309   4.4830   4.7976   8.3609   9.3876  11.1802
    12.1404  12.8139  15.5110

          k = 0.0934 0.3737 0.0736 (  3270 PWs)   bands (ev):

   -35.6539 -35.5837  -2.3618   2.0890   4.5307   6.4992   8.5641  10.2332
    12.2372  14.8238  16.7274

          k = 0.6072 0.3737-0.0074 (  3261 PWs)   bands (ev):

   -35.5451 -35.5245   1.6821   5.7840   5.9737   9.2269   9.6571  10.3770
    12.1502  13.2571  13.4526

          k = 0.0934-0.5605-0.0736 (  3267 PWs)   bands (ev):

   -35.6142 -35.5899  -0.4499   1.8496   3.8985   5.9878   8.1143  10.4673
    11.1223  14.1593  17.0672

          k = 0.6072-0.5605-0.1545 (  3273 PWs)   bands (ev):

   -35.5232 -35.5161   3.4886   5.4313   7.6058   8.8544   9.4513  10.7759
    11.4932  12.1524  13.4047

          k = 0.0934-0.4671-0.0589 (  3273 PWs)   bands (ev):

   -35.6142 -35.5899  -0.4489   1.8479   3.8946   6.0030   8.0587  10.4728
    11.3435  13.8403  16.9014

          k = 0.6072-0.4671-0.1398 (  3262 PWs)   bands (ev):

   -35.5232 -35.5161   3.4889   5.4265   7.6433   8.9219   9.4510  10.5577
    11.0274  12.6485  13.2481

          k = 0.0934-0.3737-0.0441 (  3270 PWs)   bands (ev):

   -35.6539 -35.5837  -2.3612   2.0874   4.5259   6.4536   8.6865  10.2944
    12.1256  14.6001  16.6884

          k = 0.6072-0.3737-0.1251 (  3265 PWs)   bands (ev):

   -35.5451 -35.5245   1.6826   5.7813   5.9962   9.2910   9.4795  10.1596
    12.6122  13.0047  13.6621

          k = 0.0934-0.2803-0.0294 (  3271 PWs)   bands (ev):

   -35.7021 -35.5916  -3.8651   0.6609   5.3226   7.4875   9.3965  11.2531
    12.2089  16.7513  16.9985

          k = 0.6072-0.2803-0.1104 (  3259 PWs)   bands (ev):

   -35.5764 -35.5439   0.2321   4.4868   4.7994   8.2559   9.2714  11.7087
    12.1749  13.1571  14.6323

          k = 0.0934-0.1868-0.0147 (  3273 PWs)   bands (ev):

   -35.7482 -35.6064  -4.9481  -0.3760   4.4688   8.6819  10.5173  11.3507
    14.7292  16.2651  18.7459

          k = 0.6072-0.1868-0.0956 (  3259 PWs)   bands (ev):

   -35.6086 -35.5667  -0.8196   3.4858   3.8275   7.3425   8.4013  11.0092
    12.1802  14.6679  15.1861

          k = 0.1868-0.1868-0.0000 (  3281 PWs)   bands (ev):

   -35.7169 -35.5925  -4.2972   0.2496   4.9899   9.1283  10.6145  11.0673
    13.7376  14.4264  16.6187

          k = 0.7007-0.1868-0.0809 (  3263 PWs)   bands (ev):

   -35.6505 -35.5704  -2.5222   1.9475   6.4012   6.6275   9.4706  11.1168
    12.8961  14.1718  15.7313

          k = 0.7007-0.0934-0.0662 (  3273 PWs)   bands (ev):

   -35.6776 -35.5863  -3.1663   1.3305   5.8682   6.0974   8.8116  10.7269
    12.7974  15.2799  17.1281

          k = 0.7007 0.0000-0.0515 (  3273 PWs)   bands (ev):

   -35.6875 -35.5924  -3.3819   1.1248   5.6995   5.9173   8.5134  10.6150
    12.8014  15.0858  17.4672

          k = 0.7007 0.0934-0.0368 (  3274 PWs)   bands (ev):

   -35.6776 -35.5863  -3.1669   1.3318   5.9147   6.1079   8.5860  10.7903
    13.1426  15.1402  17.1495

          k = 0.1868 0.1868 0.0589 (  3260 PWs)   bands (ev):

   -35.7169 -35.5925  -4.2978   0.2511   5.0367   8.7633  10.5094  11.6836
    13.8222  14.4350  16.7054

          k = 0.7007 0.1868-0.0221 (  3267 PWs)   bands (ev):

   -35.6505 -35.5704  -2.5232   1.9478   6.4979   6.6632   8.9963  11.2136
    13.4118  14.1848  15.8943

          k = 0.1868 0.2803 0.0736 (  3259 PWs)   bands (ev):

   -35.6735 -35.5766  -3.2193   1.2838   5.9285   7.9601   9.3520  12.2182
    12.4901  13.9479  16.2284

          k = 0.7007 0.2803-0.0074 (  3245 PWs)   bands (ev):

   -35.6134 -35.5510  -1.4568   2.9634   7.2258   7.5850   9.5700  10.7905
    11.8121  14.6188  14.8807

          k = 0.1868-0.6539-0.0736 (  3259 PWs)   bands (ev):

   -35.6284 -35.5668  -1.7219   2.7037   5.1146   7.0902   9.0585  10.6610
    12.7763  14.4609  15.4935

          k = 0.7007-0.6539-0.1545 (  3255 PWs)   bands (ev):

   -35.5760 -35.5363   0.0209   4.3599   6.4355   8.8022   9.7069  10.1971
    11.6669  13.9525  14.1536

          k = 0.1868-0.5605-0.0589 (  3264 PWs)   bands (ev):

   -35.5920 -35.5706   0.1804   2.4643   4.5070   6.5733   8.7476  10.9699
    11.5217  14.6958  16.0349

          k = 0.7007-0.5605-0.1398 (  3263 PWs)   bands (ev):

   -35.5474 -35.5338   1.8892   4.0974   6.1276   8.1455  10.4169  11.2036
    12.1282  12.6654  13.4869

          k = 0.1868-0.4671-0.0441 (  3273 PWs)   bands (ev):

   -35.5920 -35.5706   0.1819   2.4615   4.5053   6.5913   8.6141  11.0459
    11.9692  14.0851  15.8412

          k = 0.7007-0.4671-0.1251 (  3254 PWs)   bands (ev):

   -35.5474 -35.5338   1.8901   4.0947   6.1491   8.1308  10.0608  11.3436
    12.4659  13.0662  13.5055

          k = 0.1868-0.3737-0.0294 (  3262 PWs)   bands (ev):

   -35.6284 -35.5668  -1.7208   2.7039   5.1065   6.9778   9.2822  10.8823
    12.5129  14.5877  14.9347

          k = 0.7007-0.3737-0.1104 (  3258 PWs)   bands (ev):

   -35.5760 -35.5363   0.0218   4.3732   6.4233   8.4593   9.8709  10.4649
    12.1412  13.3364  14.3317

          k = 0.1868-0.2803-0.0147 (  3258 PWs)   bands (ev):

   -35.6735 -35.5765  -3.2185   1.2830   5.8415   7.9586  10.0166  11.5051
    12.3473  13.8150  16.2058

          k = 0.7007-0.2803-0.0956 (  3263 PWs)   bands (ev):

   -35.6134 -35.5510  -1.4558   2.9682   7.1608   7.4050  10.2381  10.8777
    11.6964  13.9180  14.3915

          k = 0.2803-0.2803-0.0000 (  3241 PWs)   bands (ev):

   -35.6341 -35.5585  -2.1472   2.3105   6.6934   8.0603  10.5962  10.8864
    11.9773  13.2577  14.2511

          k = 0.7941-0.2803-0.0809 (  3258 PWs)   bands (ev):

   -35.6545 -35.5674  -2.7363   1.7466   6.3488   8.1887   9.5542  11.6417
    12.4336  13.8187  15.3233

          k = 0.7941-0.1868-0.0662 (  3266 PWs)   bands (ev):

   -35.6961 -35.5843  -3.8121   0.7185   5.4983   8.6582   9.4913  12.3535
    13.5262  13.9536  16.4651

          k = 0.7941-0.0934-0.0515 (  3269 PWs)   bands (ev):

   -35.7261 -35.5987  -4.4614   0.0968   4.9729   8.1398   9.2183  12.8250
    13.3918  16.1954  16.7463

          k = 0.7941-0.0000-0.0368 (  3257 PWs)   bands (ev):

   -35.7371 -35.6043  -4.6785  -0.1107   4.8044   7.9196   9.0630  12.9303
    13.3541  15.8253  18.9457

          k = 0.7941 0.0934-0.0221 (  3263 PWs)   bands (ev):

   -35.7261 -35.5987  -4.4617   0.0980   5.0056   8.0066   9.2015  13.1384
    13.6265  15.7052  16.6506

          k = 0.7941 0.1868-0.0074 (  3266 PWs)   bands (ev):

   -35.6961 -35.5843  -3.8128   0.7199   5.5759   8.3820   9.4426  12.6120
    13.6241  14.7187  16.0183

          k = 0.2803-0.7474-0.0736 (  3261 PWs)   bands (ev):

   -35.6341 -35.5585  -2.1482   2.3083   6.8542   8.0713   9.7312  10.8830
    12.3270  14.2161  14.5690

          k = 0.7941-0.7474-0.1545 (  3268 PWs)   bands (ev):

   -35.6545 -35.5674  -2.7373   1.7463   6.4923   8.2078   9.0031  11.6937
    12.5685  14.9902  15.7541

          k = 0.2803-0.6539-0.0589 (  3253 PWs)   bands (ev):

   -35.5938 -35.5458  -0.6623   3.7151   6.0017   8.0603   9.8159  10.9473
    11.6341  13.6785  15.0244

          k = 0.7941-0.6539-0.1398 (  3258 PWs)   bands (ev):

   -35.6117 -35.5563  -1.2446   3.1592   5.5368   7.6360   9.2429  10.8351
    12.7079  13.4235  16.2299

          k = 0.2803-0.5605-0.0441 (  3254 PWs)   bands (ev):

   -35.5623 -35.5457   1.2211   3.4674   5.4995   7.5373   9.7655  11.5789
    12.2148  12.9863  14.8357

          k = 0.7941-0.5605-0.1251 (  3256 PWs)   bands (ev):

   -35.5775 -35.5584   0.6501   2.9201   4.9564   7.0083   9.2488  11.2446
    11.7857  14.3220  15.4644

          k = 0.2803-0.4671-0.0294 (  3257 PWs)   bands (ev):

   -35.5623 -35.5457   1.2224   3.4646   5.5106   7.5375   9.5065  11.9607
    12.5666  13.1584  14.2035

          k = 0.7941-0.4671-0.1104 (  3262 PWs)   bands (ev):

   -35.5775 -35.5584   0.6516   2.9171   4.9596   7.0200   9.0518  11.4474
    12.2535  14.3333  14.4908

          k = 0.2803-0.3737-0.0147 (  3249 PWs)   bands (ev):

   -35.5938 -35.5458  -0.6613   3.7227   5.9916   7.8414  10.1212  11.1434
    11.8602  13.5289  14.3687

          k = 0.7941-0.3737-0.0956 (  3254 PWs)   bands (ev):

   -35.6117 -35.5563  -1.2434   3.1623   5.5281   7.4477   9.5578  11.0704
    12.5455  13.4970  15.2536

          k = 0.3737-0.3737-0.0000 (  3263 PWs)   bands (ev):

   -35.5594 -35.5289   0.8047   5.1224   6.4893   8.9862   9.1547  10.5639
    12.5092  13.1431  14.1438

          k = 0.8875-0.3737-0.0809 (  3267 PWs)   bands (ev):

   -35.6428 -35.5762  -2.0949   2.3459   4.7770   6.7468   8.7679  10.4175
    12.4823  15.0330  16.0729

          k = 0.8875-0.2803-0.0662 (  3261 PWs)   bands (ev):

   -35.6897 -35.5849  -3.5966   0.9231   5.6564   7.6989   8.8613  12.1027
    12.9349  15.1977  16.2063

          k = 0.8875-0.1868-0.0515 (  3270 PWs)   bands (ev):

   -35.7346 -35.6002  -4.6781  -0.1101   4.8016   8.0983  10.7977  12.5241
    14.7845  14.8788  16.8618

          k = 0.8875-0.0934-0.0368 (  3266 PWs)   bands (ev):

   -35.7669 -35.6138  -5.3306  -0.7353   4.2704   7.6639  12.0750  12.6767
    16.0301  16.2545  16.7830

          k = 0.8875-0.0000-0.0221 (  3260 PWs)   bands (ev):

   -35.7786 -35.6191  -5.5487  -0.9442   4.0952   7.4894  12.0177  12.9053
    15.9851  16.7431  19.0047

          k = 0.8875 0.0934-0.0074 (  3258 PWs)   bands (ev):

   -35.7669 -35.6138  -5.3308  -0.7344   4.2862   7.5820  12.2077  12.7898
    16.0079  16.2286  16.5149

          k = 0.8875-0.8408-0.1545 (  3268 PWs)   bands (ev):

   -35.7346 -35.6002  -4.6785  -0.1088   4.8395   7.9256  10.8026  12.9341
    14.8724  15.0759  16.0950

          k = 0.8875-0.7474-0.1398 (  3262 PWs)   bands (ev):

   -35.6897 -35.5849  -3.5972   0.9244   5.7276   7.7013   8.5601  12.1668
    13.6910  15.0795  15.7503

          k = 0.3737-0.6539-0.0441 (  3255 PWs)   bands (ev):

   -35.5594 -35.5289   0.8040   5.1021   6.5036   9.0675   9.3830  10.3275
    12.0475  13.2256  14.2894

          k = 0.8875-0.6539-0.1251 (  3268 PWs)   bands (ev):

   -35.6428 -35.5762  -2.0958   2.3472   4.7835   6.8358   8.5744  10.3408
    12.5885  15.4624  16.1484

          k = 0.3737-0.5605-0.0294 (  3268 PWs)   bands (ev):

   -35.5341 -35.5236   2.6490   4.7814   6.8387   8.8055   9.9476  11.0481
    12.0406  12.3114  13.1140

          k = 0.8875-0.5605-0.1104 (  3263 PWs)   bands (ev):

   -35.6045 -35.5814  -0.1873   2.1075   4.1546   6.2258   8.4109  10.6723
    11.1938  14.5651  16.9793

          k = 0.3737-0.4671-0.0147 (  3260 PWs)   bands (ev):

   -35.5341 -35.5236   2.6495   4.7785   6.8715   8.7820  10.0305  10.5271
    12.0481  12.8209  13.2584

          k = 0.8875-0.4671-0.0956 (  3272 PWs)   bands (ev):

   -35.6045 -35.5814  -0.1859   2.1051   4.1507   6.2444   8.3178  10.7058
    11.4998  14.0981  16.7162

          k = 0.4671-0.4671-0.0000 (  3266 PWs)   bands (ev):

   -35.5156 -35.5121   4.3800   5.7083   8.1994   8.6281   9.5433   9.8338
    10.7909  12.7343  12.8918

          k = 0.9809-0.4671-0.0809 (  3276 PWs)   bands (ev):

   -35.6204 -35.5952  -0.6079   1.6946   3.7443   5.8432   7.9495  10.3300
    11.0475  13.9635  17.0691

          k = 0.9809-0.3737-0.0662 (  3273 PWs)   bands (ev):

   -35.6609 -35.5884  -2.5229   1.9362   4.3861   6.3978   8.3142  10.0795
    12.1720  14.9462  16.8216

          k = 0.9809-0.2803-0.0515 (  3263 PWs)   bands (ev):

   -35.7099 -35.5960  -4.0287   0.5094   5.3102   7.3586   8.4363  11.8689
    12.9749  15.5329  18.1721

          k = 0.9809-0.1868-0.0368 (  3256 PWs)   bands (ev):

   -35.7566 -35.6105  -5.1130  -0.5267   4.4490   7.7577  10.6940  12.7013
    14.8351  16.3536  18.0178

          k = 0.9809-0.0934-0.0221 (  3259 PWs)   bands (ev):

   -35.7901 -35.6236  -5.7670  -1.1539   3.9125   7.3831  12.1434  14.1726
    16.2140  17.6566  18.0505

          k = 0.9809 0.0000-0.0074 (  3258 PWs)   bands (ev):

   -35.8023 -35.6288  -5.9856  -1.3637   3.7325   7.2461  12.0712  15.7242
    16.2853  18.6390  19.1942

          k = 0.9809-0.9342-0.1545 (  3262 PWs)   bands (ev):

   -35.7901 -35.6236  -5.7670  -1.1536   3.9171   7.3570  12.2295  14.1663
    16.1158  17.6548  18.0455

          k = 0.9809-0.8408-0.1398 (  3254 PWs)   bands (ev):

   -35.7566 -35.6105  -5.1131  -0.5261   4.4601   7.7025  10.7009  12.8706
    14.8814  16.0881  18.0132

          k = 0.9809-0.7474-0.1251 (  3261 PWs)   bands (ev):

   -35.7099 -35.5960  -4.0290   0.5101   5.3312   7.3597   8.3393  11.8948
    13.2611  15.2625  18.1483

          k = 0.9809-0.6539-0.1104 (  3270 PWs)   bands (ev):

   -35.6609 -35.5884  -2.5233   1.9372   4.3885   6.4233   8.2489  10.0648
    12.2089  15.1136  16.7856

          k = 0.4671-0.5605-0.0147 (  3273 PWs)   bands (ev):

   -35.5156 -35.5121   4.3793   5.7158   8.1780   8.5472   9.6035   9.7576
    11.4957  11.8744  13.6170

          k = 0.9809-0.5605-0.0956 (  3272 PWs)   bands (ev):

   -35.6204 -35.5952  -0.6085   1.6955   3.7466   5.8349   7.9765  10.3305
    10.9458  14.1175  17.1472

     the Fermi energy is    10.3946 ev

!    total energy              =     -45.49819206 Ry
     estimated scf accuracy    <          6.3E-12 Ry
     smearing contrib. (-TS)   =      -0.00075744 Ry
     internal energy E=F+TS    =     -45.49743462 Ry

     The total energy is F=E-TS. E is the sum of the following terms:
     one-electron contribution =      -3.43783992 Ry
     hartree contribution      =       6.15705996 Ry
     xc contribution           =     -13.63878617 Ry
     ewald contribution        =     -34.57786848 Ry

     convergence has been achieved in  11 iterations

     Forces acting on atoms (cartesian axes, Ry/au):

     atom    1 type  1   force =     0.00000000    0.00000000    0.00004095
     atom    2 type  1   force =    -0.00000000   -0.00000000   -0.00004095
     atom    3 type  2   force =    -0.00000000   -0.00000000   -0.00034271
     atom    4 type  2   force =     0.00000000    0.00000000    0.00034271
     The non-local contrib.  to forces
     atom    1 type  1   force =    -0.00000000    0.00000000    0.02994395
     atom    2 type  1   force =    -0.00000000   -0.00000000   -0.02994395
     atom    3 type  2   force =     0.00000000    0.00000000   -0.11397058
     atom    4 type  2   force =    -0.00000000   -0.00000000    0.11397058
     The ionic contribution  to forces
     atom    1 type  1   force =    -0.00000000    0.00000000   -0.61979114
     atom    2 type  1   force =    -0.00000000   -0.00000000    0.61979114
     atom    3 type  2   force =     0.00000000    0.00000000    0.85457859
     atom    4 type  2   force =    -0.00000000   -0.00000000   -0.85457859
     The local contribution  to forces
     atom    1 type  1   force =     0.00000000   -0.00000000    0.58989096
     atom    2 type  1   force =    -0.00000000    0.00000000   -0.58989096
     atom    3 type  2   force =    -0.00000000   -0.00000000   -0.74517888
     atom    4 type  2   force =     0.00000000    0.00000000    0.74517888
     The core correction contribution to forces
     atom    1 type  1   force =     0.00000000    0.00000000    0.00000000
     atom    2 type  1   force =     0.00000000    0.00000000    0.00000000
     atom    3 type  2   force =    -0.00000000   -0.00000000    0.00422507
     atom    4 type  2   force =     0.00000000    0.00000000   -0.00422507
     The Hubbard contrib.    to forces
     atom    1 type  1   force =     0.00000000    0.00000000    0.00000000
     atom    2 type  1   force =     0.00000000    0.00000000    0.00000000
     atom    3 type  2   force =     0.00000000    0.00000000    0.00000000
     atom    4 type  2   force =     0.00000000    0.00000000    0.00000000
     The SCF correction term to forces
     atom    1 type  1   force =    -0.00000000    0.00000000   -0.00000283
     atom    2 type  1   force =     0.00000000    0.00000000    0.00000283
     atom    3 type  2   force =     0.00000000    0.00000000    0.00000310
     atom    4 type  2   force =    -0.00000000   -0.00000000   -0.00000310

     Total force =     0.000488     Total SCF correction =     0.000006


     Computing stress (Cartesian axis) and pressure

          total   stress  (Ry/bohr**3)                   (kbar)     P=      500.27
   0.00339868   0.00000000   0.00000000          499.96        0.00        0.00
  -0.00000000   0.00339868   0.00000000           -0.00      499.96        0.00
   0.00000000   0.00000000   0.00340493            0.00        0.00      500.88


     Writing all to output data dir ./output/LiSi.save/

     init_run     :      4.23s CPU      5.97s WALL (       2 calls)
     electrons    :    223.98s CPU    243.91s WALL (       8 calls)
     update_pot   :      1.70s CPU      1.74s WALL (       6 calls)
     forces       :      1.87s CPU      1.95s WALL (       8 calls)
     stress       :      7.95s CPU      8.30s WALL (       8 calls)

     Called by init_run:
     wfcinit      :      3.19s CPU      4.63s WALL (       2 calls)
     potinit      :      0.33s CPU      0.47s WALL (       2 calls)
     hinit0       :      0.68s CPU      0.77s WALL (       2 calls)

     Called by electrons:
     c_bands      :    190.29s CPU    206.93s WALL (      63 calls)
     sum_band     :     31.47s CPU     33.97s WALL (      63 calls)
     v_of_rho     :      2.31s CPU      2.94s WALL (      68 calls)
     mix_rho      :      0.15s CPU      0.23s WALL (      63 calls)

     Called by c_bands:
     init_us_2    :      1.44s CPU      1.59s WALL (   13968 calls)
     init_us_2:cp :      1.42s CPU      1.58s WALL (   13968 calls)
     cegterg      :    187.20s CPU    202.12s WALL (    6111 calls)

     Called by *egterg:
     cdiaghg      :      3.38s CPU      3.68s WALL (   25281 calls)
     h_psi        :    183.00s CPU    198.76s WALL (   26348 calls)
     g_psi        :      0.18s CPU      0.19s WALL (   20043 calls)

     Called by h_psi:
     h_psi:calbec :      2.45s CPU      2.67s WALL (   26348 calls)
     vloc_psi     :    178.68s CPU    194.05s WALL (   26348 calls)
     add_vuspsi   :      1.70s CPU      1.82s WALL (   26348 calls)

     General routines
     calbec       :      2.91s CPU      3.16s WALL (   30228 calls)
     fft          :      1.49s CPU      2.32s WALL (     881 calls)
     ffts         :      0.07s CPU      0.08s WALL (      63 calls)
     fftw         :    183.69s CPU    199.36s WALL (  457381 calls)

     Parallel routines

     PWSCF        :   4m 0.02s CPU   4m22.66s WALL


   This run was terminated on:  22:28: 9  11Feb2025            

=------------------------------------------------------------------------------=
   JOB DONE.
=------------------------------------------------------------------------------=
