
     Program PWSCF v.7.2 starts on 11Feb2025 at 22:17:43 

     This program is part of the open-source Quantum ESPRESSO suite
     for quantum simulation of materials; please cite
         "P. Giannozzi et al., J. Phys.:Condens. Matter 21 395502 (2009);
         "P. Giannozzi et al., J. Phys.:Condens. Matter 29 465901 (2017);
         "P. Giannozzi et al., J. Chem. Phys. 152 154105 (2020);
          URL http://www.quantum-espresso.org", 
     in publications or presentations arising from this work. More details at
     http://www.quantum-espresso.org/quote

     Parallel version (MPI & OpenMP), running on       8 processor cores
     Number of MPI processes:                 8
     Threads/MPI process:                     1

     MPI processes distributed on     1 nodes
     482156 MiB available memory on the printing compute node when the environment starts

     Waiting for input...
     Reading input from standard input

     Current dimensions of program PWSCF are:
     Max number of different atomic species (ntypx) = 10
     Max number of k-points (npk) =  40000
     Max angular momentum in pseudopotentials (lmaxx) =  4

     R & G space division:  proc/nbgrp/npool/nimage =       8
     Subspace diagonalization in iterative solution of the eigenvalue problem:
     a serial algorithm will be used


     Parallelization info
     --------------------
     sticks:   dense  smooth     PW     G-vecs:    dense   smooth      PW
     Min         130     130     39                 2801     2801     455
     Max         131     131     40                 2803     2803     457
     Sum        1045    1045    313                22419    22419    3647

     Using Slab Decomposition



     bravais-lattice index     =            2
     lattice parameter (alat)  =       9.7736  a.u.
     unit-cell volume          =     233.4006 (a.u.)^3
     number of atoms/cell      =            4
     number of atomic types    =            2
     number of electrons       =        14.00
     number of Kohn-Sham states=           11
     kinetic-energy cutoff     =      80.0000  Ry
     charge density cutoff     =     320.0000  Ry
     scf convergence threshold =      1.0E-08
     mixing beta               =       0.7000
     number of iterations used =            8  plain     mixing
     energy convergence thresh.=      1.0E-04
     force convergence thresh. =      1.0E-03
     press convergence thresh. =      1.0E+00
     Exchange-correlation= PBE
                           (   1   4   3   4   0   0   0)
     nstep                     =           50


     celldm(1)=   9.773587  celldm(2)=   0.000000  celldm(3)=   0.000000
     celldm(4)=   0.000000  celldm(5)=   0.000000  celldm(6)=   0.000000

     crystal axes: (cart. coord. in units of alat)
               a(1) = (  -0.500000   0.000000   0.500000 )  
               a(2) = (   0.000000   0.500000   0.500000 )  
               a(3) = (  -0.500000   0.500000   0.000000 )  

     reciprocal axes: (cart. coord. in units 2 pi/alat)
               b(1) = ( -1.000000 -1.000000  1.000000 )  
               b(2) = (  1.000000  1.000000  1.000000 )  
               b(3) = ( -1.000000  1.000000 -1.000000 )  


     PseudoPot. # 1 for Li read from file:
     ../pseudo/Li_ONCV_PBE_sr.upf
     MD5 check sum: 50ff420e78310ffa21704f3361e624a4
     Pseudo is Norm-conserving, Zval =  3.0
     Generated using ONCVPSP code by D. R. Hamann
     Using radial grid of 1944 points,  4 beta functions with: 
                l(1) =   0
                l(2) =   0
                l(3) =   1
                l(4) =   1

     PseudoPot. # 2 for Si read from file:
     ../pseudo/Si_ONCV_PBE_sr.upf
     MD5 check sum: e543d271109d17c80368dfa7c482276d
     Pseudo is Norm-conserving + core correction, Zval =  4.0
     Generated using ONCVPSP code by D. R. Hamann
     Using radial grid of 1510 points,  6 beta functions with: 
                l(1) =   0
                l(2) =   0
                l(3) =   1
                l(4) =   1
                l(5) =   2
                l(6) =   2

     atomic species   valence    mass     pseudopotential
        Li             3.00     6.94100     Li( 1.00)
        Si             4.00    28.08550     Si( 1.00)

     48 Sym. Ops., with inversion, found (24 have fractional translation)



   Cartesian axes

     site n.     atom                  positions (alat units)
         1           Li  tau(   1) = (   0.0000000   0.0000000   0.5000000  )
         2           Li  tau(   2) = (   0.2500000   0.2500000   0.7500000  )
         3           Si  tau(   3) = (   0.0000000   0.0000000   0.0000000  )
         4           Si  tau(   4) = (   0.2500000   0.2500000   0.2500000  )

     number of k points=    10  Marzari-Vanderbilt smearing, width (Ry)=  0.0200
                       cart. coord. in units 2pi/alat
        k(    1) = (   0.0000000   0.0000000   0.0000000), wk =   0.0160000
        k(    2) = (  -0.2000000   0.2000000  -0.2000000), wk =   0.1280000
        k(    3) = (  -0.4000000   0.4000000  -0.4000000), wk =   0.1280000
        k(    4) = (   0.0000000   0.4000000   0.0000000), wk =   0.0960000
        k(    5) = (  -0.2000000   0.6000000  -0.2000000), wk =   0.3840000
        k(    6) = (   0.6000000  -0.2000000   0.6000000), wk =   0.3840000
        k(    7) = (   0.4000000   0.0000000   0.4000000), wk =   0.1920000
        k(    8) = (   0.0000000   0.8000000   0.0000000), wk =   0.0960000
        k(    9) = (   0.8000000   0.0000000   0.8000000), wk =   0.1920000
        k(   10) = (   0.6000000  -0.2000000   1.0000000), wk =   0.3840000

     Dense  grid:    22419 G-vectors     FFT dimensions: (  40,  40,  40)

     Estimated max dynamical RAM per process >      14.49 MB

     Estimated total dynamical RAM >     115.88 MB

     Initial potential from superposition of free atoms

     starting charge      13.9897, renormalised to      14.0000
     Starting wfcs are   12 randomized atomic wfcs

     total cpu time spent up to now is        1.0 secs

     Self-consistent Calculation

     iteration #  1     ecut=    80.00 Ry     beta= 0.70
     Davidson diagonalization with overlap
     ethr =  1.00E-02,  avg # of iterations =  5.7

     Threshold (ethr) on eigenvalues was too large:
     Diagonalizing with lowered threshold

     Davidson diagonalization with overlap
     ethr =  1.29E-04,  avg # of iterations =  4.2

     total cpu time spent up to now is        1.4 secs

     total energy              =     -45.48462523 Ry
     estimated scf accuracy    <       0.01817935 Ry

     iteration #  2     ecut=    80.00 Ry     beta= 0.70
     Davidson diagonalization with overlap
     ethr =  1.30E-04,  avg # of iterations =  1.0

     total cpu time spent up to now is        1.5 secs

     total energy              =     -45.48467608 Ry
     estimated scf accuracy    <       0.00119681 Ry

     iteration #  3     ecut=    80.00 Ry     beta= 0.70
     Davidson diagonalization with overlap
     ethr =  8.55E-06,  avg # of iterations =  4.2

     total cpu time spent up to now is        1.6 secs

     total energy              =     -45.48473036 Ry
     estimated scf accuracy    <       0.00000443 Ry

     iteration #  4     ecut=    80.00 Ry     beta= 0.70
     Davidson diagonalization with overlap
     ethr =  3.16E-08,  avg # of iterations =  3.8

     total cpu time spent up to now is        1.8 secs

     total energy              =     -45.48473318 Ry
     estimated scf accuracy    <       0.00000012 Ry

     iteration #  5     ecut=    80.00 Ry     beta= 0.70
     Davidson diagonalization with overlap
     ethr =  8.85E-10,  avg # of iterations =  2.7

     total cpu time spent up to now is        1.9 secs

     End of self-consistent calculation

          k = 0.0000 0.0000 0.0000 (  2741 PWs)   bands (ev):

   -34.1254 -33.8132  -2.0647  10.4568  10.4568  10.4568  11.5662  11.5662
    11.5662  16.3431  17.5104

          k =-0.2000 0.2000-0.2000 (  2803 PWs)   bands (ev):

   -34.1021 -33.8339  -1.6185   6.8985   9.4744   9.4744  12.6808  12.6808
    12.9729  15.1386  15.1386

          k =-0.4000 0.4000-0.4000 (  2833 PWs)   bands (ev):

   -34.0537 -33.8781  -0.4933   3.7407   8.9658   8.9658  11.5483  11.5483
    12.7679  18.1378  18.1379

          k = 0.0000 0.4000 0.0000 (  2810 PWs)   bands (ev):

   -34.0936 -33.8416  -1.4495   7.9094   7.9094   8.0202  11.5515  12.9005
    14.9978  14.9978  18.6802

          k =-0.2000 0.6000-0.2000 (  2812 PWs)   bands (ev):

   -34.0491 -33.8824  -0.4390   4.6207   7.2483   7.3069  11.6378  13.8000
    14.7026  15.5099  19.7922

          k = 0.6000-0.2000 0.6000 (  2821 PWs)   bands (ev):

   -34.0247 -33.9055   0.2725   3.2766   6.3889   7.8327  11.6557  13.5278
    15.5695  17.5128  17.9437

          k = 0.4000 0.0000 0.4000 (  2818 PWs)   bands (ev):

   -34.0681 -33.8648  -0.8902   5.4699   6.6558   9.3057  12.2626  13.2100
    13.7867  15.6460  16.8011

          k = 0.0000 0.8000 0.0000 (  2818 PWs)   bands (ev):

   -34.0128 -33.9169   0.4712   3.7731   6.3440   6.3440  11.4336  11.5459
    18.6188  18.6189  20.8360

          k = 0.8000 0.0000 0.8000 (  2840 PWs)   bands (ev):

   -33.9791 -33.9497   1.5749   2.3541   5.5100   6.5322  11.4472  13.4837
    17.9644  18.0619  19.3454

          k = 0.6000-0.2000 1.0000 (  2831 PWs)   bands (ev):

   -34.0034 -33.9260   0.7990   3.2370   5.6626   6.4766  13.3119  13.6488
    14.5884  18.0926  18.9312

     the Fermi energy is    12.7753 ev

!    total energy              =     -45.48473322 Ry
     estimated scf accuracy    <          3.2E-09 Ry
     smearing contrib. (-TS)   =      -0.00107194 Ry
     internal energy E=F+TS    =     -45.48366127 Ry

     The total energy is F=E-TS. E is the sum of the following terms:
     one-electron contribution =      -0.42706584 Ry
     hartree contribution      =       5.61374303 Ry
     xc contribution           =     -13.82204475 Ry
     ewald contribution        =     -36.84829372 Ry

     convergence has been achieved in   5 iterations

     Forces acting on atoms (cartesian axes, Ry/au):

     atom    1 type  1   force =     0.00000000   -0.00000000    0.00000000
     atom    2 type  1   force =    -0.00000000    0.00000000   -0.00000000
     atom    3 type  2   force =     0.00000000    0.00000000    0.00000000
     atom    4 type  2   force =     0.00000000    0.00000000    0.00000000
     The non-local contrib.  to forces
     atom    1 type  1   force =     0.00000000    0.00000000    0.00000000
     atom    2 type  1   force =    -0.00000000   -0.00000000    0.00000000
     atom    3 type  2   force =     0.00000000    0.00000000    0.00000000
     atom    4 type  2   force =     0.00000000    0.00000000    0.00000000
     The ionic contribution  to forces
     atom    1 type  1   force =    -0.00000000   -0.00000000    0.00000000
     atom    2 type  1   force =     0.00000000    0.00000000    0.00000000
     atom    3 type  2   force =     0.00000000    0.00000000   -0.00000000
     atom    4 type  2   force =    -0.00000000   -0.00000000    0.00000000
     The local contribution  to forces
     atom    1 type  1   force =    -0.00000000    0.00000000    0.00000000
     atom    2 type  1   force =     0.00000000    0.00000000    0.00000000
     atom    3 type  2   force =    -0.00000000    0.00000000    0.00000000
     atom    4 type  2   force =     0.00000000    0.00000000    0.00000000
     The core correction contribution to forces
     atom    1 type  1   force =     0.00000000    0.00000000    0.00000000
     atom    2 type  1   force =     0.00000000    0.00000000    0.00000000
     atom    3 type  2   force =    -0.00000000    0.00000000    0.00000000
     atom    4 type  2   force =     0.00000000    0.00000000   -0.00000000
     The Hubbard contrib.    to forces
     atom    1 type  1   force =     0.00000000    0.00000000    0.00000000
     atom    2 type  1   force =     0.00000000    0.00000000    0.00000000
     atom    3 type  2   force =     0.00000000    0.00000000    0.00000000
     atom    4 type  2   force =     0.00000000    0.00000000    0.00000000
     The SCF correction term to forces
     atom    1 type  1   force =    -0.00000000    0.00000000    0.00000000
     atom    2 type  1   force =    -0.00000000    0.00000000   -0.00000000
     atom    3 type  2   force =    -0.00000000   -0.00000000    0.00000000
     atom    4 type  2   force =    -0.00000000    0.00000000   -0.00000000

     Total force =     0.000000     Total SCF correction =     0.000000


     Computing stress (Cartesian axis) and pressure

          total   stress  (Ry/bohr**3)                   (kbar)     P=      718.47
   0.00488409   0.00000000   0.00000000          718.47        0.00        0.00
   0.00000000   0.00488409  -0.00000000            0.00      718.47       -0.00
   0.00000000  -0.00000000   0.00488409            0.00       -0.00      718.47


     BFGS Geometry Optimization
     Energy error            =      0.0E+00 Ry
     Gradient error          =      2.1E-32 Ry/Bohr
     Cell gradient error     =      2.2E+02 kbar

     number of scf cycles    =   1
     number of bfgs steps    =   0

     enthalpy           new  =     -44.6914207029 Ry

     new trust radius        =       0.1134469481 bohr
ibrav =      2
 celldm(1) =     10.13646941
Input lattice vectors:
    -0.51856444    -0.00000000     0.51856444
     0.00000000     0.51856444     0.51856444
    -0.51856444     0.51856444    -0.00000000
New lattice vectors in INITIAL alat:
    -0.51856444     0.00000000     0.51856444
     0.00000000     0.51856444     0.51856444
    -0.51856444     0.51856444     0.00000000
New lattice vectors in NEW alat (for information only):
    -0.50000000     0.00000000     0.50000000
     0.00000000     0.50000000     0.50000000
    -0.50000000     0.50000000     0.00000000
Discrepancy in bohr =     0.000000    0.000000    0.000000
     new conv_thr            =       0.0000000100 Ry

     new unit-cell volume =    260.37552 a.u.^3 (    38.58367 Ang^3 )
     density =      3.01490 g/cm^3

CELL_PARAMETERS (alat=  9.77358708)
  -0.518564440   0.000000000   0.518564440
   0.000000000   0.518564440   0.518564440
  -0.518564440   0.518564440   0.000000000

ATOMIC_POSITIONS (crystal)
Li            0.5000000000        0.5000000000       -0.5000000000
Li            0.2500000000        1.2500000000       -0.7500000000
Si            0.0000000000        0.0000000000        0.0000000000
Si           -0.2500000000        0.7500000000       -0.2500000000



     Writing config-only to output data dir ./output/LiSi.save/
     NEW-OLD atomic charge density approx. for the potential
     extrapolated charge   15.44933, renormalised to   14.00000

     total cpu time spent up to now is        2.8 secs

     Self-consistent Calculation

     iteration #  1     ecut=    80.00 Ry     beta= 0.70
     Davidson diagonalization with overlap
     ethr =  1.00E-06,  avg # of iterations =  7.9

     total cpu time spent up to now is        3.1 secs

     total energy              =     -45.57748991 Ry
     estimated scf accuracy    <       0.00299051 Ry

     iteration #  2     ecut=    80.00 Ry     beta= 0.70
     Davidson diagonalization with overlap
     ethr =  2.14E-05,  avg # of iterations =  3.0

     total cpu time spent up to now is        3.2 secs

     total energy              =     -45.59173148 Ry
     estimated scf accuracy    <       0.00372317 Ry

     iteration #  3     ecut=    80.00 Ry     beta= 0.70
     Davidson diagonalization with overlap
     ethr =  2.14E-05,  avg # of iterations =  1.0

     total cpu time spent up to now is        3.3 secs

     total energy              =     -45.59166633 Ry
     estimated scf accuracy    <       0.00114525 Ry

     iteration #  4     ecut=    80.00 Ry     beta= 0.70
     Davidson diagonalization with overlap
     ethr =  8.18E-06,  avg # of iterations =  1.0

     total cpu time spent up to now is        3.4 secs

     total energy              =     -45.59117631 Ry
     estimated scf accuracy    <       0.00081807 Ry

     iteration #  5     ecut=    80.00 Ry     beta= 0.70
     Davidson diagonalization with overlap
     ethr =  5.84E-06,  avg # of iterations =  2.0

     total cpu time spent up to now is        3.5 secs

     total energy              =     -45.59122457 Ry
     estimated scf accuracy    <       0.00003896 Ry

     iteration #  6     ecut=    80.00 Ry     beta= 0.70
     Davidson diagonalization with overlap
     ethr =  2.78E-07,  avg # of iterations =  2.2

     total cpu time spent up to now is        3.7 secs

     total energy              =     -45.59123244 Ry
     estimated scf accuracy    <       0.00000022 Ry

     iteration #  7     ecut=    80.00 Ry     beta= 0.70
     Davidson diagonalization with overlap
     ethr =  1.59E-09,  avg # of iterations =  3.9

     total cpu time spent up to now is        3.8 secs

     total energy              =     -45.59123264 Ry
     estimated scf accuracy    <       0.00000004 Ry

     iteration #  8     ecut=    80.00 Ry     beta= 0.70
     Davidson diagonalization with overlap
     ethr =  2.70E-10,  avg # of iterations =  1.4

     total cpu time spent up to now is        3.9 secs

     End of self-consistent calculation

          k = 0.0000 0.0000 0.0000 (  2741 PWs)   bands (ev):

   -35.4175 -35.1953  -2.8073   9.1306   9.1306   9.1306  10.2739  10.2739
    10.2739  13.4966  15.8654

          k =-0.1928 0.1928-0.1928 (  2803 PWs)   bands (ev):

   -35.4012 -35.2102  -2.3770   5.7541   8.2374   8.2374  11.1981  11.2868
    11.2868  13.7983  13.7983

          k =-0.3857 0.3857-0.3857 (  2833 PWs)   bands (ev):

   -35.3671 -35.2418  -1.2906   2.7320   7.7318   7.7318  10.3710  10.3710
    10.8802  16.5148  16.5148

          k =-0.0000 0.3857-0.0000 (  2810 PWs)   bands (ev):

   -35.3952 -35.2157  -2.2164   6.6266   6.8199   6.8199  10.1736  11.6351
    13.3714  13.3714  16.0083

          k =-0.1928 0.5785-0.1928 (  2812 PWs)   bands (ev):

   -35.3638 -35.2449  -1.2486   3.5442   6.0984   6.2559  10.2894  12.2938
    13.2142  13.7085  18.1021

          k = 0.5785-0.1928 0.5785 (  2821 PWs)   bands (ev):

   -35.3465 -35.2614  -0.5642   2.2720   5.3135   6.7284  10.2537  12.1705
    13.7004  15.9030  16.2003

          k = 0.3857 0.0000 0.3857 (  2818 PWs)   bands (ev):

   -35.3772 -35.2323  -1.6776   4.3442   5.6067   8.0538  10.7549  11.8034
    12.5458  13.8847  14.9174

          k =-0.0000 0.7714-0.0000 (  2818 PWs)   bands (ev):

   -35.3380 -35.2696  -0.3946   2.6880   5.3675   5.3675   9.9692  10.1441
    16.7537  16.7537  19.1793

          k = 0.7714-0.0000 0.7714 (  2840 PWs)   bands (ev):

   -35.3141 -35.2931   0.6499   1.3748   4.5387   5.5390  10.0093  11.9399
    16.2812  16.3711  17.4832

          k = 0.5785-0.1928 0.9642 (  2831 PWs)   bands (ev):

   -35.3313 -35.2761  -0.0762   2.2067   4.6735   5.4556  11.8086  12.1067
    13.0625  16.3142  17.0472

     the Fermi energy is    11.1977 ev

!    total energy              =     -45.59123264 Ry
     estimated scf accuracy    <          6.2E-09 Ry
     smearing contrib. (-TS)   =      -0.00015511 Ry
     internal energy E=F+TS    =     -45.59107752 Ry

     The total energy is F=E-TS. E is the sum of the following terms:
     one-electron contribution =      -2.23308133 Ry
     hartree contribution      =       5.77878370 Ry
     xc contribution           =     -13.60764320 Ry
     ewald contribution        =     -35.52913670 Ry

     convergence has been achieved in   8 iterations

     Forces acting on atoms (cartesian axes, Ry/au):

     atom    1 type  1   force =    -0.00000000    0.00000000   -0.00000000
     atom    2 type  1   force =     0.00000000    0.00000000    0.00000000
     atom    3 type  2   force =    -0.00000000   -0.00000000    0.00000000
     atom    4 type  2   force =    -0.00000000    0.00000000   -0.00000000
     The non-local contrib.  to forces
     atom    1 type  1   force =     0.00000000    0.00000000    0.00000000
     atom    2 type  1   force =    -0.00000000   -0.00000000   -0.00000000
     atom    3 type  2   force =    -0.00000000    0.00000000   -0.00000000
     atom    4 type  2   force =     0.00000000    0.00000000    0.00000000
     The ionic contribution  to forces
     atom    1 type  1   force =    -0.00000000    0.00000000    0.00000000
     atom    2 type  1   force =    -0.00000000   -0.00000000    0.00000000
     atom    3 type  2   force =    -0.00000000    0.00000000   -0.00000000
     atom    4 type  2   force =    -0.00000000   -0.00000000   -0.00000000
     The local contribution  to forces
     atom    1 type  1   force =     0.00000000   -0.00000000   -0.00000000
     atom    2 type  1   force =     0.00000000    0.00000000   -0.00000000
     atom    3 type  2   force =    -0.00000000    0.00000000    0.00000000
     atom    4 type  2   force =     0.00000000    0.00000000   -0.00000000
     The core correction contribution to forces
     atom    1 type  1   force =     0.00000000    0.00000000    0.00000000
     atom    2 type  1   force =     0.00000000    0.00000000    0.00000000
     atom    3 type  2   force =    -0.00000000    0.00000000    0.00000000
     atom    4 type  2   force =    -0.00000000    0.00000000    0.00000000
     The Hubbard contrib.    to forces
     atom    1 type  1   force =     0.00000000    0.00000000    0.00000000
     atom    2 type  1   force =     0.00000000    0.00000000    0.00000000
     atom    3 type  2   force =     0.00000000    0.00000000    0.00000000
     atom    4 type  2   force =     0.00000000    0.00000000    0.00000000
     The SCF correction term to forces
     atom    1 type  1   force =    -0.00000000    0.00000000    0.00000000
     atom    2 type  1   force =     0.00000000   -0.00000000    0.00000000
     atom    3 type  2   force =     0.00000000    0.00000000   -0.00000000
     atom    4 type  2   force =    -0.00000000    0.00000000   -0.00000000

     Total force =     0.000000     Total SCF correction =     0.000000


     Computing stress (Cartesian axis) and pressure

          total   stress  (Ry/bohr**3)                   (kbar)     P=      459.68
   0.00312484   0.00000000  -0.00000000          459.68        0.00       -0.00
   0.00000000   0.00312484  -0.00000000            0.00      459.68       -0.00
   0.00000000  -0.00000000   0.00312484            0.00       -0.00      459.68

     Energy error            =      1.5E-02 Ry
     Gradient error          =      1.1E-31 Ry/Bohr
     Cell gradient error     =      4.0E+01 kbar

     number of scf cycles    =   2
     number of bfgs steps    =   1

     enthalpy           old  =     -44.6914207029 Ry
     enthalpy           new  =     -44.7062342303 Ry

     CASE: enthalpy          _new < enthalpy          _old

     new trust radius        =       0.0191359595 bohr
ibrav =      2
 celldm(1) =     10.07636492
Input lattice vectors:
    -0.51548960    -0.00000000     0.51548960
     0.00000000     0.51548960     0.51548960
    -0.51548960     0.51548960    -0.00000000
New lattice vectors in INITIAL alat:
    -0.51548960     0.00000000     0.51548960
     0.00000000     0.51548960     0.51548960
    -0.51548960     0.51548960     0.00000000
New lattice vectors in NEW alat (for information only):
    -0.50000000     0.00000000     0.50000000
     0.00000000     0.50000000     0.50000000
    -0.50000000     0.50000000     0.00000000
Discrepancy in bohr =     0.000000    0.000000    0.000000
     new conv_thr            =            1.0E-10 Ry

     new unit-cell volume =    255.77122 a.u.^3 (    37.90138 Ang^3 )
     density =      3.06917 g/cm^3

CELL_PARAMETERS (alat=  9.77358708)
  -0.515489597   0.000000000   0.515489597
   0.000000000   0.515489597   0.515489597
  -0.515489597   0.515489597   0.000000000

ATOMIC_POSITIONS (crystal)
Li            0.5000000000        0.5000000000       -0.5000000000
Li            0.2500000000        1.2500000000       -0.7500000000
Si            0.0000000000       -0.0000000000       -0.0000000000
Si           -0.2500000000        0.7500000000       -0.2500000000



     Writing config-only to output data dir ./output/LiSi.save/
     NEW-OLD atomic charge density approx. for the potential
     extrapolated charge   13.74816, renormalised to   14.00000

     total cpu time spent up to now is        4.7 secs

     Self-consistent Calculation

     iteration #  1     ecut=    80.00 Ry     beta= 0.70
     Davidson diagonalization with overlap
     ethr =  1.00E-06,  avg # of iterations =  5.0

     total cpu time spent up to now is        4.8 secs

     total energy              =     -45.57585435 Ry
     estimated scf accuracy    <       0.00010490 Ry

     iteration #  2     ecut=    80.00 Ry     beta= 0.70
     Davidson diagonalization with overlap
     ethr =  7.49E-07,  avg # of iterations =  3.0

     total cpu time spent up to now is        4.9 secs

     total energy              =     -45.57627288 Ry
     estimated scf accuracy    <       0.00010250 Ry

     iteration #  3     ecut=    80.00 Ry     beta= 0.70
     Davidson diagonalization with overlap
     ethr =  7.32E-07,  avg # of iterations =  1.0

     total cpu time spent up to now is        5.0 secs

     total energy              =     -45.57626293 Ry
     estimated scf accuracy    <       0.00002750 Ry

     iteration #  4     ecut=    80.00 Ry     beta= 0.70
     Davidson diagonalization with overlap
     ethr =  1.96E-07,  avg # of iterations =  1.1

     total cpu time spent up to now is        5.1 secs

     total energy              =     -45.57626117 Ry
     estimated scf accuracy    <       0.00000482 Ry

     iteration #  5     ecut=    80.00 Ry     beta= 0.70
     Davidson diagonalization with overlap
     ethr =  3.44E-08,  avg # of iterations =  2.0

     total cpu time spent up to now is        5.2 secs

     total energy              =     -45.57626203 Ry
     estimated scf accuracy    <       0.00000004 Ry

     iteration #  6     ecut=    80.00 Ry     beta= 0.70
     Davidson diagonalization with overlap
     ethr =  2.89E-10,  avg # of iterations =  3.7

     total cpu time spent up to now is        5.3 secs

     total energy              =     -45.57626205 Ry
     estimated scf accuracy    <          3.6E-09 Ry

     iteration #  7     ecut=    80.00 Ry     beta= 0.70
     Davidson diagonalization with overlap
     ethr =  2.55E-11,  avg # of iterations =  2.7

     total cpu time spent up to now is        5.4 secs

     total energy              =     -45.57626205 Ry
     estimated scf accuracy    <       0.00000001 Ry

     iteration #  8     ecut=    80.00 Ry     beta= 0.70
     Davidson diagonalization with overlap
     ethr =  2.55E-11,  avg # of iterations =  2.0

     total cpu time spent up to now is        5.5 secs

     End of self-consistent calculation

          k = 0.0000 0.0000 0.0000 (  2741 PWs)   bands (ev):

   -35.2102 -34.9751  -2.6936   9.3391   9.3391   9.3391  10.4774  10.4774
    10.4774  13.9417  16.1238

          k =-0.1940 0.1940-0.1940 (  2803 PWs)   bands (ev):

   -35.1928 -34.9908  -2.2603   5.9347   8.4317   8.4317  11.4809  11.5062
    11.5062  14.0097  14.0097

          k =-0.3880 0.3880-0.3880 (  2833 PWs)   bands (ev):

   -35.1567 -35.0242  -1.1667   2.8894   7.9250   7.9250  10.5569  10.5569
    11.1783  16.7715  16.7715

          k =-0.0000 0.3880-0.0000 (  2810 PWs)   bands (ev):

   -35.1865 -34.9967  -2.0984   6.8469   6.9907   6.9907  10.3905  11.8368
    13.6277  13.6277  16.4231

          k =-0.1940 0.5820-0.1940 (  2812 PWs)   bands (ev):

   -35.1532 -35.0275  -1.1230   3.7138   6.2782   6.4205  10.5027  12.5334
    13.4493  13.9909  18.3695

          k = 0.5820-0.1940 0.5820 (  2821 PWs)   bands (ev):

   -35.1349 -35.0449  -0.4335   2.4291   5.4815   6.9015  10.4758  12.3846
    13.9945  16.1572  16.4772

          k = 0.3880 0.0000 0.3880 (  2818 PWs)   bands (ev):

   -35.1675 -35.0142  -1.5558   4.5219   5.7705   8.2500  10.9944  12.0253
    12.7414  14.1627  15.2172

          k =-0.0000 0.7760-0.0000 (  2818 PWs)   bands (ev):

   -35.1259 -35.0536  -0.2599   2.8587   5.5202   5.5202  10.1993  10.3650
    17.0488  17.0488  19.4411

          k = 0.7760-0.0000 0.7760 (  2840 PWs)   bands (ev):

   -35.1006 -35.0784   0.7949   1.5283   4.6896   5.6944  10.2357  12.1835
    16.5634  16.6225  17.7779

          k = 0.5820-0.1940 0.9700 (  2831 PWs)   bands (ev):

   -35.1188 -35.0605   0.0606   2.3688   4.8273   5.6149  12.0474  12.3502
    13.3027  16.5985  17.3418

     the Fermi energy is    11.4489 ev

!    total energy              =     -45.57626205 Ry
     estimated scf accuracy    <          2.4E-11 Ry
     smearing contrib. (-TS)   =      -0.00038724 Ry
     internal energy E=F+TS    =     -45.57587481 Ry

     The total energy is F=E-TS. E is the sum of the following terms:
     one-electron contribution =      -1.94417432 Ry
     hartree contribution      =       5.75120707 Ry
     xc contribution           =     -13.64184320 Ry
     ewald contribution        =     -35.74106436 Ry

     convergence has been achieved in   8 iterations

     Forces acting on atoms (cartesian axes, Ry/au):

     atom    1 type  1   force =    -0.00000000   -0.00000000    0.00000000
     atom    2 type  1   force =    -0.00000000    0.00000000   -0.00000000
     atom    3 type  2   force =     0.00000000   -0.00000000    0.00000000
     atom    4 type  2   force =    -0.00000000    0.00000000   -0.00000000
     The non-local contrib.  to forces
     atom    1 type  1   force =    -0.00000000   -0.00000000   -0.00000000
     atom    2 type  1   force =     0.00000000    0.00000000    0.00000000
     atom    3 type  2   force =     0.00000000    0.00000000   -0.00000000
     atom    4 type  2   force =     0.00000000    0.00000000    0.00000000
     The ionic contribution  to forces
     atom    1 type  1   force =     0.00000000    0.00000000    0.00000000
     atom    2 type  1   force =     0.00000000   -0.00000000    0.00000000
     atom    3 type  2   force =     0.00000000    0.00000000   -0.00000000
     atom    4 type  2   force =    -0.00000000    0.00000000    0.00000000
     The local contribution  to forces
     atom    1 type  1   force =     0.00000000   -0.00000000   -0.00000000
     atom    2 type  1   force =    -0.00000000   -0.00000000   -0.00000000
     atom    3 type  2   force =    -0.00000000    0.00000000   -0.00000000
     atom    4 type  2   force =     0.00000000    0.00000000    0.00000000
     The core correction contribution to forces
     atom    1 type  1   force =     0.00000000    0.00000000    0.00000000
     atom    2 type  1   force =     0.00000000    0.00000000    0.00000000
     atom    3 type  2   force =    -0.00000000    0.00000000    0.00000000
     atom    4 type  2   force =     0.00000000    0.00000000    0.00000000
     The Hubbard contrib.    to forces
     atom    1 type  1   force =     0.00000000    0.00000000    0.00000000
     atom    2 type  1   force =     0.00000000    0.00000000    0.00000000
     atom    3 type  2   force =     0.00000000    0.00000000    0.00000000
     atom    4 type  2   force =     0.00000000    0.00000000    0.00000000
     The SCF correction term to forces
     atom    1 type  1   force =    -0.00000000   -0.00000000   -0.00000000
     atom    2 type  1   force =     0.00000000   -0.00000000    0.00000000
     atom    3 type  2   force =     0.00000000    0.00000000    0.00000000
     atom    4 type  2   force =     0.00000000   -0.00000000    0.00000000

     Total force =     0.000000     Total SCF correction =     0.000000


     Computing stress (Cartesian axis) and pressure

          total   stress  (Ry/bohr**3)                   (kbar)     P=      497.30
   0.00338056   0.00000000   0.00000000          497.30        0.00        0.00
   0.00000000   0.00338056  -0.00000000            0.00      497.30       -0.00
   0.00000000  -0.00000000   0.00338056            0.00       -0.00      497.30

     Energy error            =      6.8E-04 Ry
     Gradient error          =      3.2E-31 Ry/Bohr
     Cell gradient error     =      2.7E+00 kbar

     number of scf cycles    =   3
     number of bfgs steps    =   2

     enthalpy           old  =     -44.7062342303 Ry
     enthalpy           new  =     -44.7069133525 Ry

     CASE: enthalpy          _new < enthalpy          _old

     new trust radius        =       0.0013536094 bohr
ibrav =      2
 celldm(1) =     10.07210068
Input lattice vectors:
    -0.51527145    -0.00000000     0.51527145
     0.00000000     0.51527145     0.51527145
    -0.51527145     0.51527145    -0.00000000
New lattice vectors in INITIAL alat:
    -0.51527145     0.00000000     0.51527145
     0.00000000     0.51527145     0.51527145
    -0.51527145     0.51527145     0.00000000
New lattice vectors in NEW alat (for information only):
    -0.50000000     0.00000000     0.50000000
     0.00000000     0.50000000     0.50000000
    -0.50000000     0.50000000     0.00000000
Discrepancy in bohr =     0.000000    0.000000    0.000000
     new conv_thr            =            1.0E-10 Ry

     new unit-cell volume =    255.44663 a.u.^3 (    37.85329 Ang^3 )
     density =      3.07307 g/cm^3

CELL_PARAMETERS (alat=  9.77358708)
  -0.515271446   0.000000000   0.515271446
   0.000000000   0.515271446   0.515271446
  -0.515271446   0.515271446   0.000000000

ATOMIC_POSITIONS (crystal)
Li            0.5000000000        0.5000000000       -0.5000000000
Li            0.2500000000        1.2500000000       -0.7500000000
Si            0.0000000000       -0.0000000000       -0.0000000000
Si           -0.2500000000        0.7500000000       -0.2500000000



     Writing config-only to output data dir ./output/LiSi.save/
     NEW-OLD atomic charge density approx. for the potential
     extrapolated charge   13.98222, renormalised to   14.00000

     total cpu time spent up to now is        6.3 secs

     Self-consistent Calculation

     iteration #  1     ecut=    80.00 Ry     beta= 0.70
     Davidson diagonalization with overlap
     ethr =  1.00E-06,  avg # of iterations =  1.0

     Threshold (ethr) on eigenvalues was too large:
     Diagonalizing with lowered threshold

     Davidson diagonalization with overlap
     ethr =  3.63E-09,  avg # of iterations =  4.3

     total cpu time spent up to now is        6.5 secs

     total energy              =     -45.57515973 Ry
     estimated scf accuracy    <       0.00000051 Ry

     iteration #  2     ecut=    80.00 Ry     beta= 0.70
     Davidson diagonalization with overlap
     ethr =  3.62E-09,  avg # of iterations =  3.0

     total cpu time spent up to now is        6.6 secs

     total energy              =     -45.57516182 Ry
     estimated scf accuracy    <       0.00000052 Ry

     iteration #  3     ecut=    80.00 Ry     beta= 0.70
     Davidson diagonalization with overlap
     ethr =  3.62E-09,  avg # of iterations =  1.0

     total cpu time spent up to now is        6.6 secs

     total energy              =     -45.57516178 Ry
     estimated scf accuracy    <       0.00000014 Ry

     iteration #  4     ecut=    80.00 Ry     beta= 0.70
     Davidson diagonalization with overlap
     ethr =  1.02E-09,  avg # of iterations =  1.1

     total cpu time spent up to now is        6.7 secs

     total energy              =     -45.57516176 Ry
     estimated scf accuracy    <       0.00000003 Ry

     iteration #  5     ecut=    80.00 Ry     beta= 0.70
     Davidson diagonalization with overlap
     ethr =  2.18E-10,  avg # of iterations =  2.0

     total cpu time spent up to now is        6.8 secs

     total energy              =     -45.57516177 Ry
     estimated scf accuracy    <          4.6E-10 Ry

     iteration #  6     ecut=    80.00 Ry     beta= 0.70
     Davidson diagonalization with overlap
     ethr =  3.27E-12,  avg # of iterations =  3.2

     total cpu time spent up to now is        6.9 secs

     End of self-consistent calculation

          k = 0.0000 0.0000 0.0000 (  2741 PWs)   bands (ev):

   -35.1954 -34.9594  -2.6854   9.3541   9.3541   9.3541  10.4920  10.4920
    10.4920  13.9736  16.1423

          k =-0.1941 0.1941-0.1941 (  2803 PWs)   bands (ev):

   -35.1780 -34.9752  -2.2519   5.9477   8.4456   8.4456  11.5011  11.5220
    11.5220  14.0249  14.0249

          k =-0.3881 0.3881-0.3881 (  2833 PWs)   bands (ev):

   -35.1417 -35.0087  -1.1578   2.9007   7.9389   7.9389  10.5702  10.5702
    11.1997  16.7898  16.7898

          k = 0.0000 0.3881 0.0000 (  2810 PWs)   bands (ev):

   -35.1716 -34.9810  -2.0899   6.8627   7.0030   7.0030  10.4061  11.8513
    13.6461  13.6461  16.4529

          k =-0.1941 0.5822-0.1941 (  2812 PWs)   bands (ev):

   -35.1382 -35.0120  -1.1140   3.7260   6.2911   6.4324  10.5180  12.5506
    13.4661  14.0111  18.3886

          k = 0.5822-0.1941 0.5822 (  2821 PWs)   bands (ev):

   -35.1198 -35.0295  -0.4241   2.4403   5.4936   6.9139  10.4917  12.4000
    14.0156  16.1755  16.4970

          k = 0.3881 0.0000 0.3881 (  2818 PWs)   bands (ev):

   -35.1525 -34.9986  -1.5471   4.5347   5.7823   8.2641  11.0116  12.0412
    12.7554  14.1826  15.2387

          k = 0.0000 0.7763 0.0000 (  2818 PWs)   bands (ev):

   -35.1108 -35.0382  -0.2502   2.8709   5.5312   5.5312  10.2158  10.3808
    17.0700  17.0700  19.4599

          k = 0.7763 0.0000 0.7763 (  2840 PWs)   bands (ev):

   -35.0854 -35.0631   0.8053   1.5393   4.7005   5.7056  10.2519  12.2010
    16.5836  16.6405  17.7990

          k = 0.5822-0.1941 0.9704 (  2831 PWs)   bands (ev):

   -35.1037 -35.0451   0.0704   2.3804   4.8384   5.6263  12.0645  12.3676
    13.3200  16.6188  17.3630

     the Fermi energy is    11.4669 ev

!    total energy              =     -45.57516177 Ry
     estimated scf accuracy    <          3.0E-11 Ry
     smearing contrib. (-TS)   =      -0.00040388 Ry
     internal energy E=F+TS    =     -45.57475789 Ry

     The total energy is F=E-TS. E is the sum of the following terms:
     one-electron contribution =      -1.92352980 Ry
     hartree contribution      =       5.74925508 Ry
     xc contribution           =     -13.64428707 Ry
     ewald contribution        =     -35.75619610 Ry

     convergence has been achieved in   6 iterations

     Forces acting on atoms (cartesian axes, Ry/au):

     atom    1 type  1   force =     0.00000000   -0.00000000    0.00000000
     atom    2 type  1   force =    -0.00000000    0.00000000   -0.00000000
     atom    3 type  2   force =    -0.00000000   -0.00000000   -0.00000000
     atom    4 type  2   force =     0.00000000    0.00000000    0.00000000
     The non-local contrib.  to forces
     atom    1 type  1   force =     0.00000000   -0.00000000    0.00000000
     atom    2 type  1   force =    -0.00000000    0.00000000   -0.00000000
     atom    3 type  2   force =    -0.00000000   -0.00000000   -0.00000000
     atom    4 type  2   force =     0.00000000    0.00000000    0.00000000
     The ionic contribution  to forces
     atom    1 type  1   force =     0.00000000    0.00000000    0.00000000
     atom    2 type  1   force =    -0.00000000   -0.00000000    0.00000000
     atom    3 type  2   force =     0.00000000    0.00000000   -0.00000000
     atom    4 type  2   force =     0.00000000    0.00000000    0.00000000
     The local contribution  to forces
     atom    1 type  1   force =     0.00000000   -0.00000000   -0.00000000
     atom    2 type  1   force =    -0.00000000   -0.00000000   -0.00000000
     atom    3 type  2   force =    -0.00000000    0.00000000    0.00000000
     atom    4 type  2   force =     0.00000000    0.00000000   -0.00000000
     The core correction contribution to forces
     atom    1 type  1   force =     0.00000000    0.00000000    0.00000000
     atom    2 type  1   force =     0.00000000    0.00000000    0.00000000
     atom    3 type  2   force =    -0.00000000    0.00000000    0.00000000
     atom    4 type  2   force =    -0.00000000    0.00000000    0.00000000
     The Hubbard contrib.    to forces
     atom    1 type  1   force =     0.00000000    0.00000000    0.00000000
     atom    2 type  1   force =     0.00000000    0.00000000    0.00000000
     atom    3 type  2   force =     0.00000000    0.00000000    0.00000000
     atom    4 type  2   force =     0.00000000    0.00000000    0.00000000
     The SCF correction term to forces
     atom    1 type  1   force =     0.00000000    0.00000000   -0.00000000
     atom    2 type  1   force =    -0.00000000    0.00000000   -0.00000000
     atom    3 type  2   force =    -0.00000000    0.00000000    0.00000000
     atom    4 type  2   force =    -0.00000000    0.00000000   -0.00000000

     Total force =     0.000000     Total SCF correction =     0.000000


     Computing stress (Cartesian axis) and pressure

          total   stress  (Ry/bohr**3)                   (kbar)     P=      500.03
   0.00339915  -0.00000000  -0.00000000          500.03       -0.00       -0.00
  -0.00000000   0.00339915   0.00000000           -0.00      500.03        0.00
   0.00000000   0.00000000   0.00339915            0.00        0.00      500.03

     Energy error            =      3.0E-06 Ry
     Gradient error          =      5.4E-31 Ry/Bohr
     Cell gradient error     =      3.2E-02 kbar
ibrav =      2
 celldm(1) =     10.07210068
Input lattice vectors:
    -0.51527145     0.00000000     0.51527145
     0.00000000     0.51527145     0.51527145
    -0.51527145     0.51527145     0.00000000
New lattice vectors in INITIAL alat:
    -0.51527145     0.00000000     0.51527145
     0.00000000     0.51527145     0.51527145
    -0.51527145     0.51527145     0.00000000
New lattice vectors in NEW alat (for information only):
    -0.50000000     0.00000000     0.50000000
     0.00000000     0.50000000     0.50000000
    -0.50000000     0.50000000     0.00000000
Discrepancy in bohr =     0.000000    0.000000    0.000000

     bfgs converged in   4 scf cycles and   3 bfgs steps
     (criteria: energy <  1.0E-04 Ry, force <  1.0E-03 Ry/Bohr, cell <  1.0E+00 kbar)

     End of BFGS Geometry Optimization

     Final enthalpy           =     -44.7069163050 Ry

     File ./output/LiSi.bfgs deleted, as requested
Begin final coordinates
     new unit-cell volume =    255.44663 a.u.^3 (    37.85329 Ang^3 )
     density =      3.07307 g/cm^3

CELL_PARAMETERS (alat=  9.77358708)
  -0.515271446   0.000000000   0.515271446
   0.000000000   0.515271446   0.515271446
  -0.515271446   0.515271446   0.000000000

ATOMIC_POSITIONS (crystal)
Li            0.5000000000        0.5000000000       -0.5000000000
Li            0.2500000000        1.2500000000       -0.7500000000
Si            0.0000000000       -0.0000000000       -0.0000000000
Si           -0.2500000000        0.7500000000       -0.2500000000
End final coordinates



     Writing config-only to output data dir ./output/LiSi.save/

     Final scf calculation at the relaxed structure.
     The G-vectors are recalculated for the final unit cell
     Results may differ from those at the preceding step.

     Parallelization info
     --------------------
     sticks:   dense  smooth     PW     G-vecs:    dense   smooth      PW
     Min         140     140     39                 3086     3086     479
     Max         141     141     40                 3088     3088     484
     Sum        1123    1123    313                24693    24693    3839

     Using Slab Decomposition



     bravais-lattice index     =            2
     lattice parameter (alat)  =       9.7736  a.u.
     unit-cell volume          =     255.4466 (a.u.)^3
     number of atoms/cell      =            4
     number of atomic types    =            2
     number of electrons       =        14.00
     number of Kohn-Sham states=           11
     kinetic-energy cutoff     =      80.0000  Ry
     charge density cutoff     =     320.0000  Ry
     scf convergence threshold =      1.0E-10
     mixing beta               =       0.7000
     number of iterations used =            8  plain     mixing
     press convergence thresh. =      1.0E+00
     Exchange-correlation= PBE
                           (   1   4   3   4   0   0   0)

     celldm(1)=   9.773587  celldm(2)=   0.000000  celldm(3)=   0.000000
     celldm(4)=   0.000000  celldm(5)=   0.000000  celldm(6)=   0.000000

     crystal axes: (cart. coord. in units of alat)
               a(1) = (  -0.515271   0.000000   0.515271 )  
               a(2) = (   0.000000   0.515271   0.515271 )  
               a(3) = (  -0.515271   0.515271   0.000000 )  

     reciprocal axes: (cart. coord. in units 2 pi/alat)
               b(1) = ( -0.970362 -0.970362  0.970362 )  
               b(2) = (  0.970362  0.970362  0.970362 )  
               b(3) = ( -0.970362  0.970362 -0.970362 )  


     PseudoPot. # 1 for Li read from file:
     ../pseudo/Li_ONCV_PBE_sr.upf
     MD5 check sum: 50ff420e78310ffa21704f3361e624a4
     Pseudo is Norm-conserving, Zval =  3.0
     Generated using ONCVPSP code by D. R. Hamann
     Using radial grid of 1944 points,  4 beta functions with: 
                l(1) =   0
                l(2) =   0
                l(3) =   1
                l(4) =   1

     PseudoPot. # 2 for Si read from file:
     ../pseudo/Si_ONCV_PBE_sr.upf
     MD5 check sum: e543d271109d17c80368dfa7c482276d
     Pseudo is Norm-conserving + core correction, Zval =  4.0
     Generated using ONCVPSP code by D. R. Hamann
     Using radial grid of 1510 points,  6 beta functions with: 
                l(1) =   0
                l(2) =   0
                l(3) =   1
                l(4) =   1
                l(5) =   2
                l(6) =   2

     atomic species   valence    mass     pseudopotential
        Li             3.00     6.94100     Li( 1.00)
        Si             4.00    28.08550     Si( 1.00)

     48 Sym. Ops., with inversion, found (24 have fractional translation)



   Cartesian axes

     site n.     atom                  positions (alat units)
         1           Li  tau(   1) = (   0.0000000   0.0000000   0.5152714  )
         2           Li  tau(   2) = (   0.2576357   0.2576357   0.7729072  )
         3           Si  tau(   3) = (   0.0000000  -0.0000000   0.0000000  )
         4           Si  tau(   4) = (   0.2576357   0.2576357   0.2576357  )

     number of k points=    10  Marzari-Vanderbilt smearing, width (Ry)=  0.0200
                       cart. coord. in units 2pi/alat
        k(    1) = (   0.0000000   0.0000000   0.0000000), wk =   0.0160000
        k(    2) = (  -0.1940725   0.1940725  -0.1940725), wk =   0.1280000
        k(    3) = (  -0.3881449   0.3881449  -0.3881449), wk =   0.1280000
        k(    4) = (   0.0000000   0.3881449   0.0000000), wk =   0.0960000
        k(    5) = (  -0.1940725   0.5822174  -0.1940725), wk =   0.3840000
        k(    6) = (   0.5822174  -0.1940725   0.5822174), wk =   0.3840000
        k(    7) = (   0.3881449   0.0000000   0.3881449), wk =   0.1920000
        k(    8) = (   0.0000000   0.7762899   0.0000000), wk =   0.0960000
        k(    9) = (   0.7762899   0.0000000   0.7762899), wk =   0.1920000
        k(   10) = (   0.5822174  -0.1940725   0.9703623), wk =   0.3840000

     Dense  grid:    24693 G-vectors     FFT dimensions: (  48,  48,  48)

     Estimated max dynamical RAM per process >      15.16 MB

     Estimated total dynamical RAM >     121.32 MB

     Initial potential from superposition of free atoms

     starting charge      13.9897, renormalised to      14.0000
     Starting wfcs are   12 randomized atomic wfcs

     total cpu time spent up to now is        8.1 secs

     Self-consistent Calculation

     iteration #  1     ecut=    80.00 Ry     beta= 0.70
     Davidson diagonalization with overlap
     c_bands:  1 eigenvalues not converged
     c_bands:  1 eigenvalues not converged
     ethr =  1.00E-06,  avg # of iterations = 16.9

     total cpu time spent up to now is        8.5 secs

     total energy              =     -45.57526483 Ry
     estimated scf accuracy    <       0.01532991 Ry

     iteration #  2     ecut=    80.00 Ry     beta= 0.70
     Davidson diagonalization with overlap
     ethr =  1.09E-04,  avg # of iterations =  1.0

     total cpu time spent up to now is        8.6 secs

     total energy              =     -45.57514325 Ry
     estimated scf accuracy    <       0.00103923 Ry

     iteration #  3     ecut=    80.00 Ry     beta= 0.70
     Davidson diagonalization with overlap
     ethr =  7.42E-06,  avg # of iterations =  1.8

     total cpu time spent up to now is        8.8 secs

     total energy              =     -45.57518215 Ry
     estimated scf accuracy    <       0.00000243 Ry

     iteration #  4     ecut=    80.00 Ry     beta= 0.70
     Davidson diagonalization with overlap
     ethr =  1.73E-08,  avg # of iterations =  4.0

     total cpu time spent up to now is        9.0 secs

     total energy              =     -45.57518464 Ry
     estimated scf accuracy    <       0.00000017 Ry

     iteration #  5     ecut=    80.00 Ry     beta= 0.70
     Davidson diagonalization with overlap
     ethr =  1.21E-09,  avg # of iterations =  2.0

     total cpu time spent up to now is        9.1 secs

     total energy              =     -45.57518466 Ry
     estimated scf accuracy    <          7.3E-09 Ry

     iteration #  6     ecut=    80.00 Ry     beta= 0.70
     Davidson diagonalization with overlap
     ethr =  5.21E-11,  avg # of iterations =  2.3

     total cpu time spent up to now is        9.3 secs

     total energy              =     -45.57518466 Ry
     estimated scf accuracy    <          2.2E-10 Ry

     iteration #  7     ecut=    80.00 Ry     beta= 0.70
     Davidson diagonalization with overlap
     ethr =  1.56E-12,  avg # of iterations =  3.5

     total cpu time spent up to now is        9.4 secs

     End of self-consistent calculation

          k = 0.0000 0.0000 0.0000 (  3119 PWs)   bands (ev):

   -35.1951 -34.9591  -2.6855   9.3540   9.3540   9.3540  10.4919  10.4919
    10.4919  13.9736  16.1422

          k =-0.1941 0.1941-0.1941 (  3095 PWs)   bands (ev):

   -35.1776 -34.9748  -2.2520   5.9476   8.4456   8.4456  11.5011  11.5220
    11.5220  14.0249  14.0249

          k =-0.3881 0.3881-0.3881 (  3076 PWs)   bands (ev):

   -35.1413 -35.0084  -1.1578   2.9007   7.9389   7.9389  10.5702  10.5702
    11.1996  16.7898  16.7898

          k = 0.0000 0.3881 0.0000 (  3086 PWs)   bands (ev):

   -35.1712 -34.9807  -2.0899   6.8627   7.0030   7.0030  10.4060  11.8512
    13.6461  13.6461  16.4529

          k =-0.1941 0.5822-0.1941 (  3075 PWs)   bands (ev):

   -35.1379 -35.0117  -1.1140   3.7260   6.2911   6.4323  10.5180  12.5505
    13.4661  14.0111  18.3886

          k = 0.5822-0.1941 0.5822 (  3095 PWs)   bands (ev):

   -35.1195 -35.0291  -0.4242   2.4403   5.4935   6.9139  10.4917  12.4000
    14.0156  16.1754  16.4970

          k = 0.3881 0.0000 0.3881 (  3096 PWs)   bands (ev):

   -35.1521 -34.9983  -1.5471   4.5346   5.7822   8.2641  11.0115  12.0412
    12.7553  14.1826  15.2386

          k = 0.0000 0.7763 0.0000 (  3082 PWs)   bands (ev):

   -35.1104 -35.0379  -0.2502   2.8709   5.5311   5.5311  10.2157  10.3808
    17.0700  17.0700  19.4599

          k = 0.7763 0.0000 0.7763 (  3090 PWs)   bands (ev):

   -35.0850 -35.0627   0.8053   1.5393   4.7004   5.7055  10.2519  12.2009
    16.5836  16.6405  17.7990

          k = 0.5822-0.1941 0.9704 (  3089 PWs)   bands (ev):

   -35.1033 -35.0447   0.0704   2.3804   4.8383   5.6263  12.0645  12.3676
    13.3199  16.6187  17.3629

     the Fermi energy is    11.4669 ev

!    total energy              =     -45.57518466 Ry
     estimated scf accuracy    <          7.2E-13 Ry
     smearing contrib. (-TS)   =      -0.00040385 Ry
     internal energy E=F+TS    =     -45.57478080 Ry

     The total energy is F=E-TS. E is the sum of the following terms:
     one-electron contribution =      -1.92361691 Ry
     hartree contribution      =       5.74934546 Ry
     xc contribution           =     -13.64431324 Ry
     ewald contribution        =     -35.75619610 Ry

     convergence has been achieved in   7 iterations

     Forces acting on atoms (cartesian axes, Ry/au):

     atom    1 type  1   force =     0.00000000    0.00000000    0.00000000
     atom    2 type  1   force =    -0.00000000   -0.00000000   -0.00000000
     atom    3 type  2   force =     0.00000000    0.00000000   -0.00000000
     atom    4 type  2   force =    -0.00000000   -0.00000000    0.00000000
     The non-local contrib.  to forces
     atom    1 type  1   force =    -0.00000000   -0.00000000   -0.00000000
     atom    2 type  1   force =     0.00000000    0.00000000    0.00000000
     atom    3 type  2   force =    -0.00000000   -0.00000000   -0.00000000
     atom    4 type  2   force =    -0.00000000   -0.00000000    0.00000000
     The ionic contribution  to forces
     atom    1 type  1   force =     0.00000000   -0.00000000   -0.00000000
     atom    2 type  1   force =     0.00000000   -0.00000000   -0.00000000
     atom    3 type  2   force =     0.00000000    0.00000000    0.00000000
     atom    4 type  2   force =     0.00000000    0.00000000   -0.00000000
     The local contribution  to forces
     atom    1 type  1   force =    -0.00000000    0.00000000    0.00000000
     atom    2 type  1   force =    -0.00000000   -0.00000000   -0.00000000
     atom    3 type  2   force =    -0.00000000    0.00000000    0.00000000
     atom    4 type  2   force =     0.00000000   -0.00000000    0.00000000
     The core correction contribution to forces
     atom    1 type  1   force =     0.00000000    0.00000000    0.00000000
     atom    2 type  1   force =     0.00000000    0.00000000    0.00000000
     atom    3 type  2   force =     0.00000000    0.00000000    0.00000000
     atom    4 type  2   force =     0.00000000   -0.00000000    0.00000000
     The Hubbard contrib.    to forces
     atom    1 type  1   force =     0.00000000    0.00000000    0.00000000
     atom    2 type  1   force =     0.00000000    0.00000000    0.00000000
     atom    3 type  2   force =     0.00000000    0.00000000    0.00000000
     atom    4 type  2   force =     0.00000000    0.00000000    0.00000000
     The SCF correction term to forces
     atom    1 type  1   force =    -0.00000000    0.00000000   -0.00000000
     atom    2 type  1   force =     0.00000000    0.00000000    0.00000000
     atom    3 type  2   force =     0.00000000   -0.00000000   -0.00000000
     atom    4 type  2   force =     0.00000000    0.00000000   -0.00000000

     Total force =     0.000000     Total SCF correction =     0.000000


     Computing stress (Cartesian axis) and pressure

          total   stress  (Ry/bohr**3)                   (kbar)     P=      500.21
   0.00340038   0.00000000  -0.00000000          500.21        0.00       -0.00
  -0.00000000   0.00340038   0.00000000           -0.00      500.21        0.00
  -0.00000000   0.00000000   0.00340038           -0.00        0.00      500.21


     Writing all to output data dir ./output/LiSi.save/

     init_run     :      1.03s CPU      1.41s WALL (       2 calls)
     electrons    :      3.76s CPU      4.79s WALL (       5 calls)
     update_pot   :      0.73s CPU      0.77s WALL (       3 calls)
     forces       :      0.71s CPU      0.82s WALL (       5 calls)
     stress       :      1.77s CPU      1.93s WALL (       5 calls)

     Called by init_run:
     wfcinit      :      0.07s CPU      0.08s WALL (       2 calls)
     potinit      :      0.24s CPU      0.51s WALL (       2 calls)
     hinit0       :      0.69s CPU      0.77s WALL (       2 calls)

     Called by electrons:
     c_bands      :      2.92s CPU      3.33s WALL (      36 calls)
     sum_band     :      0.44s CPU      0.50s WALL (      36 calls)
     v_of_rho     :      0.38s CPU      1.11s WALL (      39 calls)
     mix_rho      :      0.06s CPU      0.09s WALL (      36 calls)

     Called by c_bands:
     init_us_2    :      0.09s CPU      0.10s WALL (     840 calls)
     init_us_2:cp :      0.09s CPU      0.10s WALL (     840 calls)
     cegterg      :      2.69s CPU      2.82s WALL (     360 calls)

     Called by *egterg:
     cdiaghg      :      0.21s CPU      0.22s WALL (    1426 calls)
     h_psi        :      2.29s CPU      2.40s WALL (    1496 calls)
     g_psi        :      0.01s CPU      0.01s WALL (    1116 calls)

     Called by h_psi:
     h_psi:calbec :      0.16s CPU      0.16s WALL (    1496 calls)
     vloc_psi     :      2.02s CPU      2.12s WALL (    1496 calls)
     add_vuspsi   :      0.11s CPU      0.11s WALL (    1496 calls)

     General routines
     calbec       :      0.19s CPU      0.20s WALL (    1746 calls)
     fft          :      0.95s CPU      1.91s WALL (     515 calls)
     ffts         :      0.01s CPU      0.03s WALL (      36 calls)
     fftw         :      2.05s CPU      2.16s WALL (   27250 calls)

     Parallel routines

     PWSCF        :      8.17s CPU     10.11s WALL


   This run was terminated on:  22:17:53  11Feb2025            

=------------------------------------------------------------------------------=
   JOB DONE.
=------------------------------------------------------------------------------=
