
     Program PWSCF v.7.2 starts on 11Feb2025 at 22:17:43 

     This program is part of the open-source Quantum ESPRESSO suite
     for quantum simulation of materials; please cite
         "P. Giannozzi et al., J. Phys.:Condens. Matter 21 395502 (2009);
         "P. Giannozzi et al., J. Phys.:Condens. Matter 29 465901 (2017);
         "P. Giannozzi et al., J. Chem. Phys. 152 154105 (2020);
          URL http://www.quantum-espresso.org", 
     in publications or presentations arising from this work. More details at
     http://www.quantum-espresso.org/quote

     Parallel version (MPI & OpenMP), running on       8 processor cores
     Number of MPI processes:                 8
     Threads/MPI process:                     1

     MPI processes distributed on     1 nodes
     481717 MiB available memory on the printing compute node when the environment starts

     Waiting for input...
     Reading input from standard input

     Current dimensions of program PWSCF are:
     Max number of different atomic species (ntypx) = 10
     Max number of k-points (npk) =  40000
     Max angular momentum in pseudopotentials (lmaxx) =  4

     R & G space division:  proc/nbgrp/npool/nimage =       8
     Subspace diagonalization in iterative solution of the eigenvalue problem:
     a serial algorithm will be used


     Parallelization info
     --------------------
     sticks:   dense  smooth     PW     G-vecs:    dense   smooth      PW
     Min          61      61     18                 1541     1541     270
     Max          62      62     19                 1546     1546     273
     Sum         489     489    145                12341    12341    2165

     Using Slab Decomposition



     bravais-lattice index     =            6
     lattice parameter (alat)  =       4.3730  a.u.
     unit-cell volume          =     127.5999 (a.u.)^3
     number of atoms/cell      =            2
     number of atomic types    =            2
     number of electrons       =         7.00
     number of Kohn-Sham states=            8
     kinetic-energy cutoff     =      80.0000  Ry
     charge density cutoff     =     320.0000  Ry
     scf convergence threshold =      1.0E-08
     mixing beta               =       0.7000
     number of iterations used =            8  plain     mixing
     energy convergence thresh.=      1.0E-04
     force convergence thresh. =      1.0E-03
     press convergence thresh. =      1.0E+00
     Exchange-correlation= PBE
                           (   1   4   3   4   0   0   0)
     nstep                     =           50


     celldm(1)=   4.373041  celldm(2)=   0.000000  celldm(3)=   1.525807
     celldm(4)=   0.000000  celldm(5)=   0.000000  celldm(6)=   0.000000

     crystal axes: (cart. coord. in units of alat)
               a(1) = (   1.000000   0.000000   0.000000 )  
               a(2) = (   0.000000   1.000000   0.000000 )  
               a(3) = (   0.000000   0.000000   1.525807 )  

     reciprocal axes: (cart. coord. in units 2 pi/alat)
               b(1) = (  1.000000  0.000000  0.000000 )  
               b(2) = (  0.000000  1.000000  0.000000 )  
               b(3) = (  0.000000  0.000000  0.655391 )  


     PseudoPot. # 1 for Li read from file:
     ../pseudo/Li_ONCV_PBE_sr.upf
     MD5 check sum: 50ff420e78310ffa21704f3361e624a4
     Pseudo is Norm-conserving, Zval =  3.0
     Generated using ONCVPSP code by D. R. Hamann
     Using radial grid of 1944 points,  4 beta functions with: 
                l(1) =   0
                l(2) =   0
                l(3) =   1
                l(4) =   1

     PseudoPot. # 2 for Si read from file:
     ../pseudo/Si_ONCV_PBE_sr.upf
     MD5 check sum: e543d271109d17c80368dfa7c482276d
     Pseudo is Norm-conserving + core correction, Zval =  4.0
     Generated using ONCVPSP code by D. R. Hamann
     Using radial grid of 1510 points,  6 beta functions with: 
                l(1) =   0
                l(2) =   0
                l(3) =   1
                l(4) =   1
                l(5) =   2
                l(6) =   2

     atomic species   valence    mass     pseudopotential
        Li             3.00     6.94100     Li( 1.00)
        Si             4.00    28.08550     Si( 1.00)

     16 Sym. Ops., with inversion, found



   Cartesian axes

     site n.     atom                  positions (alat units)
         1           Li  tau(   1) = (   0.0000000   0.0000000   0.7629036  )
         2           Si  tau(   2) = (   0.5000000   0.5000000   0.0000000  )

     number of k points=    84  Marzari-Vanderbilt smearing, width (Ry)=  0.0200
                       cart. coord. in units 2pi/alat
        k(    1) = (   0.0000000   0.0000000   0.0000000), wk =   0.0023613
        k(    2) = (   0.0000000   0.0000000   0.0936273), wk =   0.0047226
        k(    3) = (   0.0000000   0.0000000   0.1872545), wk =   0.0047226
        k(    4) = (   0.0000000   0.0000000   0.2808818), wk =   0.0047226
        k(    5) = (   0.0000000   0.0909091   0.0000000), wk =   0.0094451
        k(    6) = (   0.0000000   0.0909091   0.0936273), wk =   0.0188902
        k(    7) = (   0.0000000   0.0909091   0.1872545), wk =   0.0188902
        k(    8) = (   0.0000000   0.0909091   0.2808818), wk =   0.0188902
        k(    9) = (   0.0000000   0.1818182   0.0000000), wk =   0.0094451
        k(   10) = (   0.0000000   0.1818182   0.0936273), wk =   0.0188902
        k(   11) = (   0.0000000   0.1818182   0.1872545), wk =   0.0188902
        k(   12) = (   0.0000000   0.1818182   0.2808818), wk =   0.0188902
        k(   13) = (   0.0000000   0.2727273   0.0000000), wk =   0.0094451
        k(   14) = (   0.0000000   0.2727273   0.0936273), wk =   0.0188902
        k(   15) = (   0.0000000   0.2727273   0.1872545), wk =   0.0188902
        k(   16) = (   0.0000000   0.2727273   0.2808818), wk =   0.0188902
        k(   17) = (   0.0000000   0.3636364   0.0000000), wk =   0.0094451
        k(   18) = (   0.0000000   0.3636364   0.0936273), wk =   0.0188902
        k(   19) = (   0.0000000   0.3636364   0.1872545), wk =   0.0188902
        k(   20) = (   0.0000000   0.3636364   0.2808818), wk =   0.0188902
        k(   21) = (   0.0000000   0.4545455   0.0000000), wk =   0.0094451
        k(   22) = (   0.0000000   0.4545455   0.0936273), wk =   0.0188902
        k(   23) = (   0.0000000   0.4545455   0.1872545), wk =   0.0188902
        k(   24) = (   0.0000000   0.4545455   0.2808818), wk =   0.0188902
        k(   25) = (   0.0909091   0.0909091   0.0000000), wk =   0.0094451
        k(   26) = (   0.0909091   0.0909091   0.0936273), wk =   0.0188902
        k(   27) = (   0.0909091   0.0909091   0.1872545), wk =   0.0188902
        k(   28) = (   0.0909091   0.0909091   0.2808818), wk =   0.0188902
        k(   29) = (   0.0909091   0.1818182   0.0000000), wk =   0.0188902
        k(   30) = (   0.0909091   0.1818182   0.0936273), wk =   0.0377804
        k(   31) = (   0.0909091   0.1818182   0.1872545), wk =   0.0377804
        k(   32) = (   0.0909091   0.1818182   0.2808818), wk =   0.0377804
        k(   33) = (   0.0909091   0.2727273   0.0000000), wk =   0.0188902
        k(   34) = (   0.0909091   0.2727273   0.0936273), wk =   0.0377804
        k(   35) = (   0.0909091   0.2727273   0.1872545), wk =   0.0377804
        k(   36) = (   0.0909091   0.2727273   0.2808818), wk =   0.0377804
        k(   37) = (   0.0909091   0.3636364   0.0000000), wk =   0.0188902
        k(   38) = (   0.0909091   0.3636364   0.0936273), wk =   0.0377804
        k(   39) = (   0.0909091   0.3636364   0.1872545), wk =   0.0377804
        k(   40) = (   0.0909091   0.3636364   0.2808818), wk =   0.0377804
        k(   41) = (   0.0909091   0.4545455   0.0000000), wk =   0.0188902
        k(   42) = (   0.0909091   0.4545455   0.0936273), wk =   0.0377804
        k(   43) = (   0.0909091   0.4545455   0.1872545), wk =   0.0377804
        k(   44) = (   0.0909091   0.4545455   0.2808818), wk =   0.0377804
        k(   45) = (   0.1818182   0.1818182   0.0000000), wk =   0.0094451
        k(   46) = (   0.1818182   0.1818182   0.0936273), wk =   0.0188902
        k(   47) = (   0.1818182   0.1818182   0.1872545), wk =   0.0188902
        k(   48) = (   0.1818182   0.1818182   0.2808818), wk =   0.0188902
        k(   49) = (   0.1818182   0.2727273   0.0000000), wk =   0.0188902
        k(   50) = (   0.1818182   0.2727273   0.0936273), wk =   0.0377804
        k(   51) = (   0.1818182   0.2727273   0.1872545), wk =   0.0377804
        k(   52) = (   0.1818182   0.2727273   0.2808818), wk =   0.0377804
        k(   53) = (   0.1818182   0.3636364   0.0000000), wk =   0.0188902
        k(   54) = (   0.1818182   0.3636364   0.0936273), wk =   0.0377804
        k(   55) = (   0.1818182   0.3636364   0.1872545), wk =   0.0377804
        k(   56) = (   0.1818182   0.3636364   0.2808818), wk =   0.0377804
        k(   57) = (   0.1818182   0.4545455   0.0000000), wk =   0.0188902
        k(   58) = (   0.1818182   0.4545455   0.0936273), wk =   0.0377804
        k(   59) = (   0.1818182   0.4545455   0.1872545), wk =   0.0377804
        k(   60) = (   0.1818182   0.4545455   0.2808818), wk =   0.0377804
        k(   61) = (   0.2727273   0.2727273   0.0000000), wk =   0.0094451
        k(   62) = (   0.2727273   0.2727273   0.0936273), wk =   0.0188902
        k(   63) = (   0.2727273   0.2727273   0.1872545), wk =   0.0188902
        k(   64) = (   0.2727273   0.2727273   0.2808818), wk =   0.0188902
        k(   65) = (   0.2727273   0.3636364   0.0000000), wk =   0.0188902
        k(   66) = (   0.2727273   0.3636364   0.0936273), wk =   0.0377804
        k(   67) = (   0.2727273   0.3636364   0.1872545), wk =   0.0377804
        k(   68) = (   0.2727273   0.3636364   0.2808818), wk =   0.0377804
        k(   69) = (   0.2727273   0.4545455   0.0000000), wk =   0.0188902
        k(   70) = (   0.2727273   0.4545455   0.0936273), wk =   0.0377804
        k(   71) = (   0.2727273   0.4545455   0.1872545), wk =   0.0377804
        k(   72) = (   0.2727273   0.4545455   0.2808818), wk =   0.0377804
        k(   73) = (   0.3636364   0.3636364   0.0000000), wk =   0.0094451
        k(   74) = (   0.3636364   0.3636364   0.0936273), wk =   0.0188902
        k(   75) = (   0.3636364   0.3636364   0.1872545), wk =   0.0188902
        k(   76) = (   0.3636364   0.3636364   0.2808818), wk =   0.0188902
        k(   77) = (   0.3636364   0.4545455   0.0000000), wk =   0.0188902
        k(   78) = (   0.3636364   0.4545455   0.0936273), wk =   0.0377804
        k(   79) = (   0.3636364   0.4545455   0.1872545), wk =   0.0377804
        k(   80) = (   0.3636364   0.4545455   0.2808818), wk =   0.0377804
        k(   81) = (   0.4545455   0.4545455   0.0000000), wk =   0.0094451
        k(   82) = (   0.4545455   0.4545455   0.0936273), wk =   0.0188902
        k(   83) = (   0.4545455   0.4545455   0.1872545), wk =   0.0188902
        k(   84) = (   0.4545455   0.4545455   0.2808818), wk =   0.0188902

     Dense  grid:    12341 G-vectors     FFT dimensions: (  25,  25,  40)

     Estimated max dynamical RAM per process >      14.57 MB

     Estimated total dynamical RAM >     116.56 MB

     Initial potential from superposition of free atoms

     starting charge       6.9948, renormalised to       7.0000
     Starting wfcs are    6 randomized atomic wfcs +    2 random wfcs

     total cpu time spent up to now is        0.6 secs

     Self-consistent Calculation

     iteration #  1     ecut=    80.00 Ry     beta= 0.70
     Davidson diagonalization with overlap
     ethr =  1.00E-02,  avg # of iterations =  6.3

     Threshold (ethr) on eigenvalues was too large:
     Diagonalizing with lowered threshold

     Davidson diagonalization with overlap
     ethr =  9.78E-05,  avg # of iterations =  3.3

     total cpu time spent up to now is        1.3 secs

     total energy              =     -22.82206851 Ry
     estimated scf accuracy    <       0.00674660 Ry

     iteration #  2     ecut=    80.00 Ry     beta= 0.70
     Davidson diagonalization with overlap
     ethr =  9.64E-05,  avg # of iterations =  1.1

     total cpu time spent up to now is        1.5 secs

     total energy              =     -22.82207855 Ry
     estimated scf accuracy    <       0.00052442 Ry

     iteration #  3     ecut=    80.00 Ry     beta= 0.70
     Davidson diagonalization with overlap
     ethr =  7.49E-06,  avg # of iterations =  2.3

     total cpu time spent up to now is        1.7 secs

     total energy              =     -22.82209302 Ry
     estimated scf accuracy    <       0.00000558 Ry

     iteration #  4     ecut=    80.00 Ry     beta= 0.70
     Davidson diagonalization with overlap
     ethr =  7.97E-08,  avg # of iterations =  2.3

     total cpu time spent up to now is        2.0 secs

     total energy              =     -22.82209436 Ry
     estimated scf accuracy    <       0.00000039 Ry

     iteration #  5     ecut=    80.00 Ry     beta= 0.70
     Davidson diagonalization with overlap
     ethr =  5.56E-09,  avg # of iterations =  1.5

     total cpu time spent up to now is        2.2 secs

     End of self-consistent calculation

          k = 0.0000 0.0000 0.0000 (  1539 PWs)   bands (ev):

   -35.1558  -2.9389   6.7253  12.5173  19.1051  20.8931  20.8931  30.2986

          k = 0.0000 0.0000 0.0936 (  1543 PWs)   bands (ev):

   -35.1550  -2.8886   6.0426  13.7542  19.1954  21.0712  21.0713  29.0035

          k = 0.0000 0.0000 0.1873 (  1543 PWs)   bands (ev):

   -35.1532  -2.7675   4.9369  16.5146  19.4131  21.5695  21.5695  26.9284

          k = 0.0000 0.0000 0.2809 (  1547 PWs)   bands (ev):

   -35.1518  -2.6612   4.2453  19.6057  19.7339  22.1731  22.1731  25.4519

          k = 0.0000 0.0909 0.0000 (  1531 PWs)   bands (ev):

   -35.1460  -2.7362   6.9379  12.4532  16.8453  21.0813  22.9093  27.7795

          k = 0.0000 0.0909 0.0936 (  1539 PWs)   bands (ev):

   -35.1453  -2.6827   6.2255  13.6901  16.9894  21.2586  22.9937  26.2927

          k = 0.0000 0.0909 0.1873 (  1534 PWs)   bands (ev):

   -35.1435  -2.5537   5.0881  16.2473  17.5083  21.7535  23.2044  24.4698

          k = 0.0000 0.0909 0.2809 (  1536 PWs)   bands (ev):

   -35.1422  -2.4397   4.3802  17.3817  19.8692  22.3498  23.0154  23.5790

          k = 0.0000 0.1818 0.0000 (  1539 PWs)   bands (ev):

   -35.1198  -2.1311   7.5758  11.6571  14.7648  21.6456  23.9485  24.8757

          k = 0.0000 0.1818 0.0936 (  1544 PWs)   bands (ev):

   -35.1191  -2.0680   6.7577  12.5530  15.3043  21.8202  22.7889  24.8789

          k = 0.0000 0.1818 0.1873 (  1546 PWs)   bands (ev):

   -35.1175  -1.9148   5.5279  13.5951  17.2384  21.2533  22.3051  24.8584

          k = 0.0000 0.1818 0.2809 (  1531 PWs)   bands (ev):

   -35.1163  -1.7778   4.7756  14.0807  19.3352  20.9342  22.8800  24.8898

          k = 0.0000 0.2727 0.0000 (  1544 PWs)   bands (ev):

   -35.0852  -1.1325   8.6380   9.3441  14.4963  20.3919  22.5847  25.0086

          k = 0.0000 0.2727 0.0936 (  1548 PWs)   bands (ev):

   -35.0846  -1.0537   7.4929  10.0631  15.3676  19.6942  22.7549  25.8538

          k = 0.0000 0.2727 0.1873 (  1539 PWs)   bands (ev):

   -35.0833  -0.8597   6.1803  10.5816  16.7916  19.4479  23.2230  26.0042

          k = 0.0000 0.2727 0.2809 (  1531 PWs)   bands (ev):

   -35.0823  -0.6825   5.3930  10.8452  16.7263  21.6252  23.7644  25.9340

          k = 0.0000 0.3636 0.0000 (  1554 PWs)   bands (ev):

   -35.0533   0.2382   6.7312  10.1203  14.8550  17.2229  23.3846  23.8962

          k = 0.0000 0.3636 0.0936 (  1550 PWs)   bands (ev):

   -35.0528   0.3405   6.6656   9.4218  15.2366  17.6208  24.0601  24.3082

          k = 0.0000 0.3636 0.1873 (  1545 PWs)   bands (ev):

   -35.0518   0.5953   6.4234   8.4054  14.9096  19.8302  24.5051  26.1333

          k = 0.0000 0.3636 0.2809 (  1542 PWs)   bands (ev):

   -35.0509   0.8332   6.0849   7.9170  14.4970  22.7631  25.0024  26.7916

          k = 0.0000 0.4545 0.0000 (  1562 PWs)   bands (ev):

   -35.0343   1.8810   4.4225  11.9827  14.5123  15.1803  22.4665  25.5739

          k = 0.0000 0.4545 0.0936 (  1559 PWs)   bands (ev):

   -35.0339   2.0331   4.4492  10.6034  13.8550  17.3783  23.2135  25.7306

          k = 0.0000 0.4545 0.1873 (  1543 PWs)   bands (ev):

   -35.0329   2.4104   4.6010   8.5384  13.4003  20.5755  25.0877  26.1463

          k = 0.0000 0.4545 0.2809 (  1541 PWs)   bands (ev):

   -35.0322   2.7432   5.0306   6.9288  13.1340  23.8116  26.5865  26.9954

          k = 0.0909 0.0909 0.0000 (  1533 PWs)   bands (ev):

   -35.1364  -2.5335   7.1506  12.4639  15.8708  20.1913  24.6704  27.7084

          k = 0.0909 0.0909 0.0936 (  1542 PWs)   bands (ev):

   -35.1356  -2.4769   6.4095  13.7295  16.0096  20.3092  24.5271  26.5042

          k = 0.0909 0.0909 0.1873 (  1538 PWs)   bands (ev):

   -35.1340  -2.3400   5.2420  16.3680  16.4346  20.6469  23.5003  25.5539

          k = 0.0909 0.0909 0.2809 (  1539 PWs)   bands (ev):

   -35.1327  -2.2186   4.5183  16.7250  19.2075  21.3709  22.4518  23.9931

          k = 0.0909 0.1818 0.0000 (  1544 PWs)   bands (ev):

   -35.1104  -1.9281   7.7883  11.8484  14.2731  20.1174  24.1519  25.9624

          k = 0.0909 0.1818 0.0936 (  1544 PWs)   bands (ev):

   -35.1097  -1.8623   6.9459  12.7375  14.8412  20.1730  22.8868  26.0994

          k = 0.0909 0.1818 0.1873 (  1545 PWs)   bands (ev):

   -35.1082  -1.7019   5.6905  13.6580  16.8945  20.1927  21.4541  25.4278

          k = 0.0909 0.1818 0.2809 (  1530 PWs)   bands (ev):

   -35.1071  -1.5578   4.9237  14.1131  19.1202  19.6857  21.8163  24.2832

          k = 0.0909 0.2727 0.0000 (  1547 PWs)   bands (ev):

   -35.0762  -0.9291   8.8501   9.5358  14.2904  20.6016  20.6668  24.7064

          k = 0.0909 0.2727 0.0936 (  1547 PWs)   bands (ev):

   -35.0756  -0.8480   7.6938  10.2192  15.2460  19.4804  21.1445  25.4666

          k = 0.0909 0.2727 0.1873 (  1547 PWs)   bands (ev):

   -35.0744  -0.6479   6.3600  10.7199  16.9305  18.7713  21.5371  25.8705

          k = 0.0909 0.2727 0.2809 (  1532 PWs)   bands (ev):

   -35.0734  -0.4644   5.5583  10.9993  16.7943  20.1016  22.6591  25.2494

          k = 0.0909 0.3636 0.0000 (  1547 PWs)   bands (ev):

   -35.0447   0.4427   6.9217  10.3314  14.8516  17.4354  21.4549  23.3879

          k = 0.0909 0.3636 0.0936 (  1545 PWs)   bands (ev):

   -35.0442   0.5464   6.8661   9.5942  15.4027  17.5231  21.9127  24.0446

          k = 0.0909 0.3636 0.1873 (  1543 PWs)   bands (ev):

   -35.0431   0.8056   6.6321   8.5644  15.0475  19.4284  22.5224  25.6480

          k = 0.0909 0.3636 0.2809 (  1548 PWs)   bands (ev):

   -35.0423   1.0486   6.2766   8.1034  14.5596  21.3307  23.7640  26.4102

          k = 0.0909 0.4545 0.0000 (  1551 PWs)   bands (ev):

   -35.0259   2.0910   4.6095  12.1902  14.7291  15.3098  21.7018  23.4773

          k = 0.0909 0.4545 0.0936 (  1545 PWs)   bands (ev):

   -35.0254   2.2428   4.6419  10.7991  14.0396  17.4540  22.4964  23.6384

          k = 0.0909 0.4545 0.1873 (  1548 PWs)   bands (ev):

   -35.0245   2.6199   4.8048   8.7404  13.4991  20.4378  23.8230  24.7703

          k = 0.0909 0.4545 0.2809 (  1536 PWs)   bands (ev):

   -35.0238   2.9545   5.2380   7.1394  13.1802  22.6630  24.6282  26.0865

          k = 0.1818 0.1818 0.0000 (  1547 PWs)   bands (ev):

   -35.0852  -1.3221   8.4254  12.3404  12.6557  18.9077  24.5805  25.2460

          k = 0.1818 0.1818 0.0936 (  1544 PWs)   bands (ev):

   -35.0846  -1.2480   7.4975  12.8081  13.6466  18.9878  22.4017  24.3609

          k = 0.1818 0.1818 0.1873 (  1541 PWs)   bands (ev):

   -35.0832  -1.0659   6.1664  13.2092  15.8438  19.4938  20.2632  23.9099

          k = 0.1818 0.1818 0.2809 (  1534 PWs)   bands (ev):

   -35.0822  -0.9002   5.3594  13.6241  17.0462  18.9722  21.2123  23.2867

          k = 0.1818 0.2727 0.0000 (  1544 PWs)   bands (ev):

   -35.0520  -0.3219   9.4859  10.0622  13.3481  18.7492  21.2281  23.8802

          k = 0.1818 0.2727 0.0936 (  1543 PWs)   bands (ev):

   -35.0515  -0.2340   8.2912  10.5861  14.4246  18.5738  20.4071  23.8600

          k = 0.1818 0.2727 0.1873 (  1540 PWs)   bands (ev):

   -35.0503  -0.0154   6.8905  11.0297  16.1893  17.7232  20.3077  23.5879

          k = 0.1818 0.2727 0.2809 (  1537 PWs)   bands (ev):

   -35.0494   0.1876   6.0463  11.3711  16.8236  17.0197  21.8060  23.4953

          k = 0.1818 0.3636 0.0000 (  1543 PWs)   bands (ev):

   -35.0214   1.0527   7.4745  10.9642  14.4964  18.0712  19.0314  22.3765

          k = 0.1818 0.3636 0.0936 (  1542 PWs)   bands (ev):

   -35.0210   1.1609   7.4539  10.0842  15.5648  16.9546  19.9695  23.0913

          k = 0.1818 0.3636 0.1873 (  1538 PWs)   bands (ev):

   -35.0200   1.4332   7.2550   9.0084  15.4070  17.4430  21.2557  23.6465

          k = 0.1818 0.3636 0.2809 (  1539 PWs)   bands (ev):

   -35.0192   1.6920   6.8456   8.6411  14.7009  18.1302  22.7981  23.5744

          k = 0.1818 0.4545 0.0000 (  1548 PWs)   bands (ev):

   -35.0031   2.7156   5.1638  12.8114  15.3789  15.5144  19.4268  20.8967

          k = 0.1818 0.4545 0.0936 (  1543 PWs)   bands (ev):

   -35.0028   2.8665   5.2136  11.3740  14.5650  17.3026  20.2286  21.3462

          k = 0.1818 0.4545 0.1873 (  1537 PWs)   bands (ev):

   -35.0019   3.2438   5.4106   9.3386  13.7594  19.0272  21.4065  22.7050

          k = 0.1818 0.4545 0.2809 (  1540 PWs)   bands (ev):

   -35.0012   3.5847   5.8533   7.7681  13.2967  19.7299  21.7062  23.9372

          k = 0.2727 0.2727 0.0000 (  1539 PWs)   bands (ev):

   -35.0202   0.6799  10.2211  10.5435  12.1190  18.1999  22.1855  22.3476

          k = 0.2727 0.2727 0.0936 (  1534 PWs)   bands (ev):

   -35.0197   0.7792   9.2328  10.3820  13.3815  18.4955  19.8146  22.0468

          k = 0.2727 0.2727 0.1873 (  1546 PWs)   bands (ev):

   -35.0187   1.0287   7.7242  10.8103  14.4772  17.6187  19.5291  22.2852

          k = 0.2727 0.2727 0.2809 (  1544 PWs)   bands (ev):

   -35.0179   1.2654   6.8239  11.2655  14.7983  16.2740  20.5158  22.8962

          k = 0.2727 0.3636 0.0000 (  1541 PWs)   bands (ev):

   -34.9908   2.0569   8.2783  12.0157  13.0289  18.2746  19.1238  20.2414

          k = 0.2727 0.3636 0.0936 (  1535 PWs)   bands (ev):

   -34.9904   2.1728   8.3388  10.7227  14.0901  17.3352  19.5073  20.5931

          k = 0.2727 0.3636 0.1873 (  1538 PWs)   bands (ev):

   -34.9895   2.4678   8.2752   9.5589  14.7421  15.9172  19.8780  21.7629

          k = 0.2727 0.3636 0.2809 (  1547 PWs)   bands (ev):

   -34.9888   2.7543   7.7681   9.4096  14.7008  15.1555  20.2170  21.1607

          k = 0.2727 0.4545 0.0000 (  1541 PWs)   bands (ev):

   -34.9733   3.7363   6.0546  13.8419  14.6758  16.4576  17.3936  18.7825

          k = 0.2727 0.4545 0.0936 (  1540 PWs)   bands (ev):

   -34.9729   3.8864   6.1347  12.2447  15.2174  15.6677  18.1747  19.9930

          k = 0.2727 0.4545 0.1873 (  1536 PWs)   bands (ev):

   -34.9721   4.2662   6.3920  10.2954  14.0408  16.3386  18.4034  21.4615

          k = 0.2727 0.4545 0.2809 (  1538 PWs)   bands (ev):

   -34.9715   4.6216   6.8480   8.8022  13.4242  16.6047  18.5880  20.7110

          k = 0.3636 0.3636 0.0000 (  1533 PWs)   bands (ev):

   -34.9626   3.4319   8.5952  11.7122  13.4758  17.3824  18.7176  20.5736

          k = 0.3636 0.3636 0.0936 (  1540 PWs)   bands (ev):

   -34.9622   3.5593   8.7614  11.0550  13.4277  17.2826  18.0588  19.7375

          k = 0.3636 0.3636 0.1873 (  1548 PWs)   bands (ev):

   -34.9614   3.8883   9.2077   9.8390  13.2970  15.8373  17.3162  19.9171

          k = 0.3636 0.3636 0.2809 (  1545 PWs)   bands (ev):

   -34.9608   4.2167   8.9631   9.6913  13.1621  14.4605  17.8633  18.8432

          k = 0.3636 0.4545 0.0000 (  1540 PWs)   bands (ev):

   -34.9458   5.1084   7.1561  12.5474  14.9565  15.2680  17.9460  19.1361

          k = 0.3636 0.4545 0.0936 (  1545 PWs)   bands (ev):

   -34.9454   5.2591   7.2826  12.3523  14.3968  14.7745  16.9324  20.0351

          k = 0.3636 0.4545 0.1873 (  1543 PWs)   bands (ev):

   -34.9447   5.6485   7.6375  11.3742  13.5922  14.5225  15.7116  19.0187

          k = 0.3636 0.4545 0.2809 (  1541 PWs)   bands (ev):

   -34.9441   6.0334   8.1099  10.1939  13.3930  13.9593  15.7520  17.7156

          k = 0.4545 0.4545 0.0000 (  1540 PWs)   bands (ev):

   -34.9293   6.6891   7.7821  11.0311  12.9330  16.9974  19.7313  19.9707

          k = 0.4545 0.4545 0.0936 (  1550 PWs)   bands (ev):

   -34.9290   6.8470   7.9510  11.1650  12.8219  15.6749  17.1767  18.5469

          k = 0.4545 0.4545 0.1873 (  1547 PWs)   bands (ev):

   -34.9283   7.2652   8.4063  11.4228  12.7795  13.8156  14.9441  16.8592

          k = 0.4545 0.4545 0.2809 (  1557 PWs)   bands (ev):

   -34.9277   7.7045   8.9047  11.5885  12.3036  13.4843  13.5512  15.3510

     the Fermi energy is    10.7653 ev

!    total energy              =     -22.82209441 Ry
     estimated scf accuracy    <          1.5E-09 Ry
     smearing contrib. (-TS)   =      -0.00020414 Ry
     internal energy E=F+TS    =     -22.82189027 Ry

     The total energy is F=E-TS. E is the sum of the following terms:
     one-electron contribution =      -1.01094733 Ry
     hartree contribution      =       2.88372869 Ry
     xc contribution           =      -6.82282530 Ry
     ewald contribution        =     -17.87184633 Ry

     convergence has been achieved in   5 iterations

     Forces acting on atoms (cartesian axes, Ry/au):

     atom    1 type  1   force =     0.00000000    0.00000000    0.00000000
     atom    2 type  2   force =     0.00000000    0.00000000    0.00000000
     The non-local contrib.  to forces
     atom    1 type  1   force =     0.00000000    0.00000000    0.00000000
     atom    2 type  2   force =     0.00000000    0.00000000    0.00000000
     The ionic contribution  to forces
     atom    1 type  1   force =    -0.00000000   -0.00000000    0.00000000
     atom    2 type  2   force =     0.00000000    0.00000000   -0.00000000
     The local contribution  to forces
     atom    1 type  1   force =     0.00000000    0.00000000    0.00000000
     atom    2 type  2   force =    -0.00000000   -0.00000000    0.00000000
     The core correction contribution to forces
     atom    1 type  1   force =     0.00000000    0.00000000    0.00000000
     atom    2 type  2   force =    -0.00000000   -0.00000000    0.00000000
     The Hubbard contrib.    to forces
     atom    1 type  1   force =     0.00000000    0.00000000    0.00000000
     atom    2 type  2   force =     0.00000000    0.00000000    0.00000000
     The SCF correction term to forces
     atom    1 type  1   force =     0.00000000    0.00000000    0.00000000
     atom    2 type  2   force =    -0.00000000    0.00000000   -0.00000000

     Total force =     0.000000     Total SCF correction =     0.000000


     Computing stress (Cartesian axis) and pressure

          total   stress  (Ry/bohr**3)                   (kbar)     P=      499.03
   0.00350027   0.00000000   0.00000000          514.91        0.00        0.00
   0.00000000   0.00350027   0.00000000            0.00      514.91        0.00
   0.00000000   0.00000000   0.00317649            0.00        0.00      467.28


     BFGS Geometry Optimization
     Energy error            =      0.0E+00 Ry
     Gradient error          =      0.0E+00 Ry/Bohr
     Cell gradient error     =      3.3E+01 kbar

     number of scf cycles    =   1
     number of bfgs steps    =   0

     enthalpy           new  =     -22.3883910493 Ry

     new trust radius        =       0.0125635997 bohr
ibrav =      6
 celldm(1) =      4.38412016
 celldm(3) =      1.51348779
Input lattice vectors:
     1.00253340     0.00000000     0.00000000
     0.00000000     1.00253340     0.00000000
     0.00000000     0.00000000     1.51732206
New lattice vectors in INITIAL alat:
     1.00253340     0.00000000     0.00000000
     0.00000000     1.00253340     0.00000000
     0.00000000     0.00000000     1.51732206
New lattice vectors in NEW alat (for information only):
     1.00000000     0.00000000     0.00000000
     0.00000000     1.00000000     0.00000000
     0.00000000     0.00000000     1.51348779
Discrepancy in bohr =     0.000000    0.000000    0.000000
     new conv_thr            =       0.0000000100 Ry

     new unit-cell volume =    127.53408 a.u.^3 (    18.89860 Ang^3 )
     density =      3.07763 g/cm^3

CELL_PARAMETERS (alat=  4.37304149)
   1.002533400   0.000000000   0.000000000
   0.000000000   1.002533400   0.000000000
   0.000000000   0.000000000   1.517322059

ATOMIC_POSITIONS (crystal)
Li            0.0000000000        0.0000000000        0.5000000000
Si            0.5000000000        0.5000000000        0.0000000000



     Writing config-only to output data dir ./output/LiSi.save/
     NEW-OLD atomic charge density approx. for the potential
     extrapolated charge    6.99639, renormalised to    7.00000

     total cpu time spent up to now is        2.8 secs

     Self-consistent Calculation

     iteration #  1     ecut=    80.00 Ry     beta= 0.70
     Davidson diagonalization with overlap
     ethr =  1.00E-06,  avg # of iterations =  3.9

     Threshold (ethr) on eigenvalues was too large:
     Diagonalizing with lowered threshold

     Davidson diagonalization with overlap
     ethr =  8.88E-09,  avg # of iterations =  2.3

     total cpu time spent up to now is        3.5 secs

     total energy              =     -22.82205064 Ry
     estimated scf accuracy    <       0.00000063 Ry

     iteration #  2     ecut=    80.00 Ry     beta= 0.70
     Davidson diagonalization with overlap
     ethr =  9.03E-09,  avg # of iterations =  2.0

     total cpu time spent up to now is        3.9 secs

     total energy              =     -22.82205086 Ry
     estimated scf accuracy    <       0.00000003 Ry

     iteration #  3     ecut=    80.00 Ry     beta= 0.70
     Davidson diagonalization with overlap
     ethr =  4.92E-10,  avg # of iterations =  1.0

     total cpu time spent up to now is        4.2 secs

     End of self-consistent calculation

          k = 0.0000 0.0000 0.0000 (  1539 PWs)   bands (ev):

   -35.1425  -2.9034   6.8308  12.5886  19.0617  20.7703  20.7703  30.2692

          k = 0.0000 0.0000 0.0942 (  1543 PWs)   bands (ev):

   -35.1416  -2.8501   6.1210  13.8575  19.1557  20.9518  20.9518  28.9472

          k = 0.0000 0.0000 0.1883 (  1543 PWs)   bands (ev):

   -35.1398  -2.7215   4.9793  16.6700  19.3833  21.4606  21.4606  26.8434

          k = 0.0000 0.0000 0.2825 (  1547 PWs)   bands (ev):

   -35.1382  -2.6079   4.2665  19.5855  19.9411  22.0816  22.0817  25.4035

          k = 0.0000 0.0907 0.0000 (  1531 PWs)   bands (ev):

   -35.1329  -2.7023   7.0423  12.5166  16.7911  20.9580  22.8229  27.7668

          k = 0.0000 0.0907 0.0942 (  1539 PWs)   bands (ev):

   -35.1321  -2.6457   6.3020  13.7819  16.9431  21.1387  22.9113  26.2563

          k = 0.0000 0.0907 0.1883 (  1534 PWs)   bands (ev):

   -35.1303  -2.5089   5.1287  16.3308  17.5312  21.6442  23.1328  24.4093

          k = 0.0000 0.0907 0.2825 (  1536 PWs)   bands (ev):

   -35.1288  -2.3876   4.3996  17.3547  20.0542  22.2579  22.9638  23.5305

          k = 0.0000 0.1814 0.0000 (  1539 PWs)   bands (ev):

   -35.1071  -2.1019   7.6766  11.6670  14.7772  21.5208  23.9581  24.8177

          k = 0.0000 0.1814 0.0942 (  1544 PWs)   bands (ev):

   -35.1063  -2.0356   6.8278  12.5589  15.3584  21.6989  22.7760  24.8223

          k = 0.0000 0.1814 0.1883 (  1546 PWs)   bands (ev):

   -35.1047  -1.8742   5.5629  13.5734  17.3687  21.2218  22.1945  24.8114

          k = 0.0000 0.1814 0.2825 (  1531 PWs)   bands (ev):

   -35.1034  -1.7291   4.7897  14.0593  19.3494  21.0582  22.7866  24.8686

          k = 0.0000 0.2720 0.0000 (  1544 PWs)   bands (ev):

   -35.0731  -1.1113   8.7327   9.3220  14.5615  20.4219  22.4575  25.0591

          k = 0.0000 0.2720 0.0942 (  1548 PWs)   bands (ev):

   -35.0725  -1.0290   7.5416  10.0608  15.4612  19.7051  22.6312  25.8837

          k = 0.0000 0.2720 0.1883 (  1539 PWs)   bands (ev):

   -35.0712  -0.8259   6.2035  10.5709  16.8538  19.5122  23.1102  25.9799

          k = 0.0000 0.2720 0.2825 (  1531 PWs)   bands (ev):

   -35.0701  -0.6395   5.3980  10.8361  16.7094  21.7900  23.6682  25.9401

          k = 0.0000 0.3627 0.0000 (  1554 PWs)   bands (ev):

   -35.0418   0.2476   6.7174  10.2064  14.9360  17.2712  23.4383  23.7656

          k = 0.0000 0.3627 0.0942 (  1550 PWs)   bands (ev):

   -35.0413   0.3538   6.6552   9.4798  15.3114  17.6831  23.9330  24.3890

          k = 0.0000 0.3627 0.1883 (  1545 PWs)   bands (ev):

   -35.0402   0.6192   6.4184   8.4266  14.9332  19.9545  24.3889  26.2277

          k = 0.0000 0.3627 0.2825 (  1542 PWs)   bands (ev):

   -35.0392   0.8686   6.0762   7.9223  14.4947  22.9183  24.9021  26.8411

          k = 0.0000 0.4534 0.0000 (  1562 PWs)   bands (ev):

   -35.0231   1.8690   4.4309  12.0567  14.5774  15.2685  22.5208  25.4397

          k = 0.0000 0.4534 0.0942 (  1559 PWs)   bands (ev):

   -35.0227   2.0263   4.4568  10.6516  13.9115  17.4857  23.2937  25.5996

          k = 0.0000 0.4534 0.1883 (  1543 PWs)   bands (ev):

   -35.0217   2.4192   4.6058   8.5556  13.4303  20.7110  25.2211  26.0250

          k = 0.0000 0.4534 0.2825 (  1541 PWs)   bands (ev):

   -35.0209   2.7696   5.0393   6.9162  13.1465  23.9452  26.4778  27.1479

          k = 0.0907 0.0907 0.0000 (  1533 PWs)   bands (ev):

   -35.1234  -2.5012   7.2537  12.5247  15.8100  20.1057  24.5741  27.6913

          k = 0.0907 0.0907 0.0942 (  1542 PWs)   bands (ev):

   -35.1226  -2.4414   6.4843  13.8201  15.9531  20.2308  24.4458  26.4520

          k = 0.0907 0.0907 0.1883 (  1538 PWs)   bands (ev):

   -35.1209  -2.2966   5.2809  16.3238  16.5589  20.5964  23.4318  25.4937

          k = 0.0907 0.0907 0.2825 (  1539 PWs)   bands (ev):

   -35.1195  -2.1677   4.5361  16.6960  19.2751  21.4359  22.3624  24.0166

          k = 0.0907 0.1814 0.0000 (  1544 PWs)   bands (ev):

   -35.0979  -1.9004   7.8878  11.8598  14.2678  20.0464  24.1599  25.9490

          k = 0.0907 0.1814 0.0942 (  1544 PWs)   bands (ev):

   -35.0972  -1.8314   7.0145  12.7383  14.8808  20.1101  22.8745  26.0601

          k = 0.0907 0.1814 0.1883 (  1545 PWs)   bands (ev):

   -35.0956  -1.6626   5.7240  13.6314  16.9947  20.1468  21.4327  25.3646

          k = 0.0907 0.1814 0.2825 (  1530 PWs)   bands (ev):

   -35.0943  -1.5102   4.9364  14.0915  19.1462  19.6269  21.9245  24.2774

          k = 0.0907 0.2720 0.0000 (  1547 PWs)   bands (ev):

   -35.0643  -0.9093   8.9436   9.5119  14.3424  20.5923  20.6304  24.7550

          k = 0.0907 0.2720 0.0942 (  1547 PWs)   bands (ev):

   -35.0637  -0.8247   7.7418  10.2134  15.3274  19.4634  21.1025  25.5103

          k = 0.0907 0.2720 0.1883 (  1547 PWs)   bands (ev):

   -35.0624  -0.6154   6.3823  10.7069  16.9944  18.7712  21.5313  25.8277

          k = 0.0907 0.2720 0.2825 (  1532 PWs)   bands (ev):

   -35.0613  -0.4224   5.5621  10.9894  16.7703  20.0944  22.7848  25.2082

          k = 0.0907 0.3627 0.0000 (  1547 PWs)   bands (ev):

   -35.0333   0.4509   6.9061  10.4163  14.9234  17.4825  21.3820  23.4259

          k = 0.0907 0.3627 0.0942 (  1545 PWs)   bands (ev):

   -35.0328   0.5585   6.8542   9.6502  15.4772  17.5657  21.8451  24.1128

          k = 0.0907 0.3627 0.1883 (  1543 PWs)   bands (ev):

   -35.0317   0.8283   6.6262   8.5837  15.0662  19.5036  22.5015  25.7026

          k = 0.0907 0.3627 0.2825 (  1548 PWs)   bands (ev):

   -35.0308   1.0830   6.2670   8.1077  14.5522  21.3206  23.8797  26.3356

          k = 0.0907 0.4534 0.0000 (  1551 PWs)   bands (ev):

   -35.0148   2.0782   4.6159  12.2630  14.7931  15.3932  21.7056  23.4022

          k = 0.0907 0.4534 0.0942 (  1545 PWs)   bands (ev):

   -35.0144   2.2351   4.6477  10.8458  14.0934  17.5529  22.5060  23.5915

          k = 0.0907 0.4534 0.1883 (  1548 PWs)   bands (ev):

   -35.0134   2.6278   4.8084   8.7563  13.5248  20.5409  23.7708  24.8675

          k = 0.0907 0.4534 0.2825 (  1536 PWs)   bands (ev):

   -35.0126   2.9799   5.2458   7.1256  13.1884  22.6684  24.6441  26.1365

          k = 0.1814 0.1814 0.0000 (  1547 PWs)   bands (ev):

   -35.0731  -1.2989   8.5213  12.3724  12.6035  18.8885  24.5781  25.2828

          k = 0.1814 0.1814 0.0942 (  1544 PWs)   bands (ev):

   -35.0725  -1.2214   7.5611  12.7601  13.7000  18.9849  22.3925  24.3432

          k = 0.1814 0.1814 0.1883 (  1541 PWs)   bands (ev):

   -35.0710  -1.0305   6.1953  13.1734  15.8745  19.5560  20.2210  23.8806

          k = 0.1814 0.1814 0.2825 (  1534 PWs)   bands (ev):

   -35.0699  -0.8560   5.3675  13.6042  17.0170  18.9035  21.3123  23.3560

          k = 0.1814 0.2720 0.0000 (  1544 PWs)   bands (ev):

   -35.0405  -0.3063   9.5758  10.0315  13.3610  18.7444  21.2533  23.9287

          k = 0.1814 0.2720 0.0942 (  1543 PWs)   bands (ev):

   -35.0400  -0.2148   8.3374  10.5669  14.4568  18.5809  20.4210  23.8651

          k = 0.1814 0.2720 0.1883 (  1540 PWs)   bands (ev):

   -35.0388   0.0132   6.9098  11.0093  16.1915  17.7124  20.3792  23.5615

          k = 0.1814 0.2720 0.2825 (  1537 PWs)   bands (ev):

   -35.0378   0.2263   6.0463  11.3594  16.7748  16.9910  21.8524  23.5704

          k = 0.1814 0.3627 0.0000 (  1543 PWs)   bands (ev):

   -35.0105   1.0572   7.4538  11.0454  14.5249  18.1149  19.0155  22.3831

          k = 0.1814 0.3627 0.0942 (  1542 PWs)   bands (ev):

   -35.0100   1.1693   7.4373  10.1334  15.6154  16.9472  19.9947  23.1179

          k = 0.1814 0.3627 0.1883 (  1538 PWs)   bands (ev):

   -35.0090   1.4524   7.2467   9.0218  15.4092  17.4248  21.3466  23.6161

          k = 0.1814 0.3627 0.2825 (  1539 PWs)   bands (ev):

   -35.0081   1.7232   6.8331   8.6424  14.6794  18.0917  22.8120  23.5550

          k = 0.1814 0.4534 0.0000 (  1548 PWs)   bands (ev):

   -34.9925   2.7004   5.1642  12.8804  15.4396  15.5696  19.3906  20.8274

          k = 0.1814 0.4534 0.0942 (  1543 PWs)   bands (ev):

   -34.9921   2.8563   5.2140  11.4160  14.6095  17.3419  20.2222  21.2910

          k = 0.1814 0.4534 0.1883 (  1537 PWs)   bands (ev):

   -34.9912   3.2488   5.4103   9.3506  13.7724  19.0046  21.3927  22.7314

          k = 0.1814 0.4534 0.2825 (  1540 PWs)   bands (ev):

   -34.9904   3.6071   5.8585   7.7508  13.2927  19.6868  21.6684  23.8704

          k = 0.2720 0.2720 0.0000 (  1539 PWs)   bands (ev):

   -35.0093   0.6885  10.1769  10.6273  12.1141  18.2400  22.1958  22.3769

          k = 0.2720 0.2720 0.0942 (  1534 PWs)   bands (ev):

   -35.0088   0.7914   9.2748  10.3418  13.3924  18.5594  19.8212  22.0304

          k = 0.2720 0.2720 0.1883 (  1546 PWs)   bands (ev):

   -35.0077   1.0510   7.7373  10.7823  14.4603  17.5919  19.6017  22.3030

          k = 0.2720 0.2720 0.2825 (  1544 PWs)   bands (ev):

   -35.0068   1.2987   6.8172  11.2540  14.7676  16.2200  20.5026  22.9420

          k = 0.2720 0.3627 0.0000 (  1541 PWs)   bands (ev):

   -34.9804   2.0553   8.2484  12.0908  13.0064  18.3277  19.1617  20.1638

          k = 0.2720 0.3627 0.0942 (  1535 PWs)   bands (ev):

   -34.9800   2.1750   8.3134  10.7540  14.0797  17.3610  19.5747  20.5193

          k = 0.2720 0.3627 0.1883 (  1538 PWs)   bands (ev):

   -34.9791   2.4810   8.2627   9.5605  14.7079  15.9118  19.8578  21.7600

          k = 0.2720 0.3627 0.2825 (  1547 PWs)   bands (ev):

   -34.9783   2.7803   7.7506   9.4065  14.6595  15.1277  20.1618  21.1257

          k = 0.2720 0.4534 0.0000 (  1541 PWs)   bands (ev):

   -34.9632   3.7170   6.0446  13.9045  14.6450  16.5129  17.3690  18.7889

          k = 0.2720 0.4534 0.0942 (  1540 PWs)   bands (ev):

   -34.9628   3.8720   6.1258  12.2740  15.2255  15.6433  18.1475  20.0558

          k = 0.2720 0.4534 0.1883 (  1536 PWs)   bands (ev):

   -34.9620   4.2664   6.3855  10.3000  14.0323  16.2964  18.3620  21.4504

          k = 0.2720 0.4534 0.2825 (  1538 PWs)   bands (ev):

   -34.9613   4.6391   6.8494   8.7788  13.4032  16.5688  18.5435  20.6333

          k = 0.3627 0.3627 0.0000 (  1533 PWs)   bands (ev):

   -34.9527   3.4212   8.5565  11.6808  13.5420  17.3260  18.7791  20.5934

          k = 0.3627 0.3627 0.0942 (  1540 PWs)   bands (ev):

   -34.9523   3.5527   8.7267  11.0463  13.4448  17.2304  18.0753  19.8125

          k = 0.3627 0.3627 0.1883 (  1548 PWs)   bands (ev):

   -34.9515   3.8932   9.1850   9.8294  13.2814  15.8207  17.2581  19.8993

          k = 0.3627 0.3627 0.2825 (  1545 PWs)   bands (ev):

   -34.9508   4.2356   8.9379   9.6855  13.1389  14.4163  17.8064  18.7988

          k = 0.3627 0.4534 0.0000 (  1540 PWs)   bands (ev):

   -34.9362   5.0837   7.1313  12.4914  14.9223  15.3212  17.9937  19.2045

          k = 0.3627 0.4534 0.0942 (  1545 PWs)   bands (ev):

   -34.9358   5.2390   7.2606  12.3153  14.4075  14.7397  16.9597  20.0711

          k = 0.3627 0.4534 0.1883 (  1543 PWs)   bands (ev):

   -34.9350   5.6420   7.6230  11.3596  13.5677  14.4832  15.6934  18.9880

          k = 0.3627 0.4534 0.2825 (  1541 PWs)   bands (ev):

   -34.9344   6.0440   8.1077  10.1611  13.3581  13.9362  15.7091  17.6494

          k = 0.4534 0.4534 0.0000 (  1540 PWs)   bands (ev):

   -34.9200   6.6573   7.7462  10.9577  12.9328  17.0362  19.7085  19.7618

          k = 0.4534 0.4534 0.0942 (  1550 PWs)   bands (ev):

   -34.9197   6.8195   7.9190  11.0986  12.8130  15.6960  17.1982  18.5550

          k = 0.4534 0.4534 0.1883 (  1547 PWs)   bands (ev):

   -34.9189   7.2506   8.3863  11.3780  12.7516  13.8043  14.9325  16.8333

          k = 0.4534 0.4534 0.2825 (  1557 PWs)   bands (ev):

   -34.9183   7.7071   8.9018  11.5488  12.2903  13.4394  13.5118  15.2948

     the Fermi energy is    10.7753 ev

!    total energy              =     -22.82205086 Ry
     estimated scf accuracy    <          2.4E-09 Ry
     smearing contrib. (-TS)   =      -0.00023261 Ry
     internal energy E=F+TS    =     -22.82181825 Ry

     The total energy is F=E-TS. E is the sum of the following terms:
     one-electron contribution =      -1.00740874 Ry
     hartree contribution      =       2.88461684 Ry
     xc contribution           =      -6.82205228 Ry
     ewald contribution        =     -17.87697408 Ry

     convergence has been achieved in   3 iterations

     Forces acting on atoms (cartesian axes, Ry/au):

     atom    1 type  1   force =     0.00000000    0.00000000    0.00000000
     atom    2 type  2   force =     0.00000000    0.00000000    0.00000000
     The non-local contrib.  to forces
     atom    1 type  1   force =     0.00000000    0.00000000    0.00000000
     atom    2 type  2   force =     0.00000000    0.00000000    0.00000000
     The ionic contribution  to forces
     atom    1 type  1   force =    -0.00000000   -0.00000000    0.00000000
     atom    2 type  2   force =     0.00000000   -0.00000000   -0.00000000
     The local contribution  to forces
     atom    1 type  1   force =     0.00000000    0.00000000    0.00000000
     atom    2 type  2   force =    -0.00000000   -0.00000000   -0.00000000
     The core correction contribution to forces
     atom    1 type  1   force =     0.00000000    0.00000000    0.00000000
     atom    2 type  2   force =    -0.00000000   -0.00000000   -0.00000000
     The Hubbard contrib.    to forces
     atom    1 type  1   force =     0.00000000    0.00000000    0.00000000
     atom    2 type  2   force =     0.00000000    0.00000000    0.00000000
     The SCF correction term to forces
     atom    1 type  1   force =    -0.00000000   -0.00000000   -0.00000000
     atom    2 type  2   force =    -0.00000000   -0.00000000    0.00000000

     Total force =     0.000000     Total SCF correction =     0.000000


     Computing stress (Cartesian axis) and pressure

          total   stress  (Ry/bohr**3)                   (kbar)     P=      497.29
   0.00344682   0.00000000   0.00000000          507.05        0.00        0.00
   0.00000000   0.00344682   0.00000000            0.00      507.05        0.00
   0.00000000   0.00000000   0.00324790            0.00        0.00      477.78

     Energy error            =      1.8E-04 Ry
     Gradient error          =      0.0E+00 Ry/Bohr
     Cell gradient error     =      2.2E+01 kbar

     number of scf cycles    =   2
     number of bfgs steps    =   1

     enthalpy           old  =     -22.3883910493 Ry
     enthalpy           new  =     -22.3885713223 Ry

     CASE: enthalpy          _new < enthalpy          _old

     new trust radius        =       0.0138936569 bohr
ibrav =      6
 celldm(1) =      4.39266451
 celldm(3) =      1.50125189
Input lattice vectors:
     1.00448727     0.00000000     0.00000000
     0.00000000     1.00448727     0.00000000
     0.00000000     0.00000000     1.50798842
New lattice vectors in INITIAL alat:
     1.00448727     0.00000000     0.00000000
     0.00000000     1.00448727     0.00000000
     0.00000000     0.00000000     1.50798842
New lattice vectors in NEW alat (for information only):
     1.00000000     0.00000000     0.00000000
     0.00000000     1.00000000     0.00000000
     0.00000000     0.00000000     1.50125189
Discrepancy in bohr =     0.000000    0.000000    0.000000
     new conv_thr            =            1.0E-10 Ry

     new unit-cell volume =    127.24411 a.u.^3 (    18.85563 Ang^3 )
     density =      3.08464 g/cm^3

CELL_PARAMETERS (alat=  4.37304149)
   1.004487269   0.000000000   0.000000000
   0.000000000   1.004487269   0.000000000
   0.000000000   0.000000000   1.507988415

ATOMIC_POSITIONS (crystal)
Li            0.0000000000        0.0000000000        0.5000000000
Si            0.5000000000        0.5000000000        0.0000000000



     Writing config-only to output data dir ./output/LiSi.save/
     NEW-OLD atomic charge density approx. for the potential
     extrapolated charge    6.98406, renormalised to    7.00000

     total cpu time spent up to now is        4.7 secs

     Self-consistent Calculation

     iteration #  1     ecut=    80.00 Ry     beta= 0.70
     Davidson diagonalization with overlap
     ethr =  1.00E-06,  avg # of iterations =  3.8

     Threshold (ethr) on eigenvalues was too large:
     Diagonalizing with lowered threshold

     Davidson diagonalization with overlap
     ethr =  2.31E-08,  avg # of iterations =  2.2

     total cpu time spent up to now is        5.5 secs

     total energy              =     -22.82116492 Ry
     estimated scf accuracy    <       0.00000167 Ry

     iteration #  2     ecut=    80.00 Ry     beta= 0.70
     Davidson diagonalization with overlap
     ethr =  2.38E-08,  avg # of iterations =  2.0

     total cpu time spent up to now is        5.8 secs

     total energy              =     -22.82116828 Ry
     estimated scf accuracy    <       0.00000054 Ry

     iteration #  3     ecut=    80.00 Ry     beta= 0.70
     Davidson diagonalization with overlap
     ethr =  7.70E-09,  avg # of iterations =  1.0

     total cpu time spent up to now is        6.1 secs

     total energy              =     -22.82116825 Ry
     estimated scf accuracy    <       0.00000010 Ry

     iteration #  4     ecut=    80.00 Ry     beta= 0.70
     Davidson diagonalization with overlap
     ethr =  1.43E-09,  avg # of iterations =  1.6

     total cpu time spent up to now is        6.4 secs

     total energy              =     -22.82116826 Ry
     estimated scf accuracy    <          8.3E-09 Ry

     iteration #  5     ecut=    80.00 Ry     beta= 0.70
     Davidson diagonalization with overlap
     ethr =  1.18E-10,  avg # of iterations =  2.0

     total cpu time spent up to now is        6.8 secs

     total energy              =     -22.82116826 Ry
     estimated scf accuracy    <          6.0E-10 Ry

     iteration #  6     ecut=    80.00 Ry     beta= 0.70
     Davidson diagonalization with overlap
     ethr =  8.60E-12,  avg # of iterations =  1.3

     total cpu time spent up to now is        7.2 secs

     End of self-consistent calculation

          k = 0.0000 0.0000 0.0000 (  1539 PWs)   bands (ev):

   -35.1097  -2.8575   6.9553  12.6829  19.0434  20.6853  20.6853  30.2945

          k = 0.0000 0.0000 0.0947 (  1543 PWs)   bands (ev):

   -35.1088  -2.8011   6.2172  13.9858  19.1415  20.8706  20.8706  28.9337

          k = 0.0000 0.0000 0.1895 (  1543 PWs)   bands (ev):

   -35.1068  -2.6649   5.0383  16.8533  19.3795  21.3912  21.3912  26.7983

          k = 0.0000 0.0000 0.2842 (  1547 PWs)   bands (ev):

   -35.1052  -2.5441   4.3037  19.5919  20.1785  22.0322  22.0322  25.3280

          k = 0.0000 0.0905 0.0000 (  1531 PWs)   bands (ev):

   -35.1002  -2.6578   7.1658  12.6021  16.7648  20.8727  22.7730  27.7956

          k = 0.0000 0.0905 0.0947 (  1539 PWs)   bands (ev):

   -35.0993  -2.5981   6.3965  13.8970  16.9258  21.0571  22.8657  26.2597

          k = 0.0000 0.0905 0.1895 (  1534 PWs)   bands (ev):

   -35.0974  -2.4536   5.1860  16.4260  17.5980  21.5745  23.0987  24.3852

          k = 0.0000 0.0905 0.2842 (  1536 PWs)   bands (ev):

   -35.0959  -2.3247   4.4351  17.3559  20.2669  22.2080  22.9399  23.5237

          k = 0.0000 0.1810 0.0000 (  1539 PWs)   bands (ev):

   -35.0747  -2.0615   7.7972  11.6956  14.8198  21.4345  24.0048  24.7986

          k = 0.0000 0.1810 0.0947 (  1544 PWs)   bands (ev):

   -35.0739  -1.9920   6.9162  12.5846  15.4439  21.6163  22.7983  24.8055

          k = 0.0000 0.1810 0.1895 (  1546 PWs)   bands (ev):

   -35.0722  -1.8222   5.6146  13.5767  17.5275  21.2234  22.1239  24.8050

          k = 0.0000 0.1810 0.2842 (  1531 PWs)   bands (ev):

   -35.0708  -1.6689   4.8199  14.0654  19.3797  21.2221  22.7357  24.8895

          k = 0.0000 0.2715 0.0000 (  1544 PWs)   bands (ev):

   -35.0412  -1.0780   8.8485   9.3191  14.6545  20.4850  22.3695  25.1489

          k = 0.0000 0.2715 0.0947 (  1548 PWs)   bands (ev):

   -35.0405  -0.9922   7.6075  10.0818  15.5824  19.7482  22.5470  25.9458

          k = 0.0000 0.2715 0.1895 (  1539 PWs)   bands (ev):

   -35.0391  -0.7797   6.2434  10.5845  16.9377  19.6135  23.0382  25.9968

          k = 0.0000 0.2715 0.2842 (  1531 PWs)   bands (ev):

   -35.0379  -0.5837   5.4190  10.8520  16.7170  21.9854  23.6152  25.9861

          k = 0.0000 0.3620 0.0000 (  1554 PWs)   bands (ev):

   -35.0103   0.2703   6.7215  10.3154  15.0443  17.3488  23.5298  23.6753

          k = 0.0000 0.3620 0.0947 (  1550 PWs)   bands (ev):

   -35.0097   0.3805   6.6621   9.5608  15.4107  17.7777  23.8466  24.5091

          k = 0.0000 0.3620 0.1895 (  1545 PWs)   bands (ev):

   -35.0085   0.6569   6.4297   8.4709  14.9802  20.1128  24.3147  26.3580

          k = 0.0000 0.3620 0.2842 (  1542 PWs)   bands (ev):

   -35.0075   0.9183   6.0835   7.9502  14.5160  23.1051  24.8459  26.9277

          k = 0.0000 0.4525 0.0000 (  1562 PWs)   bands (ev):

   -34.9918   1.8720   4.4553  12.1566  14.6680  15.3842  22.6123  25.3467

          k = 0.0000 0.4525 0.0947 (  1559 PWs)   bands (ev):

   -34.9913   2.0346   4.4805  10.7244  13.9908  17.6244  23.4119  25.5103

          k = 0.0000 0.4525 0.1895 (  1543 PWs)   bands (ev):

   -34.9902   2.4434   4.6271   8.5943  13.4828  20.8808  25.3948  25.9471

          k = 0.0000 0.4525 0.2842 (  1541 PWs)   bands (ev):

   -34.9894   2.8118   5.0668   6.9212  13.1819  24.1117  26.4151  27.3328

          k = 0.0905 0.0905 0.0000 (  1533 PWs)   bands (ev):

   -35.0908  -2.4580   7.3763  12.6073  15.7753  20.0599  24.5138  27.7175

          k = 0.0905 0.0905 0.0947 (  1542 PWs)   bands (ev):

   -35.0900  -2.3951   6.5771  13.9342  15.9229  20.1929  24.3990  26.4416

          k = 0.0905 0.0905 0.1895 (  1538 PWs)   bands (ev):

   -35.0881  -2.2424   5.3366  16.3069  16.7072  20.5900  23.3966  25.4697

          k = 0.0905 0.0905 0.2842 (  1539 PWs)   bands (ev):

   -35.0866  -2.1057   4.5699  16.6953  19.3583  21.5560  22.3049  24.0576

          k = 0.0905 0.1810 0.0000 (  1544 PWs)   bands (ev):

   -35.0656  -1.8614   8.0075  11.8896  14.2904  20.0157  24.2056  25.9689

          k = 0.0905 0.1810 0.0947 (  1544 PWs)   bands (ev):

   -35.0649  -1.7890   7.1015  12.7588  14.9491  20.0878  22.8974  26.0574

          k = 0.0905 0.1810 0.1895 (  1545 PWs)   bands (ev):

   -35.0632  -1.6117   5.7744  13.6298  17.1187  20.1400  21.4486  25.3382

          k = 0.0905 0.1810 0.2842 (  1530 PWs)   bands (ev):

   -35.0619  -1.4509   4.9651  14.0971  19.1934  19.5983  22.0782  24.2963

          k = 0.0905 0.2715 0.0000 (  1547 PWs)   bands (ev):

   -35.0325  -0.8772   9.0584   9.5075  14.4200  20.5577  20.6926  24.8425

          k = 0.0905 0.2715 0.0947 (  1547 PWs)   bands (ev):

   -35.0318  -0.7891   7.8073  10.2309  15.4346  19.4770  21.1029  25.5916

          k = 0.0905 0.2715 0.1895 (  1547 PWs)   bands (ev):

   -35.0304  -0.5703   6.4215  10.7181  17.0798  18.8017  21.5718  25.8213

          k = 0.0905 0.2715 0.2842 (  1532 PWs)   bands (ev):

   -35.0293  -0.3675   5.5821  11.0047  16.7709  20.1149  22.9546  25.1941

          k = 0.0905 0.3620 0.0000 (  1547 PWs)   bands (ev):

   -35.0019   0.4725   6.9087  10.5243  15.0214  17.5592  21.3458  23.5040

          k = 0.0905 0.3620 0.0947 (  1545 PWs)   bands (ev):

   -35.0013   0.5842   6.8599   9.7293  15.5762  17.6383  21.8183  24.2194

          k = 0.0905 0.3620 0.1895 (  1543 PWs)   bands (ev):

   -35.0001   0.8650   6.6370   8.6262  15.1084  19.6056  22.5281  25.7911

          k = 0.0905 0.3620 0.2842 (  1548 PWs)   bands (ev):

   -34.9992   1.1318   6.2735   8.1347  14.5684  21.3394  24.0390  26.2963

          k = 0.0905 0.4525 0.0000 (  1551 PWs)   bands (ev):

   -34.9836   2.0805   4.6385  12.3619  14.8829  15.5036  21.7380  23.3728

          k = 0.0905 0.4525 0.0947 (  1545 PWs)   bands (ev):

   -34.9831   2.2428   4.6698  10.9173  14.1701  17.6821  22.5407  23.5945

          k = 0.0905 0.4525 0.1895 (  1548 PWs)   bands (ev):

   -34.9821   2.6512   4.8286   8.7939  13.5731  20.6735  23.7630  24.9885

          k = 0.0905 0.4525 0.2842 (  1536 PWs)   bands (ev):

   -34.9812   3.0213   5.2725   7.1297  13.2193  22.7040  24.6920  26.2286

          k = 0.1810 0.1810 0.0000 (  1547 PWs)   bands (ev):

   -35.0411  -1.2638   8.6381  12.4243  12.5748  18.9114  24.6162  25.3567

          k = 0.1810 0.1810 0.0947 (  1544 PWs)   bands (ev):

   -35.0405  -1.1829   7.6435  12.7359  13.7751  19.0245  22.4164  24.3654

          k = 0.1810 0.1810 0.1895 (  1541 PWs)   bands (ev):

   -35.0390  -0.9830   6.2414  13.1624  15.9285  19.6604  20.2089  23.8903

          k = 0.1810 0.1810 0.2842 (  1534 PWs)   bands (ev):

   -35.0377  -0.7993   5.3918  13.6106  17.0200  18.8624  21.4353  23.4682

          k = 0.1810 0.2715 0.0000 (  1544 PWs)   bands (ev):

   -35.0090  -0.2778   9.6877  10.0210  13.3956  18.7813  21.3126  24.0139

          k = 0.1810 0.2715 0.0947 (  1543 PWs)   bands (ev):

   -35.0084  -0.1828   8.4018  10.5708  14.5115  18.6267  20.4706  23.9073

          k = 0.1810 0.2715 0.1895 (  1540 PWs)   bands (ev):

   -35.0071   0.0551   6.9465  11.0127  16.2185  17.7304  20.4896  23.5750

          k = 0.1810 0.2715 0.2842 (  1537 PWs)   bands (ev):

   -35.0060   0.2786   6.0628  11.3729  16.7521  16.9937  21.9181  23.6935

          k = 0.1810 0.3620 0.0000 (  1543 PWs)   bands (ev):

   -34.9793   1.0757   7.4519  11.1505  14.5756  18.1889  19.0397  22.4197

          k = 0.1810 0.3620 0.0947 (  1542 PWs)   bands (ev):

   -34.9788   1.1918   7.4390  10.2058  15.6884  16.9691  20.0624  23.1718

          k = 0.1810 0.3620 0.1895 (  1538 PWs)   bands (ev):

   -34.9777   1.4861   7.2556   9.0583  15.4351  17.4359  21.4760  23.6208

          k = 0.1810 0.3620 0.2842 (  1539 PWs)   bands (ev):

   -34.9768   1.7695   6.8373   8.6669  14.6812  18.0867  22.8423  23.5793

          k = 0.1810 0.4525 0.0000 (  1548 PWs)   bands (ev):

   -34.9616   2.7008   5.1812  12.9763  15.5267  15.6491  19.3862  20.7966

          k = 0.1810 0.4525 0.0947 (  1543 PWs)   bands (ev):

   -34.9611   2.8620   5.2312  11.4831  14.6773  17.4062  20.2522  21.2743

          k = 0.1810 0.4525 0.1895 (  1537 PWs)   bands (ev):

   -34.9601   3.2700   5.4274   9.3848  13.8078  19.0117  21.4047  22.8080

          k = 0.1810 0.4525 0.2842 (  1540 PWs)   bands (ev):

   -34.9593   3.6462   5.8834   7.7520  13.3111  19.6791  21.6632  23.8372

          k = 0.2715 0.2715 0.0000 (  1539 PWs)   bands (ev):

   -34.9781   0.7108  10.1540  10.7344  12.1296  18.3206  22.2442  22.4386

          k = 0.2715 0.2715 0.0947 (  1534 PWs)   bands (ev):

   -34.9776   0.8175   9.3366  10.3233  13.4282  18.6614  19.8581  22.0503

          k = 0.2715 0.2715 0.1895 (  1546 PWs)   bands (ev):

   -34.9764   1.0875   7.7686  10.7770  14.4731  17.5923  19.7008  22.3662

          k = 0.2715 0.2715 0.2842 (  1544 PWs)   bands (ev):

   -34.9755   1.3468   6.8276  11.2668  14.7686  16.1905  20.5166  23.0175

          k = 0.2715 0.3620 0.0000 (  1541 PWs)   bands (ev):

   -34.9496   2.0685   8.2380  12.1910  13.0060  18.4186  19.2312  20.1185

          k = 0.2715 0.3620 0.0947 (  1535 PWs)   bands (ev):

   -34.9492   2.1923   8.3075  10.8070  14.0965  17.4141  19.6786  20.4817

          k = 0.2715 0.3620 0.1895 (  1538 PWs)   bands (ev):

   -34.9481   2.5098   8.2686   9.5846  14.7035  15.9317  19.8610  21.7884

          k = 0.2715 0.3620 0.2842 (  1547 PWs)   bands (ev):

   -34.9473   2.8225   7.7507   9.4268  14.6423  15.1300  20.1364  21.1259

          k = 0.2715 0.4525 0.0000 (  1541 PWs)   bands (ev):

   -34.9326   3.7143   6.0522  13.9953  14.6380  16.5956  17.3665  18.8407

          k = 0.2715 0.4525 0.0947 (  1540 PWs)   bands (ev):

   -34.9322   3.8743   6.1347  12.3280  15.2546  15.6503  18.1486  20.1604

          k = 0.2715 0.4525 0.1895 (  1536 PWs)   bands (ev):

   -34.9313   4.2837   6.3975  10.3273  14.0459  16.2862  18.3506  21.4735

          k = 0.2715 0.4525 0.2842 (  1538 PWs)   bands (ev):

   -34.9305   4.6742   6.8715   8.7749  13.4041  16.5648  18.5321  20.5886

          k = 0.3620 0.3620 0.0000 (  1533 PWs)   bands (ev):

   -34.9222   3.4267   8.5377  11.6726  13.6352  17.2959  18.8804  20.6496

          k = 0.3620 0.3620 0.0947 (  1540 PWs)   bands (ev):

   -34.9218   3.5624   8.7121  11.0581  13.4921  17.2044  18.1203  19.9245

          k = 0.3620 0.3620 0.1895 (  1548 PWs)   bands (ev):

   -34.9209   3.9150   9.1836   9.8395  13.2963  15.8291  17.2277  19.9173

          k = 0.3620 0.3620 0.2842 (  1545 PWs)   bands (ev):

   -34.9202   4.2722   8.9314   9.7026  13.1452  14.3943  17.7798  18.7881

          k = 0.3620 0.4525 0.0000 (  1540 PWs)   bands (ev):

   -34.9059   5.0766   7.1251  12.4611  14.9124  15.4046  18.0705  19.3095

          k = 0.3620 0.4525 0.0947 (  1545 PWs)   bands (ev):

   -34.9055   5.2367   7.2575  12.3017  14.4480  14.7313  17.0147  20.1417

          k = 0.3620 0.4525 0.1895 (  1543 PWs)   bands (ev):

   -34.9047   5.6540   7.6283  11.3672  13.5699  14.4713  15.7027  18.9916

          k = 0.3620 0.4525 0.2842 (  1541 PWs)   bands (ev):

   -34.9040   6.0739   8.1274  10.1489  13.3452  13.9404  15.6987  17.6137

          k = 0.4525 0.4525 0.0000 (  1540 PWs)   bands (ev):

   -34.8900   6.6443   7.7294  10.9123  12.9533  17.1087  19.7824  19.8260

          k = 0.4525 0.4525 0.0947 (  1550 PWs)   bands (ev):

   -34.8896   6.8110   7.9064  11.0595  12.8254  15.7480  17.2471  18.5982

          k = 0.4525 0.4525 0.1895 (  1547 PWs)   bands (ev):

   -34.8888   7.2556   8.3868  11.3574  12.7471  13.8225  14.9449  16.8405

          k = 0.4525 0.4525 0.2842 (  1557 PWs)   bands (ev):

   -34.8881   7.7307   8.9211  11.5300  12.2993  13.4293  13.4936  15.2672

     the Fermi energy is    10.8080 ev

!    total energy              =     -22.82116826 Ry
     estimated scf accuracy    <          1.2E-11 Ry
     smearing contrib. (-TS)   =      -0.00026618 Ry
     internal energy E=F+TS    =     -22.82090208 Ry

     The total energy is F=E-TS. E is the sum of the following terms:
     one-electron contribution =      -0.98956355 Ry
     hartree contribution      =       2.88417119 Ry
     xc contribution           =      -6.82303220 Ry
     ewald contribution        =     -17.89247753 Ry

     convergence has been achieved in   6 iterations

     Forces acting on atoms (cartesian axes, Ry/au):

     atom    1 type  1   force =     0.00000000    0.00000000    0.00000000
     atom    2 type  2   force =     0.00000000    0.00000000    0.00000000
     The non-local contrib.  to forces
     atom    1 type  1   force =     0.00000000    0.00000000    0.00000000
     atom    2 type  2   force =     0.00000000    0.00000000    0.00000000
     The ionic contribution  to forces
     atom    1 type  1   force =    -0.00000000   -0.00000000    0.00000000
     atom    2 type  2   force =    -0.00000000   -0.00000000   -0.00000000
     The local contribution  to forces
     atom    1 type  1   force =     0.00000000   -0.00000000   -0.00000000
     atom    2 type  2   force =    -0.00000000   -0.00000000   -0.00000000
     The core correction contribution to forces
     atom    1 type  1   force =     0.00000000    0.00000000    0.00000000
     atom    2 type  2   force =    -0.00000000   -0.00000000   -0.00000000
     The Hubbard contrib.    to forces
     atom    1 type  1   force =     0.00000000    0.00000000    0.00000000
     atom    2 type  2   force =     0.00000000    0.00000000    0.00000000
     The SCF correction term to forces
     atom    1 type  1   force =    -0.00000000    0.00000000    0.00000000
     atom    2 type  2   force =    -0.00000000   -0.00000000    0.00000000

     Total force =     0.000000     Total SCF correction =     0.000000


     Computing stress (Cartesian axis) and pressure

          total   stress  (Ry/bohr**3)                   (kbar)     P=      500.17
   0.00343195   0.00000000   0.00000000          504.86        0.00        0.00
   0.00000000   0.00343195   0.00000000            0.00      504.86        0.00
   0.00000000   0.00000000   0.00333633            0.00        0.00      490.79

     Energy error            =      1.0E-04 Ry
     Gradient error          =      0.0E+00 Ry/Bohr
     Cell gradient error     =      9.2E+00 kbar

     number of scf cycles    =   3
     number of bfgs steps    =   2

     enthalpy           old  =     -22.3885713223 Ry
     enthalpy           new  =     -22.3886743324 Ry

     CASE: enthalpy          _new < enthalpy          _old

     new trust radius        =       0.0115568753 bohr
ibrav =      6
 celldm(1) =      4.40226692
 celldm(3) =      1.49030374
Input lattice vectors:
     1.00668309     0.00000000     0.00000000
     0.00000000     1.00668309     0.00000000
     0.00000000     0.00000000     1.50026357
New lattice vectors in INITIAL alat:
     1.00668309     0.00000000     0.00000000
     0.00000000     1.00668309     0.00000000
     0.00000000     0.00000000     1.50026357
New lattice vectors in NEW alat (for information only):
     1.00000000     0.00000000     0.00000000
     0.00000000     1.00000000     0.00000000
     0.00000000     0.00000000     1.49030374
Discrepancy in bohr =     0.000000    0.000000    0.000000
     new conv_thr            =            1.0E-10 Ry

     new unit-cell volume =    127.14635 a.u.^3 (    18.84115 Ang^3 )
     density =      3.08701 g/cm^3

CELL_PARAMETERS (alat=  4.37304149)
   1.006683091   0.000000000   0.000000000
   0.000000000   1.006683091   0.000000000
   0.000000000   0.000000000   1.500263573

ATOMIC_POSITIONS (crystal)
Li            0.0000000000        0.0000000000        0.5000000000
Si            0.5000000000        0.5000000000        0.0000000000



     Writing config-only to output data dir ./output/LiSi.save/
     NEW-OLD atomic charge density approx. for the potential
     extrapolated charge    6.99462, renormalised to    7.00000

     total cpu time spent up to now is        7.7 secs

     Self-consistent Calculation

     iteration #  1     ecut=    80.00 Ry     beta= 0.70
     Davidson diagonalization with overlap
     ethr =  1.00E-06,  avg # of iterations =  3.4

     Threshold (ethr) on eigenvalues was too large:
     Diagonalizing with lowered threshold

     Davidson diagonalization with overlap
     ethr =  7.87E-09,  avg # of iterations =  2.4

     total cpu time spent up to now is        8.5 secs

     total energy              =     -22.82086942 Ry
     estimated scf accuracy    <       0.00000056 Ry

     iteration #  2     ecut=    80.00 Ry     beta= 0.70
     Davidson diagonalization with overlap
     ethr =  8.02E-09,  avg # of iterations =  2.0

     total cpu time spent up to now is        8.9 secs

     total energy              =     -22.82086983 Ry
     estimated scf accuracy    <       0.00000008 Ry

     iteration #  3     ecut=    80.00 Ry     beta= 0.70
     Davidson diagonalization with overlap
     ethr =  1.08E-09,  avg # of iterations =  1.0

     total cpu time spent up to now is        9.2 secs

     total energy              =     -22.82086983 Ry
     estimated scf accuracy    <          7.9E-09 Ry

     iteration #  4     ecut=    80.00 Ry     beta= 0.70
     Davidson diagonalization with overlap
     ethr =  1.12E-10,  avg # of iterations =  1.9

     total cpu time spent up to now is        9.5 secs

     total energy              =     -22.82086983 Ry
     estimated scf accuracy    <          2.2E-10 Ry

     iteration #  5     ecut=    80.00 Ry     beta= 0.70
     Davidson diagonalization with overlap
     ethr =  3.12E-12,  avg # of iterations =  2.2

     total cpu time spent up to now is        9.9 secs

     End of self-consistent calculation

          k = 0.0000 0.0000 0.0000 (  1539 PWs)   bands (ev):

   -35.0956  -2.8243   7.0570  12.7516  19.0078  20.5814  20.5814  30.2756

          k = 0.0000 0.0000 0.0952 (  1543 PWs)   bands (ev):

   -35.0947  -2.7651   6.2927  14.0851  19.1095  20.7698  20.7698  28.8930

          k = 0.0000 0.0000 0.1904 (  1543 PWs)   bands (ev):

   -35.0926  -2.6216   5.0800  17.0008  19.3570  21.3003  21.3003  26.7309

          k = 0.0000 0.0000 0.2857 (  1547 PWs)   bands (ev):

   -35.0909  -2.4938   4.3253  19.5787  20.3727  21.9580  21.9580  25.2349

          k = 0.0000 0.0903 0.0000 (  1531 PWs)   bands (ev):

   -35.0863  -2.6260   7.2665  12.6628  16.7207  20.7683  22.7014  27.7944

          k = 0.0000 0.0903 0.0952 (  1539 PWs)   bands (ev):

   -35.0854  -2.5635   6.4704  13.9836  16.8903  20.9559  22.7981  26.2365

          k = 0.0000 0.0903 0.1904 (  1534 PWs)   bands (ev):

   -35.0834  -2.4114   5.2261  16.4789  17.6522  21.4832  23.0420  24.3380

          k = 0.0000 0.0903 0.2857 (  1536 PWs)   bands (ev):

   -35.0818  -2.2754   4.4551  17.3357  20.4360  22.1334  22.8930  23.4920

          k = 0.0000 0.1806 0.0000 (  1539 PWs)   bands (ev):

   -35.0612  -2.0339   7.8948  11.7043  14.8397  21.3288  24.0232  24.7518

          k = 0.0000 0.1806 0.0952 (  1544 PWs)   bands (ev):

   -35.0604  -1.9614   6.9841  12.5892  15.5040  21.5138  22.7953  24.7610

          k = 0.0000 0.1806 0.1904 (  1546 PWs)   bands (ev):

   -35.0586  -1.7837   5.6496  13.5603  17.6521  21.2030  22.0315  24.7709

          k = 0.0000 0.1806 0.2857 (  1531 PWs)   bands (ev):

   -35.0571  -1.6225   4.8353  14.0512  19.3789  21.3536  22.6597  24.8821

          k = 0.0000 0.2709 0.0000 (  1544 PWs)   bands (ev):

   -35.0282  -1.0574   8.9409   9.3020  14.7190  20.5212  22.2616  25.2029

          k = 0.0000 0.2709 0.0952 (  1548 PWs)   bands (ev):

   -35.0275  -0.9684   7.6540  10.0859  15.6735  19.7659  22.4424  25.9650

          k = 0.0000 0.2709 0.1904 (  1539 PWs)   bands (ev):

   -35.0260  -0.7473   6.2677  10.5796  16.9919  19.6867  22.9438  25.9818

          k = 0.0000 0.2709 0.2857 (  1531 PWs)   bands (ev):

   -35.0247  -0.5421   5.4263  10.8489  16.7050  22.1375  23.5369  25.9981

          k = 0.0000 0.3612 0.0000 (  1554 PWs)   bands (ev):

   -34.9977   0.2802   6.7122  10.4003  15.1229  17.4008  23.5645  23.5855

          k = 0.0000 0.3612 0.0952 (  1550 PWs)   bands (ev):

   -34.9972   0.3941   6.6559   9.6192  15.4828  17.8431  23.7391  24.5908

          k = 0.0000 0.3612 0.1904 (  1545 PWs)   bands (ev):

   -34.9959   0.6807   6.4285   8.4951  15.0054  20.2335  24.2174  26.4417

          k = 0.0000 0.3612 0.2857 (  1542 PWs)   bands (ev):

   -34.9948   0.9532   6.0787   7.9597  14.5179  23.2478  24.7638  26.9732

          k = 0.0000 0.4515 0.0000 (  1562 PWs)   bands (ev):

   -34.9796   1.8628   4.4661  12.2313  14.7345  15.4697  22.6682  25.2323

          k = 0.0000 0.4515 0.0952 (  1559 PWs)   bands (ev):

   -34.9791   2.0301   4.4907  10.7745  14.0477  17.7289  23.4924  25.3991

          k = 0.0000 0.4515 0.1904 (  1543 PWs)   bands (ev):

   -34.9779   2.4533   4.6351   8.6153  13.5143  21.0106  25.5248  25.8450

          k = 0.0000 0.4515 0.2857 (  1541 PWs)   bands (ev):

   -34.9770   2.8387   5.0782   6.9141  13.1970  24.2347  26.3252  27.4632

          k = 0.0903 0.0903 0.0000 (  1533 PWs)   bands (ev):

   -35.0771  -2.4276   7.4759  12.6655  15.7241  19.9904  24.4328  27.7126

          k = 0.0903 0.0903 0.0952 (  1542 PWs)   bands (ev):

   -35.0762  -2.3618   6.6494  14.0204  15.8757  20.1308  24.3309  26.4054

          k = 0.0903 0.0903 0.1904 (  1538 PWs)   bands (ev):

   -35.0743  -2.2015   5.3752  16.2714  16.8199  20.5589  23.3425  25.4213

          k = 0.0903 0.0903 0.2857 (  1539 PWs)   bands (ev):

   -35.0727  -2.0573   4.5885  16.6744  19.3966  21.6514  22.2311  24.0595

          k = 0.0903 0.1806 0.0000 (  1544 PWs)   bands (ev):

   -35.0522  -1.8351   8.1040  11.8991  14.2932  19.9597  24.2228  25.9572

          k = 0.0903 0.1806 0.0952 (  1544 PWs)   bands (ev):

   -35.0515  -1.7597   7.1682  12.7578  14.9945  20.0404  22.8949  26.0267

          k = 0.0903 0.1806 0.1904 (  1545 PWs)   bands (ev):

   -35.0497  -1.5744   5.8081  13.6092  17.2084  20.1107  21.4409  25.2881

          k = 0.0903 0.1806 0.2857 (  1530 PWs)   bands (ev):

   -35.0483  -1.4055   4.9792  14.0828  19.2064  19.5501  22.1980  24.2832

          k = 0.0903 0.2709 0.0000 (  1547 PWs)   bands (ev):

   -35.0196  -0.8579   9.1497   9.4887  14.4709  20.4986  20.7278  24.8949

          k = 0.0903 0.2709 0.0952 (  1547 PWs)   bands (ev):

   -35.0189  -0.7665   7.8534  10.2315  15.5128  19.4662  21.0773  25.6370

          k = 0.0903 0.2709 0.1904 (  1547 PWs)   bands (ev):

   -35.0174  -0.5389   6.4450  10.7110  17.1348  18.8071  21.5849  25.7875

          k = 0.0903 0.2709 0.2857 (  1532 PWs)   bands (ev):

   -35.0162  -0.3269   5.5883  11.0008  16.7527  20.1037  23.0865  25.1519

          k = 0.0903 0.3612 0.0000 (  1547 PWs)   bands (ev):

   -34.9895   0.4814   6.8980  10.6082  15.0906  17.6102  21.2855  23.5469

          k = 0.0903 0.3612 0.0952 (  1545 PWs)   bands (ev):

   -34.9889   0.5967   6.8524   9.7859  15.6481  17.6829  21.7668  24.2885

          k = 0.0903 0.3612 0.1904 (  1543 PWs)   bands (ev):

   -34.9876   0.8878   6.6350   8.6488  15.1292  19.6707  22.5284  25.8390

          k = 0.0903 0.3612 0.2857 (  1548 PWs)   bands (ev):

   -34.9866   1.1658   6.2678   8.1433  14.5658  21.3257  24.1596  26.2316

          k = 0.0903 0.4515 0.0000 (  1551 PWs)   bands (ev):

   -34.9715   2.0706   4.6475  12.4355  14.9484  15.5843  21.7389  23.3158

          k = 0.0903 0.4515 0.0952 (  1545 PWs)   bands (ev):

   -34.9710   2.2375   4.6784  10.9661  14.2245  17.7776  22.5390  23.5710

          k = 0.0903 0.4515 0.1904 (  1548 PWs)   bands (ev):

   -34.9699   2.6603   4.8354   8.8139  13.6007  20.7658  23.7299  25.0476

          k = 0.0903 0.4515 0.2857 (  1536 PWs)   bands (ev):

   -34.9690   3.0473   5.2832   7.1216  13.2304  22.7030  24.7048  26.2751

          k = 0.1806 0.1806 0.0000 (  1547 PWs)   bands (ev):

   -35.0281  -1.2415   8.7315  12.4550  12.5313  18.9039  24.6245  25.0696

          k = 0.1806 0.1806 0.0952 (  1544 PWs)   bands (ev):

   -35.0274  -1.1575   7.7056  12.6962  13.8251  19.0340  22.4166  24.3588

          k = 0.1806 0.1806 0.1904 (  1541 PWs)   bands (ev):

   -35.0258  -0.9492   6.2711  13.1342  15.9534  19.7331  20.1783  23.8727

          k = 0.1806 0.1806 0.2857 (  1534 PWs)   bands (ev):

   -35.0246  -0.7568   5.4018  13.5977  16.9974  18.8065  21.5151  23.5513

          k = 0.1806 0.2709 0.0000 (  1544 PWs)   bands (ev):

   -34.9965  -0.2622   9.7759   9.9960  13.4091  18.7876  21.3447  24.0654

          k = 0.1806 0.2709 0.0952 (  1543 PWs)   bands (ev):

   -34.9959  -0.1638   8.4467  10.5586  14.5417  18.6453  20.4924  23.9192

          k = 0.1806 0.2709 0.1904 (  1540 PWs)   bands (ev):

   -34.9945   0.0831   6.9676  10.9986  16.2185  17.7286  20.5670  23.5613

          k = 0.1806 0.2709 0.2857 (  1537 PWs)   bands (ev):

   -34.9934   0.3164   6.0658  11.3673  16.7130  16.9728  21.9448  23.7865

          k = 0.1806 0.3612 0.0000 (  1543 PWs)   bands (ev):

   -34.9672   1.0814   7.4365  11.2312  14.6017  18.2369  19.0370  22.4209

          k = 0.1806 0.3612 0.0952 (  1542 PWs)   bands (ev):

   -34.9667   1.2012   7.4273  10.2560  15.7338  16.9703  20.0986  23.1854

          k = 0.1806 0.3612 0.1904 (  1538 PWs)   bands (ev):

   -34.9655   1.5058   7.2515   9.0755  15.4407  17.4224  21.5683  23.5963

          k = 0.1806 0.3612 0.2857 (  1539 PWs)   bands (ev):

   -34.9646   1.8008   6.8292   8.6729  14.6659  18.0578  22.8332  23.5790

          k = 0.1806 0.4515 0.0000 (  1548 PWs)   bands (ev):

   -34.9498   2.6887   5.1847  13.0466  15.5894  15.7003  19.3610  20.7397

          k = 0.1806 0.4515 0.0952 (  1543 PWs)   bands (ev):

   -34.9493   2.8546   5.2349  11.5275  14.7229  17.4388  20.2588  21.2318

          k = 0.1806 0.4515 0.1904 (  1537 PWs)   bands (ev):

   -34.9483   3.2766   5.4308   9.4013  13.8238  18.9904  21.3880  22.8540

          k = 0.1806 0.4515 0.2857 (  1540 PWs)   bands (ev):

   -34.9474   3.6696   5.8918   7.7408  13.3113  19.6458  21.6327  23.7775

          k = 0.2709 0.2709 0.0000 (  1539 PWs)   bands (ev):

   -34.9661   0.7202  10.1175  10.8173  12.1274  18.3665  22.2636  22.4743

          k = 0.2709 0.2709 0.0952 (  1534 PWs)   bands (ev):

   -34.9655   0.8303   9.3789  10.2905  13.4420  18.7294  19.8720  22.0404

          k = 0.2709 0.2709 0.1904 (  1546 PWs)   bands (ev):

   -34.9643   1.1099   7.7845  10.7555  14.4627  17.5749  19.7650  22.3996

          k = 0.2709 0.2709 0.2857 (  1544 PWs)   bands (ev):

   -34.9633   1.3799   6.8247  11.2611  14.7470  16.1473  20.5041  23.0535

          k = 0.2709 0.3612 0.0000 (  1541 PWs)   bands (ev):

   -34.9380   2.0688   8.2142  12.2664  12.9879  18.4761  19.2742  20.0533

          k = 0.2709 0.3612 0.0952 (  1535 PWs)   bands (ev):

   -34.9375   2.1963   8.2878  10.8396  14.0920  17.4433  19.7482  20.4249

          k = 0.2709 0.3612 0.1904 (  1538 PWs)   bands (ev):

   -34.9365   2.5242   8.2608   9.5908  14.6781  15.9322  19.8378  21.7845

          k = 0.2709 0.3612 0.2857 (  1547 PWs)   bands (ev):

   -34.9356   2.8492   7.7384   9.4288  14.6100  15.1108  20.0899  21.0999

          k = 0.2709 0.4515 0.0000 (  1541 PWs)   bands (ev):

   -34.9213   3.6988   6.0463  14.0601  14.6105  16.6536  17.3435  18.8651

          k = 0.2709 0.4515 0.0952 (  1540 PWs)   bands (ev):

   -34.9209   3.8633   6.1301  12.3600  15.2605  15.6373  18.1299  20.2307

          k = 0.2709 0.4515 0.1904 (  1536 PWs)   bands (ev):

   -34.9199   4.2863   6.3954  10.3371  14.0424  16.2530  18.3190  21.4668

          k = 0.2709 0.4515 0.2857 (  1538 PWs)   bands (ev):

   -34.9191   4.6934   6.8768   8.7583  13.3892  16.5385  18.4978  20.5250

          k = 0.3612 0.3612 0.0000 (  1533 PWs)   bands (ev):

   -34.9111   3.4192   8.5059  11.6478  13.7030  17.2479  18.9477  20.6774

          k = 0.3612 0.3612 0.0952 (  1540 PWs)   bands (ev):

   -34.9106   3.5586   8.6840  11.0531  13.5154  17.1607  18.1427  20.0014

          k = 0.3612 0.3612 0.1904 (  1548 PWs)   bands (ev):

   -34.9096   3.9221   9.1667   9.8351  13.2885  15.8205  17.1795  19.9089

          k = 0.3612 0.3612 0.2857 (  1545 PWs)   bands (ev):

   -34.9089   4.2927   8.9125   9.7019  13.1301  14.3594  17.7333  18.7550

          k = 0.3612 0.4515 0.0000 (  1540 PWs)   bands (ev):

   -34.8950   5.0565   7.1058  12.4136  14.8869  15.4613  18.1219  19.3807

          k = 0.3612 0.4515 0.0952 (  1545 PWs)   bands (ev):

   -34.8946   5.2208   7.2409  12.2706  14.4613  14.7104  17.0467  20.1793

          k = 0.3612 0.4515 0.1904 (  1543 PWs)   bands (ev):

   -34.8937   5.6509   7.6189  11.3587  13.5536  14.4398  15.6939  18.9718

          k = 0.3612 0.4515 0.2857 (  1541 PWs)   bands (ev):

   -34.8929   6.0872   8.1296  10.1239  13.3181  13.9249  15.6662  17.5609

          k = 0.4515 0.4515 0.0000 (  1540 PWs)   bands (ev):

   -34.8793   6.6183   7.7000  10.8500  12.9580  17.1529  19.8313  19.8630

          k = 0.4515 0.4515 0.0952 (  1550 PWs)   bands (ev):

   -34.8789   6.7889   7.8807  11.0030  12.8229  15.7752  17.2738  18.6144

          k = 0.4515 0.4515 0.1904 (  1547 PWs)   bands (ev):

   -34.8780   7.2455   8.3722  11.3197  12.7275  13.8201  14.9406  16.8252

          k = 0.4515 0.4515 0.2857 (  1557 PWs)   bands (ev):

   -34.8773   7.7371   8.9229  11.4974  12.2924  13.3960  13.4629  15.2231

     the Fermi energy is    10.8198 ev

!    total energy              =     -22.82086983 Ry
     estimated scf accuracy    <          3.3E-11 Ry
     smearing contrib. (-TS)   =      -0.00029167 Ry
     internal energy E=F+TS    =     -22.82057816 Ry

     The total energy is F=E-TS. E is the sum of the following terms:
     one-electron contribution =      -0.98384212 Ry
     hartree contribution      =       2.88465167 Ry
     xc contribution           =      -6.82268127 Ry
     ewald contribution        =     -17.89870643 Ry

     convergence has been achieved in   5 iterations

     Forces acting on atoms (cartesian axes, Ry/au):

     atom    1 type  1   force =     0.00000000    0.00000000    0.00000000
     atom    2 type  2   force =     0.00000000    0.00000000    0.00000000
     The non-local contrib.  to forces
     atom    1 type  1   force =     0.00000000    0.00000000    0.00000000
     atom    2 type  2   force =     0.00000000    0.00000000    0.00000000
     The ionic contribution  to forces
     atom    1 type  1   force =    -0.00000000   -0.00000000   -0.00000000
     atom    2 type  2   force =    -0.00000000   -0.00000000    0.00000000
     The local contribution  to forces
     atom    1 type  1   force =    -0.00000000    0.00000000   -0.00000000
     atom    2 type  2   force =    -0.00000000   -0.00000000   -0.00000000
     The core correction contribution to forces
     atom    1 type  1   force =     0.00000000    0.00000000    0.00000000
     atom    2 type  2   force =    -0.00000000   -0.00000000   -0.00000000
     The Hubbard contrib.    to forces
     atom    1 type  1   force =     0.00000000    0.00000000    0.00000000
     atom    2 type  2   force =     0.00000000    0.00000000    0.00000000
     The SCF correction term to forces
     atom    1 type  1   force =    -0.00000000    0.00000000   -0.00000000
     atom    2 type  2   force =     0.00000000    0.00000000   -0.00000000

     Total force =     0.000000     Total SCF correction =     0.000000


     Computing stress (Cartesian axis) and pressure

          total   stress  (Ry/bohr**3)                   (kbar)     P=      500.02
   0.00340472   0.00000000   0.00000000          500.85        0.00        0.00
   0.00000000   0.00340472   0.00000000            0.00      500.85        0.00
   0.00000000   0.00000000   0.00338785            0.00        0.00      498.37

     Energy error            =      3.4E-05 Ry
     Gradient error          =      0.0E+00 Ry/Bohr
     Cell gradient error     =      1.6E+00 kbar

[...]
        k(   77) = (   0.3610537   0.4513171   0.0000000), wk =   0.0188902
        k(   78) = (   0.3610537   0.4513171   0.0953270), wk =   0.0377804
        k(   79) = (   0.3610537   0.4513171   0.1906540), wk =   0.0377804
        k(   80) = (   0.3610537   0.4513171   0.2859810), wk =   0.0377804
        k(   81) = (   0.4513171   0.4513171   0.0000000), wk =   0.0094451
        k(   82) = (   0.4513171   0.4513171   0.0953270), wk =   0.0188902
        k(   83) = (   0.4513171   0.4513171   0.1906540), wk =   0.0188902
        k(   84) = (   0.4513171   0.4513171   0.2859810), wk =   0.0188902

     Dense  grid:    12333 G-vectors     FFT dimensions: (  25,  25,  40)

     Estimated max dynamical RAM per process >      14.59 MB

     Estimated total dynamical RAM >     116.74 MB

     Initial potential from superposition of free atoms

     starting charge       6.9948, renormalised to       7.0000
     Starting wfcs are    6 randomized atomic wfcs +    2 random wfcs

     total cpu time spent up to now is       12.8 secs

     Self-consistent Calculation

     iteration #  1     ecut=    80.00 Ry     beta= 0.70
     Davidson diagonalization with overlap
     c_bands:  1 eigenvalues not converged
     c_bands:  1 eigenvalues not converged
     c_bands:  1 eigenvalues not converged
     c_bands:  1 eigenvalues not converged
     c_bands:  1 eigenvalues not converged
     c_bands:  1 eigenvalues not converged
     c_bands:  1 eigenvalues not converged
     c_bands:  1 eigenvalues not converged
     c_bands:  1 eigenvalues not converged
     c_bands:  1 eigenvalues not converged
     c_bands:  1 eigenvalues not converged
     c_bands:  1 eigenvalues not converged
     c_bands:  1 eigenvalues not converged
     c_bands:  1 eigenvalues not converged
     c_bands:  1 eigenvalues not converged
     c_bands:  1 eigenvalues not converged
     c_bands:  2 eigenvalues not converged
     ethr =  1.00E-06,  avg # of iterations = 16.5

     total cpu time spent up to now is       13.9 secs

     total energy              =     -22.82079151 Ry
     estimated scf accuracy    <       0.00676606 Ry

     iteration #  2     ecut=    80.00 Ry     beta= 0.70
     Davidson diagonalization with overlap
     ethr =  9.67E-05,  avg # of iterations =  1.0

     total cpu time spent up to now is       14.2 secs

     total energy              =     -22.82078216 Ry
     estimated scf accuracy    <       0.00052294 Ry

     iteration #  3     ecut=    80.00 Ry     beta= 0.70
     Davidson diagonalization with overlap
     ethr =  7.47E-06,  avg # of iterations =  1.0

     total cpu time spent up to now is       14.6 secs

     total energy              =     -22.82079456 Ry
     estimated scf accuracy    <       0.00000347 Ry

     iteration #  4     ecut=    80.00 Ry     beta= 0.70
     Davidson diagonalization with overlap
     ethr =  4.96E-08,  avg # of iterations =  2.2

     total cpu time spent up to now is       15.0 secs

     total energy              =     -22.82079522 Ry
     estimated scf accuracy    <       0.00000028 Ry

     iteration #  5     ecut=    80.00 Ry     beta= 0.70
     Davidson diagonalization with overlap
     ethr =  3.96E-09,  avg # of iterations =  1.5

     total cpu time spent up to now is       15.3 secs

     total energy              =     -22.82079526 Ry
     estimated scf accuracy    <          2.4E-09 Ry

     iteration #  6     ecut=    80.00 Ry     beta= 0.70
     Davidson diagonalization with overlap
     ethr =  3.45E-11,  avg # of iterations =  2.4

     total cpu time spent up to now is       15.6 secs

     End of self-consistent calculation

          k = 0.0000 0.0000 0.0000 (  1547 PWs)   bands (ev):

   -35.0925  -2.8172   7.0793  12.7666  19.0002  20.5593  20.5593  30.2717

          k = 0.0000 0.0000 0.0953 (  1527 PWs)   bands (ev):

   -35.0916  -2.7574   6.3092  14.1068  19.1027  20.7483  20.7483  28.8847

          k = 0.0000 0.0000 0.1907 (  1527 PWs)   bands (ev):

   -35.0895  -2.6123   5.0891  17.0329  19.3522  21.2810  21.2810  26.7168

          k = 0.0000 0.0000 0.2860 (  1530 PWs)   bands (ev):

   -35.0878  -2.4829   4.3300  19.5760  20.4147  21.9423  21.9423  25.2153

          k = 0.0000 0.0903 0.0000 (  1531 PWs)   bands (ev):

   -35.0832  -2.6192   7.2885  12.6759  16.7114  20.7461  22.6862  27.7945

          k = 0.0000 0.0903 0.0953 (  1527 PWs)   bands (ev):

   -35.0823  -2.5560   6.4865  14.0024  16.8829  20.9343  22.7837  26.2319

          k = 0.0000 0.0903 0.1907 (  1525 PWs)   bands (ev):

   -35.0803  -2.4023   5.2349  16.4887  17.6659  21.4638  23.0301  24.3281

          k = 0.0000 0.0903 0.2860 (  1543 PWs)   bands (ev):

   -35.0786  -2.2647   4.4595  17.3314  20.4722  22.1176  22.8829  23.4858

          k = 0.0000 0.1805 0.0000 (  1539 PWs)   bands (ev):

   -35.0582  -2.0280   7.9161  11.7061  14.8444  21.3063  24.0276  24.7418

          k = 0.0000 0.1805 0.0953 (  1529 PWs)   bands (ev):

   -35.0574  -1.9548   6.9990  12.5900  15.5175  21.4920  22.7950  24.7516

          k = 0.0000 0.1805 0.1907 (  1535 PWs)   bands (ev):

   -35.0555  -1.7754   5.6573  13.5568  17.6792  21.1989  22.0118  24.7639

          k = 0.0000 0.1805 0.2860 (  1532 PWs)   bands (ev):

   -35.0541  -1.6124   4.8387  14.0483  19.3781  21.3826  22.6436  24.8811

          k = 0.0000 0.2708 0.0000 (  1540 PWs)   bands (ev):

   -35.0253  -1.0530   8.9611   9.2984  14.7331  20.5294  22.2386  25.2149

          k = 0.0000 0.2708 0.0953 (  1541 PWs)   bands (ev):

   -35.0246  -0.9633   7.6641  10.0870  15.6934  19.7701  22.4201  25.9684

          k = 0.0000 0.2708 0.1907 (  1540 PWs)   bands (ev):

   -35.0230  -0.7402   6.2731  10.5787  17.0034  19.7032  22.9237  25.9788

          k = 0.0000 0.2708 0.2860 (  1535 PWs)   bands (ev):

   -35.0218  -0.5331   5.4280  10.8483  16.7025  22.1702  23.5203  26.0011

          k = 0.0000 0.3611 0.0000 (  1550 PWs)   bands (ev):

   -34.9949   0.2824   6.7104  10.4189  15.1400  17.4124  23.5408  23.5978

          k = 0.0000 0.3611 0.0953 (  1542 PWs)   bands (ev):

   -34.9944   0.3971   6.6547   9.6321  15.4985  17.8576  23.7162  24.6088

          k = 0.0000 0.3611 0.1907 (  1543 PWs)   bands (ev):

   -34.9930   0.6859   6.4284   8.5005  15.0110  20.2598  24.1966  26.4594

          k = 0.0000 0.3611 0.2860 (  1545 PWs)   bands (ev):

   -34.9920   0.9608   6.0778   7.9619  14.5184  23.2784  24.7464  26.9833

          k = 0.0000 0.4513 0.0000 (  1554 PWs)   bands (ev):

   -34.9768   1.8608   4.4685  12.2477  14.7491  15.4884  22.6805  25.2079

          k = 0.0000 0.4513 0.0953 (  1550 PWs)   bands (ev):

   -34.9763   2.0292   4.4931  10.7856  14.0602  17.7518  23.5100  25.3753

          k = 0.0000 0.4513 0.1907 (  1537 PWs)   bands (ev):

   -34.9752   2.4555   4.6369   8.6201  13.5212  21.0388  25.5531  25.8232

          k = 0.0000 0.4513 0.2860 (  1536 PWs)   bands (ev):

   -34.9742   2.8446   5.0808   6.9128  13.2003  24.2611  26.3061  27.4909

          k = 0.0903 0.0903 0.0000 (  1539 PWs)   bands (ev):

   -35.0740  -2.4210   7.4977  12.6782  15.7132  19.9757  24.4155  27.7119

          k = 0.0903 0.0903 0.0953 (  1536 PWs)   bands (ev):

   -35.0731  -2.3546   6.6651  14.0391  15.8656  20.1177  24.3164  26.3981

          k = 0.0903 0.0903 0.1907 (  1533 PWs)   bands (ev):

   -35.0712  -2.1926   5.3836  16.2638  16.8440  20.5529  23.3311  25.4110

          k = 0.0903 0.0903 0.2860 (  1540 PWs)   bands (ev):

   -35.0696  -2.0469   4.5926  16.6701  19.4034  21.6739  22.2155  24.0589

          k = 0.0903 0.1805 0.0000 (  1543 PWs)   bands (ev):

   -35.0493  -1.8294   8.1251  11.9010  14.2941  19.9479  24.2269  25.9544

          k = 0.0903 0.1805 0.0953 (  1537 PWs)   bands (ev):

   -35.0485  -1.7534   7.1828  12.7574  15.0046  20.0305  22.8947  26.0202

          k = 0.0903 0.1805 0.1907 (  1535 PWs)   bands (ev):

   -35.0467  -1.5663   5.8155  13.6048  17.2274  20.1050  21.4398  25.2776

          k = 0.0903 0.1805 0.2860 (  1535 PWs)   bands (ev):

   -35.0453  -1.3956   4.9823  14.0799  19.2085  19.5399  22.2247  24.2800

          k = 0.0903 0.2708 0.0000 (  1542 PWs)   bands (ev):

   -35.0167  -0.8537   9.1697   9.4848  14.4820  20.4862  20.7357  24.9065

          k = 0.0903 0.2708 0.0953 (  1536 PWs)   bands (ev):

   -35.0161  -0.7616   7.8634  10.2319  15.5298  19.4640  21.0724  25.6470

          k = 0.0903 0.2708 0.1907 (  1534 PWs)   bands (ev):

   -35.0145  -0.5321   6.4502  10.7097  17.1464  18.8085  21.5887  25.7804

          k = 0.0903 0.2708 0.2860 (  1538 PWs)   bands (ev):

   -35.0133  -0.3181   5.5897  11.0001  16.7488  20.1010  23.1157  25.1427

          k = 0.0903 0.3611 0.0000 (  1545 PWs)   bands (ev):

   -34.9867   0.4833   6.8958  10.6266  15.1056  17.6216  21.2727  23.5565

          k = 0.0903 0.3611 0.0953 (  1546 PWs)   bands (ev):

   -34.9861   0.5995   6.8508   9.7983  15.6637  17.6927  21.7561  24.3036

          k = 0.0903 0.3611 0.1907 (  1538 PWs)   bands (ev):

   -34.9848   0.8927   6.6347   8.6539  15.1338  19.6842  22.5295  25.8490

          k = 0.0903 0.3611 0.2860 (  1537 PWs)   bands (ev):

   -34.9838   1.1732   6.2668   8.1453  14.5654  21.3224  24.1861  26.2178

          k = 0.0903 0.4513 0.0000 (  1552 PWs)   bands (ev):

   -34.9688   2.0684   4.6495  12.4517  14.9628  15.6019  21.7387  23.3040

          k = 0.0903 0.4513 0.0953 (  1543 PWs)   bands (ev):

   -34.9683   2.2364   4.6804  10.9769  14.2365  17.7983  22.5378  23.5668

          k = 0.0903 0.4513 0.1907 (  1539 PWs)   bands (ev):

   -34.9671   2.6623   4.8370   8.8184  13.6068  20.7854  23.7235  25.0566

          k = 0.0903 0.4513 0.2860 (  1530 PWs)   bands (ev):

   -34.9662   3.0530   5.2856   7.1200  13.2329  22.7023  24.7072  26.2849

          k = 0.1805 0.1805 0.0000 (  1541 PWs)   bands (ev):

   -35.0253  -1.2367   8.7519  12.4617  12.5220  18.9027  24.6267  25.0748

          k = 0.1805 0.1805 0.0953 (  1544 PWs)   bands (ev):

   -35.0245  -1.1520   7.7192  12.6877  13.8359  19.0365  22.4169  24.3578

          k = 0.1805 0.1805 0.1907 (  1533 PWs)   bands (ev):

   -35.0229  -0.9419   6.2776  13.1282  15.9584  19.7496  20.1720  23.8693

          k = 0.1805 0.1805 0.2860 (  1530 PWs)   bands (ev):

   -35.0216  -0.7475   5.4041  13.5951  16.9926  18.7948  21.5313  23.5704

          k = 0.1805 0.2708 0.0000 (  1525 PWs)   bands (ev):

   -34.9937  -0.2588   9.7952   9.9907  13.4120  18.7894  21.3520  24.0767

          k = 0.1805 0.2708 0.0953 (  1540 PWs)   bands (ev):

   -34.9931  -0.1597   8.4564  10.5562  14.5481  18.6498  20.4974  23.9220

          k = 0.1805 0.2708 0.1907 (  1540 PWs)   bands (ev):

   -34.9917   0.0892   6.9723  10.9957  16.2182  17.7285  20.5843  23.5588

          k = 0.1805 0.2708 0.2860 (  1534 PWs)   bands (ev):

   -34.9905   0.3246   6.0665  11.3663  16.7047  16.9685  21.9496  23.8077

          k = 0.1805 0.3611 0.0000 (  1535 PWs)   bands (ev):

   -34.9645   1.0826   7.4332  11.2489  14.6072  18.2477  19.0370  22.4206

          k = 0.1805 0.3611 0.0953 (  1536 PWs)   bands (ev):

   -34.9640   1.2032   7.4249  10.2671  15.7434  16.9710  20.1070  23.1871

          k = 0.1805 0.3611 0.1907 (  1532 PWs)   bands (ev):

   -34.9628   1.5100   7.2508   9.0793  15.4420  17.4195  21.5885  23.5910

          k = 0.1805 0.3611 0.2860 (  1537 PWs)   bands (ev):

   -34.9618   1.8076   6.8276   8.6743  14.6628  18.0517  22.8300  23.5795

          k = 0.1805 0.4513 0.0000 (  1539 PWs)   bands (ev):

   -34.9472   2.6861   5.1856  13.0621  15.6033  15.7112  19.3559  20.7277

          k = 0.1805 0.4513 0.0953 (  1541 PWs)   bands (ev):

   -34.9467   2.8530   5.2358  11.5374  14.7330  17.4455  20.2608  21.2230

          k = 0.1805 0.4513 0.1907 (  1539 PWs)   bands (ev):

   -34.9456   3.2781   5.4316   9.4051  13.8273  18.9857  21.3840  22.8650

          k = 0.1805 0.4513 0.2860 (  1533 PWs)   bands (ev):

   -34.9447   3.6748   5.8938   7.7386  13.3115  19.6388  21.6261  23.7647

          k = 0.2708 0.2708 0.0000 (  1525 PWs)   bands (ev):

   -34.9634   0.7223  10.1097  10.8355  12.1270  18.3767  22.2683  22.4824

          k = 0.2708 0.2708 0.0953 (  1524 PWs)   bands (ev):

   -34.9628   0.8331   9.3881  10.2835  13.4451  18.7445  19.8753  22.0383

          k = 0.2708 0.2708 0.1907 (  1539 PWs)   bands (ev):

   -34.9616   1.1148   7.7881  10.7510  14.4606  17.5715  19.7785  22.4078

          k = 0.2708 0.2708 0.2860 (  1537 PWs)   bands (ev):

   -34.9606   1.3871   6.8242  11.2601  14.7426  16.1382  20.5013  23.0607

          k = 0.2708 0.3611 0.0000 (  1527 PWs)   bands (ev):

   -34.9354   2.0688   8.2091  12.2830  12.9840  18.4889  19.2839  20.0394

          k = 0.2708 0.3611 0.0953 (  1528 PWs)   bands (ev):

   -34.9349   2.1971   8.2836  10.8468  14.0912  17.4498  19.7634  20.4132

          k = 0.2708 0.3611 0.1907 (  1528 PWs)   bands (ev):

   -34.9338   2.5274   8.2592   9.5923  14.6729  15.9326  19.8325  21.7836

          k = 0.2708 0.3611 0.2860 (  1538 PWs)   bands (ev):

   -34.9330   2.8551   7.7359   9.4294  14.6032  15.1069  20.0799  21.0945

          k = 0.2708 0.4513 0.0000 (  1538 PWs)   bands (ev):

   -34.9188   3.6954   6.0451  14.0744  14.6044  16.6665  17.3384  18.8713

          k = 0.2708 0.4513 0.0953 (  1532 PWs)   bands (ev):

   -34.9183   3.8610   6.1292  12.3671  15.2615  15.6350  18.1262  20.2464

          k = 0.2708 0.4513 0.1907 (  1530 PWs)   bands (ev):

   -34.9173   4.2869   6.3951  10.3394  14.0418  16.2460  18.3124  21.4655

          k = 0.2708 0.4513 0.2860 (  1530 PWs)   bands (ev):

   -34.9165   4.6977   6.8781   8.7550  13.3861  16.5330  18.4905  20.5116

          k = 0.3611 0.3611 0.0000 (  1533 PWs)   bands (ev):

   -34.9086   3.4176   8.4991  11.6425  13.7180  17.2377  18.9626  20.6839

          k = 0.3611 0.3611 0.0953 (  1532 PWs)   bands (ev):

   -34.9081   3.5578   8.6780  11.0521  13.5208  17.1513  18.1479  20.0184

          k = 0.3611 0.3611 0.1907 (  1533 PWs)   bands (ev):

   -34.9071   3.9237   9.1632   9.8343  13.2870  15.8189  17.1692  19.9074

          k = 0.3611 0.3611 0.2860 (  1535 PWs)   bands (ev):

   -34.9063   4.2973   8.9086   9.7019  13.1270  14.3521  17.7234  18.7482

          k = 0.3611 0.4513 0.0000 (  1535 PWs)   bands (ev):

   -34.8925   5.0522   7.1017  12.4035  14.8816  15.4739  18.1334  19.3964

          k = 0.3611 0.4513 0.0953 (  1534 PWs)   bands (ev):

   -34.8921   5.2175   7.2374  12.2638  14.4641  14.7066  17.0540  20.1875

          k = 0.3611 0.4513 0.1907 (  1534 PWs)   bands (ev):

   -34.8912   5.6503   7.6169  11.3570  13.5503  14.4332  15.6923  18.9679

          k = 0.3611 0.4513 0.2860 (  1530 PWs)   bands (ev):

   -34.8904   6.0902   8.1303  10.1188  13.3124  13.9218  15.6595  17.5498

          k = 0.4513 0.4513 0.0000 (  1540 PWs)   bands (ev):

   -34.8769   6.6128   7.6938  10.8367  12.9592  17.1629  19.8425  19.8714

          k = 0.4513 0.4513 0.0953 (  1534 PWs)   bands (ev):

   -34.8765   6.7842   7.8752  10.9910  12.8226  15.7814  17.2799  18.6183

          k = 0.4513 0.4513 0.1907 (  1536 PWs)   bands (ev):

   -34.8756   7.2434   8.3692  11.3116  12.7235  13.8199  14.9400  16.8222

          k = 0.4513 0.4513 0.2860 (  1534 PWs)   bands (ev):

   -34.8749   7.7387   8.9234  11.4904  12.2910  13.3891  13.4565  15.2139

     the Fermi energy is    10.8223 ev

!    total energy              =     -22.82079526 Ry
     estimated scf accuracy    <          3.9E-11 Ry
     smearing contrib. (-TS)   =      -0.00029538 Ry
     internal energy E=F+TS    =     -22.82049988 Ry

     The total energy is F=E-TS. E is the sum of the following terms:
     one-electron contribution =      -0.98252279 Ry
     hartree contribution      =       2.88473519 Ry
     xc contribution           =      -6.82261815 Ry
     ewald contribution        =     -17.90009413 Ry

     convergence has been achieved in   6 iterations

     Forces acting on atoms (cartesian axes, Ry/au):

     atom    1 type  1   force =     0.00000000    0.00000000    0.00000000
     atom    2 type  2   force =     0.00000000    0.00000000    0.00000000
     The non-local contrib.  to forces
     atom    1 type  1   force =     0.00000000    0.00000000    0.00000000
     atom    2 type  2   force =     0.00000000    0.00000000    0.00000000
     The ionic contribution  to forces
     atom    1 type  1   force =    -0.00000000   -0.00000000   -0.00000000
     atom    2 type  2   force =     0.00000000    0.00000000    0.00000000
     The local contribution  to forces
     atom    1 type  1   force =     0.00000000    0.00000000   -0.00000000
     atom    2 type  2   force =    -0.00000000   -0.00000000    0.00000000
     The core correction contribution to forces
     atom    1 type  1   force =     0.00000000    0.00000000    0.00000000
     atom    2 type  2   force =    -0.00000000   -0.00000000    0.00000000
     The Hubbard contrib.    to forces
     atom    1 type  1   force =     0.00000000    0.00000000    0.00000000
     atom    2 type  2   force =     0.00000000    0.00000000    0.00000000
     The SCF correction term to forces
     atom    1 type  1   force =     0.00000000   -0.00000000    0.00000000
     atom    2 type  2   force =    -0.00000000   -0.00000000   -0.00000000

     Total force =     0.000000     Total SCF correction =     0.000000


     Computing stress (Cartesian axis) and pressure

          total   stress  (Ry/bohr**3)                   (kbar)     P=      500.07
   0.00340027   0.00000000   0.00000000          500.20        0.00        0.00
   0.00000000   0.00340027   0.00000000            0.00      500.20        0.00
   0.00000000   0.00000000   0.00339760            0.00        0.00      499.80


     Writing all to output data dir ./output/LiSi.save/

     init_run     :      0.45s CPU      0.49s WALL (       2 calls)
     electrons    :      7.74s CPU     12.22s WALL (       6 calls)
     update_pot   :      0.52s CPU      0.54s WALL (       4 calls)
     forces       :      0.49s CPU      0.52s WALL (       6 calls)
     stress       :      1.75s CPU      1.83s WALL (       6 calls)

     Called by init_run:
     wfcinit      :      0.14s CPU      0.15s WALL (       2 calls)
     potinit      :      0.12s CPU      0.12s WALL (       2 calls)
     hinit0       :      0.19s CPU      0.21s WALL (       2 calls)

     Called by electrons:
     c_bands      :      6.70s CPU     10.99s WALL (      34 calls)
     sum_band     :      0.97s CPU      1.05s WALL (      34 calls)
     v_of_rho     :      0.06s CPU      0.07s WALL (      35 calls)
     mix_rho      :      0.01s CPU      0.02s WALL (      34 calls)

     Called by c_bands:
     init_us_2    :      0.31s CPU      0.37s WALL (    6888 calls)
     init_us_2:cp :      0.30s CPU      0.36s WALL (    6888 calls)
     cegterg      :      6.01s CPU      6.87s WALL (    2856 calls)

     Called by *egterg:
     cdiaghg      :      0.77s CPU      0.88s WALL (    9464 calls)
     h_psi        :      4.61s CPU      5.26s WALL (   10388 calls)
     g_psi        :      0.03s CPU      0.04s WALL (    7364 calls)

     Called by h_psi:
     h_psi:calbec :      0.31s CPU      0.36s WALL (   10388 calls)
     vloc_psi     :      4.08s CPU      4.64s WALL (   10388 calls)
     add_vuspsi   :      0.17s CPU      0.20s WALL (   10388 calls)

     General routines
     calbec       :      0.39s CPU      0.45s WALL (   12908 calls)
     fft          :      0.12s CPU      0.14s WALL (     503 calls)
     ffts         :      0.00s CPU      0.00s WALL (      34 calls)
     fftw         :      4.24s CPU      4.78s WALL (  145358 calls)

     Parallel routines

     PWSCF        :     11.26s CPU     16.42s WALL


   This run was terminated on:  22:17:59  11Feb2025            

=------------------------------------------------------------------------------=
   JOB DONE.
=------------------------------------------------------------------------------=
