
     Program PWSCF v.7.2 starts on 11Feb2025 at 22:41:51 

     This program is part of the open-source Quantum ESPRESSO suite
     for quantum simulation of materials; please cite
         "P. Giannozzi et al., J. Phys.:Condens. Matter 21 395502 (2009);
         "P. Giannozzi et al., J. Phys.:Condens. Matter 29 465901 (2017);
         "P. Giannozzi et al., J. Chem. Phys. 152 154105 (2020);
          URL http://www.quantum-espresso.org", 
     in publications or presentations arising from this work. More details at
     http://www.quantum-espresso.org/quote

     Parallel version (MPI & OpenMP), running on       8 processor cores
     Number of MPI processes:                 8
     Threads/MPI process:                     1

     MPI processes distributed on     1 nodes
     481697 MiB available memory on the printing compute node when the environment starts

     Waiting for input...
     Reading input from standard input

     Current dimensions of program PWSCF are:
     Max number of different atomic species (ntypx) = 10
     Max number of k-points (npk) =  40000
     Max angular momentum in pseudopotentials (lmaxx) =  4

     R & G space division:  proc/nbgrp/npool/nimage =       8
     Subspace diagonalization in iterative solution of the eigenvalue problem:
     a serial algorithm will be used


     Parallelization info
     --------------------
     sticks:   dense  smooth     PW     G-vecs:    dense   smooth      PW
     Min         238     238     71                 4962     4962     826
     Max         239     239     73                 4963     4963     827
     Sum        1909    1909    575                39701    39701    6613

     Using Slab Decomposition



     bravais-lattice index     =            5
     lattice parameter (alat)  =      12.0778  a.u.
     unit-cell volume          =     410.6173 (a.u.)^3
     number of atoms/cell      =            4
     number of atomic types    =            2
     number of electrons       =        14.00
     number of Kohn-Sham states=           11
     kinetic-energy cutoff     =      80.0000  Ry
     charge density cutoff     =     320.0000  Ry
     scf convergence threshold =      1.0E-08
     mixing beta               =       0.7000
     number of iterations used =            8  plain     mixing
     energy convergence thresh.=      1.0E-04
     force convergence thresh. =      1.0E-03
     press convergence thresh. =      1.0E+00
     Exchange-correlation= PBE
                           (   1   4   3   4   0   0   0)
     nstep                     =           50


     celldm(1)=  12.077750  celldm(2)=   0.000000  celldm(3)=   0.000000
     celldm(4)=   0.858611  celldm(5)=   0.000000  celldm(6)=   0.000000

     crystal axes: (cart. coord. in units of alat)
               a(1) = (   0.265885  -0.153509   0.951704 )  
               a(2) = (   0.000000   0.307017   0.951704 )  
               a(3) = (  -0.265885  -0.153509   0.951704 )  

     reciprocal axes: (cart. coord. in units 2 pi/alat)
               b(1) = (  1.880515 -1.085716  0.350249 )  
               b(2) = ( -0.000000  2.171431  0.350249 )  
               b(3) = ( -1.880515 -1.085716  0.350249 )  


     PseudoPot. # 1 for Li read from file:
     ../pseudo/Li_ONCV_PBE_sr.upf
     MD5 check sum: 50ff420e78310ffa21704f3361e624a4
     Pseudo is Norm-conserving, Zval =  3.0
     Generated using ONCVPSP code by D. R. Hamann
     Using radial grid of 1944 points,  4 beta functions with: 
                l(1) =   0
                l(2) =   0
                l(3) =   1
                l(4) =   1

     PseudoPot. # 2 for Si read from file:
     ../pseudo/Si_ONCV_PBE_sr.upf
     MD5 check sum: e543d271109d17c80368dfa7c482276d
     Pseudo is Norm-conserving + core correction, Zval =  4.0
     Generated using ONCVPSP code by D. R. Hamann
     Using radial grid of 1510 points,  6 beta functions with: 
                l(1) =   0
                l(2) =   0
                l(3) =   1
                l(4) =   1
                l(5) =   2
                l(6) =   2

     atomic species   valence    mass     pseudopotential
        Li             3.00     6.94100     Li( 1.00)
        Si             4.00    28.08550     Si( 1.00)

     12 Sym. Ops., with inversion, found



   Cartesian axes

     site n.     atom                  positions (alat units)
         1           Li  tau(   1) = (  -0.0000000  -0.0000000   1.1333281  )
         2           Li  tau(   2) = (  -0.0000000  -0.0000000   1.7217838  )
         3           Si  tau(   3) = (   0.0000000  -0.0000000   0.4631820  )
         4           Si  tau(   4) = (  -0.0000000  -0.0000000   2.3919300  )

     number of k points=    19  Marzari-Vanderbilt smearing, width (Ry)=  0.0200
                       cart. coord. in units 2pi/alat
        k(    1) = (   0.0000000   0.0000000   0.0000000), wk =   0.0160000
        k(    2) = (  -0.3761029  -0.2171431   0.0700498), wk =   0.0960000
        k(    3) = (  -0.7522059  -0.4342863   0.1400996), wk =   0.0960000
        k(    4) = (  -0.3761029   0.2171431   0.1400996), wk =   0.0960000
        k(    5) = (  -0.7522059   0.0000000   0.2101494), wk =   0.1920000
        k(    6) = (   0.7522059   0.8685725  -0.0700498), wk =   0.1920000
        k(    7) = (   0.3761029   0.6514294   0.0000000), wk =   0.0960000
        k(    8) = (  -0.7522059   0.4342863   0.2801992), wk =   0.0960000
        k(    9) = (   0.7522059   1.3028588   0.0000000), wk =   0.0960000
        k(   10) = (  -0.0000000   0.0000000   0.2101494), wk =   0.0320000
        k(   11) = (  -0.3761029  -0.2171431   0.2801992), wk =   0.0960000
        k(   12) = (   1.1283088   0.6514294   0.0000000), wk =   0.0960000
        k(   13) = (   0.7522059   0.4342863   0.0700498), wk =   0.0960000
        k(   14) = (  -0.3761029   0.2171431   0.3502490), wk =   0.0960000
        k(   15) = (   1.1283088   1.0857157   0.0700498), wk =   0.1920000
        k(   16) = (   0.7522059   0.8685725   0.1400996), wk =   0.1920000
        k(   17) = (   1.1283088  -0.6514294  -0.2101494), wk =   0.0960000
        k(   18) = (  -0.0000000   0.0000000   0.4202988), wk =   0.0320000
        k(   19) = (   1.5044118   0.8685725   0.1400996), wk =   0.0960000

     Dense  grid:    39701 G-vectors     FFT dimensions: (  72,  72,  72)

     Estimated max dynamical RAM per process >      19.93 MB

     Estimated total dynamical RAM >     159.43 MB

     Initial potential from superposition of free atoms

     starting charge      13.9897, renormalised to      14.0000
     Starting wfcs are   12 randomized atomic wfcs

     total cpu time spent up to now is        1.5 secs

     Self-consistent Calculation

     iteration #  1     ecut=    80.00 Ry     beta= 0.70
     Davidson diagonalization with overlap
     ethr =  1.00E-02,  avg # of iterations =  5.8

     total cpu time spent up to now is        2.6 secs

     total energy              =     -45.33971088 Ry
     estimated scf accuracy    <       0.33647154 Ry

     iteration #  2     ecut=    80.00 Ry     beta= 0.70
     Davidson diagonalization with overlap
     ethr =  2.40E-03,  avg # of iterations =  3.0

     total cpu time spent up to now is        3.4 secs

     total energy              =     -45.37870256 Ry
     estimated scf accuracy    <       0.83543134 Ry

     iteration #  3     ecut=    80.00 Ry     beta= 0.70
     Davidson diagonalization with overlap
     ethr =  2.40E-03,  avg # of iterations =  2.0

     total cpu time spent up to now is        4.0 secs

     total energy              =     -45.51163451 Ry
     estimated scf accuracy    <       0.00649276 Ry

     iteration #  4     ecut=    80.00 Ry     beta= 0.70
     Davidson diagonalization with overlap
     ethr =  4.64E-05,  avg # of iterations =  4.1

     total cpu time spent up to now is        4.8 secs

     total energy              =     -45.51294302 Ry
     estimated scf accuracy    <       0.00398401 Ry

     iteration #  5     ecut=    80.00 Ry     beta= 0.70
     Davidson diagonalization with overlap
     ethr =  2.85E-05,  avg # of iterations =  1.3

     total cpu time spent up to now is        5.3 secs

     total energy              =     -45.51370166 Ry
     estimated scf accuracy    <       0.00025733 Ry

     iteration #  6     ecut=    80.00 Ry     beta= 0.70
     Davidson diagonalization with overlap
     ethr =  1.84E-06,  avg # of iterations =  4.2

     total cpu time spent up to now is        5.9 secs

     total energy              =     -45.51375146 Ry
     estimated scf accuracy    <       0.00000897 Ry

     iteration #  7     ecut=    80.00 Ry     beta= 0.70
     Davidson diagonalization with overlap
     ethr =  6.41E-08,  avg # of iterations =  2.6

     total cpu time spent up to now is        6.5 secs

     total energy              =     -45.51375176 Ry
     estimated scf accuracy    <       0.00000261 Ry

     iteration #  8     ecut=    80.00 Ry     beta= 0.70
     Davidson diagonalization with overlap
     ethr =  1.86E-08,  avg # of iterations =  1.5

     total cpu time spent up to now is        7.0 secs

     total energy              =     -45.51375232 Ry
     estimated scf accuracy    <       0.00000024 Ry

     iteration #  9     ecut=    80.00 Ry     beta= 0.70
     Davidson diagonalization with overlap
     ethr =  1.69E-09,  avg # of iterations =  1.6

     total cpu time spent up to now is        7.5 secs

     End of self-consistent calculation

          k = 0.0000 0.0000 0.0000 (  4923 PWs)   bands (ev):

   -40.6934 -40.6834  -8.2409   0.0132   3.6461   4.0106   4.0106   7.7296
     7.7296  10.8185  11.3694

          k =-0.3761-0.2171 0.0700 (  4961 PWs)   bands (ev):

   -40.6913 -40.6830  -7.6177   0.5392   1.2470   2.9622   4.2159   7.1419
     9.2335   9.9204  11.7888

          k =-0.7522-0.4343 0.1401 (  4958 PWs)   bands (ev):

   -40.6873 -40.6827  -5.8341  -2.5050   1.9959   2.0023   5.4609   5.7764
     6.4285   9.4350  10.4180

          k =-0.3761 0.2171 0.1401 (  4960 PWs)   bands (ev):

   -40.6912 -40.6830  -7.6171   0.4990   1.2506   2.9581   4.3551   7.1440
     9.2087   9.9081  10.8713

          k =-0.7522 0.0000 0.2101 (  4959 PWs)   bands (ev):

   -40.6880 -40.6828  -6.3983  -0.8851   0.5612   1.4936   5.7080   6.7564
     8.8482   9.2706  10.5000

          k = 0.7522 0.8686-0.0700 (  4963 PWs)   bands (ev):

   -40.6855 -40.6832  -4.5248  -3.3733  -0.3789   3.0170   4.4938   7.3326
     8.3748   8.5268   9.1857

          k = 0.3761 0.6514 0.0000 (  4953 PWs)   bands (ev):

   -40.6881 -40.6826  -6.4002  -0.8829   0.5592   1.6032   5.2789   6.6964
     8.8750   9.2410  10.5174

          k =-0.7522 0.4343 0.2802 (  4969 PWs)   bands (ev):

   -40.6870 -40.6830  -5.8303  -2.5027   1.8479   1.9871   5.4597   5.9411
     6.7595  10.1165  10.9271

          k = 0.7522 1.3029 0.0000 (  4969 PWs)   bands (ev):

   -40.6851 -40.6836  -4.5179  -3.3766  -0.3824   2.8245   4.5519   8.0948
     8.5810   8.8258   9.4983

          k =-0.0000 0.0000 0.2101 (  4947 PWs)   bands (ev):

   -40.6933 -40.6836  -8.2395  -0.0903   4.0100   4.0100   4.0563   7.7252
     7.7252   9.7252  10.8304

          k =-0.3761-0.2171 0.2802 (  4953 PWs)   bands (ev):

   -40.6911 -40.6832  -7.6154   0.3881   1.2464   2.9621   4.8785   7.0882
     9.0612   9.9193  10.0671

          k = 1.1283 0.6514 0.0000 (  4969 PWs)   bands (ev):

   -40.6871 -40.6829  -5.8307  -2.5070   1.8406   1.9936   5.6609   6.0231
     6.9402   8.6269  10.5275

          k = 0.7522 0.4343 0.0700 (  4956 PWs)   bands (ev):

   -40.6872 -40.6828  -5.8338  -2.5023   1.9918   2.0085   5.3640   5.6714
     6.4335  10.4658  10.6152

          k =-0.3761 0.2171 0.3502 (  4946 PWs)   bands (ev):

   -40.6910 -40.6833  -7.6144   0.3336   1.2511   2.9555   5.1915   7.0732
     8.9552   9.3462   9.9002

          k = 1.1283 1.0857 0.0700 (  4978 PWs)   bands (ev):

   -40.6878 -40.6830  -6.3952  -0.8888   0.5653   1.3377   6.6856   6.8759
     8.5775   9.1927   9.6533

          k = 0.7522 0.8686 0.1401 (  4971 PWs)   bands (ev):

   -40.6853 -40.6834  -4.5205  -3.3754  -0.3810   2.8907   4.5472   7.5888
     8.4897   8.9597   9.4734

          k = 1.1283-0.6514-0.2101 (  4973 PWs)   bands (ev):

   -40.6869 -40.6831  -5.8284  -2.5056   1.7565   1.9882   5.5988   6.0659
     7.6035   8.4364  10.8496

          k =-0.0000 0.0000 0.4203 (  4913 PWs)   bands (ev):

   -40.6930 -40.6839  -8.2371  -0.2369   4.0091   4.0091   4.9459   7.7179
     7.7179   7.9855  10.8150

          k = 1.5044 0.8686 0.1401 (  4955 PWs)   bands (ev):

   -40.6909 -40.6834  -7.6133   0.2744   1.2483   2.9580   5.7611   6.8978
     8.2482   9.5681   9.9062

     the Fermi energy is     5.8946 ev

!    total energy              =     -45.51375235 Ry
     estimated scf accuracy    <          3.2E-09 Ry
     smearing contrib. (-TS)   =       0.00032535 Ry
     internal energy E=F+TS    =     -45.51407770 Ry

     The total energy is F=E-TS. E is the sum of the following terms:
     one-electron contribution =     -17.38090437 Ry
     hartree contribution      =      10.64024670 Ry
     xc contribution           =     -13.41014012 Ry
     ewald contribution        =     -25.36327991 Ry

     convergence has been achieved in   9 iterations

     Forces acting on atoms (cartesian axes, Ry/au):

     atom    1 type  1   force =    -0.00000000    0.00000000   -0.01327211
     atom    2 type  1   force =     0.00000000    0.00000000    0.01327211
     atom    3 type  2   force =    -0.00000000    0.00000000   -0.05678676
     atom    4 type  2   force =    -0.00000000    0.00000000    0.05678676
     The non-local contrib.  to forces
     atom    1 type  1   force =    -0.00000000   -0.00000000   -0.00840029
     atom    2 type  1   force =     0.00000000   -0.00000000    0.00840029
     atom    3 type  2   force =     0.00000000    0.00000000   -0.03178583
     atom    4 type  2   force =    -0.00000000    0.00000000    0.03178583
     The ionic contribution  to forces
     atom    1 type  1   force =    -0.00000000   -0.00000000   -2.11909687
     atom    2 type  1   force =     0.00000000    0.00000000    2.11909687
     atom    3 type  2   force =     0.00000000   -0.00000000   -0.39768078
     atom    4 type  2   force =     0.00000000    0.00000000    0.39768078
     The local contribution  to forces
     atom    1 type  1   force =    -0.00000000   -0.00000000    2.11417219
     atom    2 type  1   force =     0.00000000    0.00000000   -2.11417219
     atom    3 type  2   force =    -0.00000000    0.00000000    0.36942179
     atom    4 type  2   force =    -0.00000000   -0.00000000   -0.36942179
     The core correction contribution to forces
     atom    1 type  1   force =     0.00000000    0.00000000    0.00000000
     atom    2 type  1   force =     0.00000000    0.00000000    0.00000000
     atom    3 type  2   force =    -0.00000000    0.00000000    0.00325089
     atom    4 type  2   force =     0.00000000   -0.00000000   -0.00325089
     The Hubbard contrib.    to forces
     atom    1 type  1   force =     0.00000000    0.00000000    0.00000000
     atom    2 type  1   force =     0.00000000    0.00000000    0.00000000
     atom    3 type  2   force =     0.00000000    0.00000000    0.00000000
     atom    4 type  2   force =     0.00000000    0.00000000    0.00000000
     The SCF correction term to forces
     atom    1 type  1   force =     0.00000000    0.00000000    0.00005286
     atom    2 type  1   force =     0.00000000   -0.00000000   -0.00005286
     atom    3 type  2   force =     0.00000000    0.00000000    0.00000716
     atom    4 type  2   force =    -0.00000000   -0.00000000   -0.00000716

     Total force =     0.082473     Total SCF correction =     0.000075


     Computing stress (Cartesian axis) and pressure

          total   stress  (Ry/bohr**3)                   (kbar)     P=      377.32
   0.00362872   0.00000000   0.00000000          533.80        0.00        0.00
  -0.00000000   0.00362872   0.00000000           -0.00      533.80        0.00
   0.00000000   0.00000000   0.00043738            0.00        0.00       64.34


     BFGS Geometry Optimization
     Energy error            =      0.0E+00 Ry
     Gradient error          =      5.7E-02 Ry/Bohr
     Cell gradient error     =      4.4E+02 kbar

     number of scf cycles    =   1
     number of bfgs steps    =   0

     enthalpy           new  =     -44.1180926599 Ry

     new trust radius        =       0.3000595488 bohr
ibrav =      5
 celldm(1) =     11.27787312
 celldm(4) =      0.83597515
Input lattice vectors:
     0.26741206    -0.15439042     0.88124104
    -0.00000000     0.30878085     0.88124104
    -0.26741206    -0.15439042     0.88124104
New lattice vectors in INITIAL alat:
     0.26741206    -0.15439042     0.88124104
     0.00000000     0.30878085     0.88124104
    -0.26741206    -0.15439042     0.88124104
New lattice vectors in NEW alat (for information only):
     0.28637812    -0.16534048     0.94374260
     0.00000000     0.33068097     0.94374260
    -0.28637812    -0.16534048     0.94374260
Discrepancy in bohr =     0.000000    0.000000    0.000000
     new conv_thr            =       0.0000000100 Ry

     new unit-cell volume =    384.59662 a.u.^3 (    56.99134 Ang^3 )
     density =      2.04111 g/cm^3

CELL_PARAMETERS (alat= 12.07775034)
   0.267412060  -0.154390425   0.881241044
   0.000000000   0.308780849   0.881241044
  -0.267412060  -0.154390425   0.881241044

ATOMIC_POSITIONS (crystal)
Li            0.3965621151        0.3965621151        0.3965621151
Li            0.6034378849        0.6034378849        0.6034378849
Si            0.1605822111        0.1605822111        0.1605822111
Si            0.8394177889        0.8394177889        0.8394177889



     Writing config-only to output data dir ./output/LiSi.save/
     NEW-OLD atomic charge density approx. for the potential
     extrapolated charge   13.05350, renormalised to   14.00000

     total cpu time spent up to now is        9.1 secs

     Self-consistent Calculation

     iteration #  1     ecut=    80.00 Ry     beta= 0.70
     Davidson diagonalization with overlap
     c_bands:  1 eigenvalues not converged
     c_bands:  1 eigenvalues not converged
     ethr =  1.00E-06,  avg # of iterations = 10.4

     total cpu time spent up to now is       10.4 secs

     total energy              =     -45.35455977 Ry
     estimated scf accuracy    <       0.17427414 Ry

     iteration #  2     ecut=    80.00 Ry     beta= 0.70
     Davidson diagonalization with overlap
     ethr =  1.24E-03,  avg # of iterations =  3.2

     total cpu time spent up to now is       11.1 secs

     total energy              =     -45.46273764 Ry
     estimated scf accuracy    <       0.81132564 Ry

     iteration #  3     ecut=    80.00 Ry     beta= 0.70
     Davidson diagonalization with overlap
     ethr =  1.24E-03,  avg # of iterations =  2.0

     total cpu time spent up to now is       11.6 secs

     total energy              =     -45.52049043 Ry
     estimated scf accuracy    <       0.07903612 Ry

     iteration #  4     ecut=    80.00 Ry     beta= 0.70
     Davidson diagonalization with overlap
     ethr =  5.65E-04,  avg # of iterations =  1.2

     total cpu time spent up to now is       12.1 secs

     total energy              =     -45.51874100 Ry
     estimated scf accuracy    <       0.01724035 Ry

     iteration #  5     ecut=    80.00 Ry     beta= 0.70
     Davidson diagonalization with overlap
     ethr =  1.23E-04,  avg # of iterations =  2.6

     total cpu time spent up to now is       12.6 secs

     total energy              =     -45.52181370 Ry
     estimated scf accuracy    <       0.00004684 Ry

     iteration #  6     ecut=    80.00 Ry     beta= 0.70
     Davidson diagonalization with overlap
     ethr =  3.35E-07,  avg # of iterations =  5.7

     total cpu time spent up to now is       13.5 secs

     total energy              =     -45.52183662 Ry
     estimated scf accuracy    <       0.00120465 Ry

     iteration #  7     ecut=    80.00 Ry     beta= 0.70
     Davidson diagonalization with overlap
     ethr =  3.35E-07,  avg # of iterations =  2.0

     total cpu time spent up to now is       14.1 secs

     total energy              =     -45.52180800 Ry
     estimated scf accuracy    <       0.00023776 Ry

     iteration #  8     ecut=    80.00 Ry     beta= 0.70
     Davidson diagonalization with overlap
     ethr =  3.35E-07,  avg # of iterations =  2.0

     total cpu time spent up to now is       14.6 secs

     total energy              =     -45.52184721 Ry
     estimated scf accuracy    <       0.00000072 Ry

     iteration #  9     ecut=    80.00 Ry     beta= 0.70
     Davidson diagonalization with overlap
     ethr =  5.15E-09,  avg # of iterations =  3.7

     total cpu time spent up to now is       15.3 secs

     total energy              =     -45.52184734 Ry
     estimated scf accuracy    <       0.00000031 Ry

     iteration # 10     ecut=    80.00 Ry     beta= 0.70
     Davidson diagonalization with overlap
     ethr =  2.23E-09,  avg # of iterations =  2.0

     total cpu time spent up to now is       15.8 secs

     total energy              =     -45.52184742 Ry
     estimated scf accuracy    <       0.00000010 Ry

     iteration # 11     ecut=    80.00 Ry     beta= 0.70
     Davidson diagonalization with overlap
     ethr =  6.94E-10,  avg # of iterations =  1.0

     total cpu time spent up to now is       16.3 secs

     End of self-consistent calculation

          k = 0.0000 0.0000 0.0000 (  4923 PWs)   bands (ev):

   -40.1103 -40.0934  -7.5830   0.7665   4.2076   4.5789   4.5789   8.1319
     8.1319  11.1834  13.0337

          k =-0.3740-0.2159 0.0757 (  4961 PWs)   bands (ev):

   -40.1076 -40.0935  -6.9721   1.2505   1.7917   3.5075   4.7737   7.6593
     9.6535  10.3306  11.9994

          k =-0.7479-0.4318 0.1513 (  4958 PWs)   bands (ev):

   -40.1023 -40.0945  -5.2270  -1.9189   2.5358   2.5902   5.9238   6.3154
     7.1204  10.1896  10.6106

          k =-0.3740 0.2159 0.1513 (  4960 PWs)   bands (ev):

   -40.1074 -40.0937  -6.9706   1.1785   1.7998   3.4974   4.9632   7.6655
     9.5568  10.3116  12.4019

          k =-0.7479 0.0000 0.2270 (  4959 PWs)   bands (ev):

   -40.1032 -40.0944  -5.7749  -0.3330   1.1192   2.0756   6.3821   7.1742
     9.4204   9.8691  10.8973

          k = 0.7479 0.8636-0.0757 (  4963 PWs)   bands (ev):

   -40.0998 -40.0958  -3.9523  -2.7753   0.1995   3.5130   4.9738   7.9485
     8.9703   9.1564   9.8678

          k = 0.3740 0.6477 0.0000 (  4953 PWs)   bands (ev):

   -40.1036 -40.0941  -5.7795  -0.3276   1.1167   2.2632   5.8130   7.0765
     9.4418   9.7723  10.9123

          k =-0.7479 0.4318 0.3026 (  4969 PWs)   bands (ev):

   -40.1017 -40.0952  -5.2181  -1.9136   2.3317   2.5147   5.9810   6.4269
     7.5590  11.3133  11.3520

          k = 0.7479 1.2954 0.0000 (  4969 PWs)   bands (ev):

   -40.0989 -40.0967  -3.9363  -2.7828   0.1901   3.2104   5.0773   8.8456
     9.3568   9.3683  10.3852

          k = 0.0000 0.0000 0.2270 (  4947 PWs)   bands (ev):

   -40.1099 -40.0938  -7.5794   0.5808   4.5773   4.5773   4.7766   8.1227
     8.1227  11.1397  11.4397

          k =-0.3740-0.2159 0.3026 (  4953 PWs)   bands (ev):

   -40.1071 -40.0940  -6.9664   0.9885   1.7891   3.5073   5.6622   7.6091
     9.7778  10.3297  11.4190

          k = 1.1219 0.6477 0.0000 (  4969 PWs)   bands (ev):

   -40.1018 -40.0950  -5.2188  -1.9243   2.3279   2.5304   6.2727   6.5196
     7.8148   9.3597  10.7638

          k = 0.7479 0.4318 0.0757 (  4956 PWs)   bands (ev):

   -40.1022 -40.0946  -5.2265  -1.9123   2.5261   2.5950   5.8351   6.1504
     7.0886  10.8857  11.4498

          k =-0.3740 0.2159 0.3783 (  4946 PWs)   bands (ev):

   -40.1068 -40.0943  -6.9639   0.8997   1.7989   3.4911   6.0654   7.6112
     9.6939  10.3002  10.4338

          k = 1.1219 1.0795 0.0757 (  4978 PWs)   bands (ev):

   -40.1026 -40.0950  -5.7674  -0.3418   1.1256   1.8243   7.2827   7.7397
     9.2505   9.9818  10.4555

          k = 0.7479 0.8636 0.1513 (  4971 PWs)   bands (ev):

   -40.0993 -40.0962  -3.9424  -2.7799   0.1937   3.3089   5.0771   8.1909
     9.1857   9.4949  10.4638

          k = 1.1219-0.6477-0.2270 (  4973 PWs)   bands (ev):

   -40.1014 -40.0955  -5.2133  -1.9211   2.1942   2.5174   6.1850   6.5612
     8.5980   9.4053  11.2335

          k = 0.0000 0.0000 0.4539 (  4913 PWs)   bands (ev):

   -40.1093 -40.0945  -7.5736   0.3365   4.5748   4.5748   5.9882   8.1077
     8.1077   9.3100  11.1517

          k = 1.4958 0.8636 0.1513 (  4955 PWs)   bands (ev):

   -40.1066 -40.0946  -6.9613   0.8049   1.7916   3.4972   6.8790   7.3907
     9.3721  10.1689  10.3086

     the Fermi energy is     6.5098 ev

!    total energy              =     -45.52184743 Ry
     estimated scf accuracy    <          6.4E-10 Ry
     smearing contrib. (-TS)   =       0.00030337 Ry
     internal energy E=F+TS    =     -45.52215080 Ry

     The total energy is F=E-TS. E is the sum of the following terms:
     one-electron contribution =     -14.98702256 Ry
     hartree contribution      =       9.76621555 Ry
     xc contribution           =     -13.44846853 Ry
     ewald contribution        =     -26.85287527 Ry

     convergence has been achieved in  11 iterations

     Forces acting on atoms (cartesian axes, Ry/au):

     atom    1 type  1   force =    -0.00000000    0.00000000   -0.01745740
     atom    2 type  1   force =     0.00000000   -0.00000000    0.01745740
     atom    3 type  2   force =    -0.00000000    0.00000000   -0.06311174
     atom    4 type  2   force =     0.00000000   -0.00000000    0.06311174
     The non-local contrib.  to forces
     atom    1 type  1   force =    -0.00000000    0.00000000   -0.02025469
     atom    2 type  1   force =     0.00000000   -0.00000000    0.02025469
     atom    3 type  2   force =    -0.00000000    0.00000000   -0.03688834
     atom    4 type  2   force =     0.00000000    0.00000000    0.03688834
     The ionic contribution  to forces
     atom    1 type  1   force =    -0.00000000   -0.00000000   -1.95646920
     atom    2 type  1   force =     0.00000000    0.00000000    1.95646920
     atom    3 type  2   force =    -0.00000000   -0.00000000   -0.46515757
     atom    4 type  2   force =    -0.00000000    0.00000000    0.46515757
     The local contribution  to forces
     atom    1 type  1   force =    -0.00000000    0.00000000    1.95924296
     atom    2 type  1   force =     0.00000000    0.00000000   -1.95924296
     atom    3 type  2   force =     0.00000000    0.00000000    0.43508205
     atom    4 type  2   force =    -0.00000000   -0.00000000   -0.43508205
     The core correction contribution to forces
     atom    1 type  1   force =     0.00000000    0.00000000    0.00000000
     atom    2 type  1   force =     0.00000000    0.00000000    0.00000000
     atom    3 type  2   force =     0.00000000    0.00000000    0.00384820
     atom    4 type  2   force =    -0.00000000   -0.00000000   -0.00384820
     The Hubbard contrib.    to forces
     atom    1 type  1   force =     0.00000000    0.00000000    0.00000000
     atom    2 type  1   force =     0.00000000    0.00000000    0.00000000
     atom    3 type  2   force =     0.00000000    0.00000000    0.00000000
     atom    4 type  2   force =     0.00000000    0.00000000    0.00000000
     The SCF correction term to forces
     atom    1 type  1   force =     0.00000000    0.00000000    0.00002353
     atom    2 type  1   force =    -0.00000000   -0.00000000   -0.00002353
     atom    3 type  2   force =    -0.00000000   -0.00000000    0.00000393
     atom    4 type  2   force =    -0.00000000   -0.00000000   -0.00000393

     Total force =     0.092605     Total SCF correction =     0.000034


     Computing stress (Cartesian axis) and pressure

          total   stress  (Ry/bohr**3)                   (kbar)     P=      402.17
   0.00379628  -0.00000000   0.00000000          558.45       -0.00        0.00
  -0.00000000   0.00379628   0.00000000           -0.00      558.45        0.00
   0.00000000   0.00000000   0.00060903            0.00        0.00       89.59

     Energy error            =      9.7E-02 Ry
     Gradient error          =      6.3E-02 Ry/Bohr
     Cell gradient error     =      4.1E+02 kbar

     number of scf cycles    =   2
     number of bfgs steps    =   1

     enthalpy           old  =     -44.1180926599 Ry
     enthalpy           new  =     -44.2146300915 Ry

     CASE: enthalpy          _new < enthalpy          _old


     WARNING: bfgs curvature condition failed, Theta= 0.828
     new trust radius        =       0.3449780314 bohr
ibrav =      5
 celldm(1) =     10.40994151
 celldm(4) =      0.80433484
Input lattice vectors:
     0.26959014    -0.15564794     0.80373181
    -0.00000000     0.31129588     0.80373181
    -0.26959014    -0.15564794     0.80373181
New lattice vectors in INITIAL alat:
     0.26959014    -0.15564794     0.80373181
     0.00000000     0.31129588     0.80373181
    -0.26959014    -0.15564794     0.80373181
New lattice vectors in NEW alat (for information only):
     0.31278200    -0.18058477     0.93250016
     0.00000000     0.36116955     0.93250016
    -0.31278200    -0.18058477     0.93250016
Discrepancy in bohr =     0.000000    0.000000    0.000000
     new conv_thr            =       0.0000000063 Ry

     new unit-cell volume =    356.50689 a.u.^3 (    52.82887 Ang^3 )
     density =      2.20194 g/cm^3

CELL_PARAMETERS (alat= 12.07775034)
   0.269590136  -0.155647938   0.803731813
   0.000000000   0.311295876   0.803731813
  -0.269590136  -0.155647938   0.803731813

ATOMIC_POSITIONS (crystal)
Li            0.3960881601        0.3960881601        0.3960881601
Li            0.6039118399        0.6039118399        0.6039118399
Si            0.1587085273        0.1587085273        0.1587085273
Si            0.8412914727        0.8412914727        0.8412914727



     Writing config-only to output data dir ./output/LiSi.save/
     NEW-OLD atomic charge density approx. for the potential

     negative rho (up, down):  1.462E-06 0.000E+00
     extrapolated charge   12.89773, renormalised to   14.00000

     total cpu time spent up to now is       17.8 secs

     Self-consistent Calculation

     iteration #  1     ecut=    80.00 Ry     beta= 0.70
     Davidson diagonalization with overlap
     ethr =  1.00E-06,  avg # of iterations =  9.9

     total cpu time spent up to now is       19.1 secs

     total energy              =     -45.41540644 Ry
     estimated scf accuracy    <       0.11512466 Ry

     iteration #  2     ecut=    80.00 Ry     beta= 0.70
     Davidson diagonalization with overlap
     ethr =  8.22E-04,  avg # of iterations =  2.6

     total cpu time spent up to now is       19.8 secs

     total energy              =     -45.51033732 Ry
     estimated scf accuracy    <       0.39369953 Ry

     iteration #  3     ecut=    80.00 Ry     beta= 0.70
     Davidson diagonalization with overlap
     ethr =  8.22E-04,  avg # of iterations =  2.0

     total cpu time spent up to now is       20.4 secs

     total energy              =     -45.52458362 Ry
     estimated scf accuracy    <       0.04737956 Ry

     iteration #  4     ecut=    80.00 Ry     beta= 0.70
     Davidson diagonalization with overlap
     ethr =  3.38E-04,  avg # of iterations =  1.3

     total cpu time spent up to now is       20.8 secs

     total energy              =     -45.52900446 Ry
     estimated scf accuracy    <       0.00197999 Ry

     iteration #  5     ecut=    80.00 Ry     beta= 0.70
     Davidson diagonalization with overlap
     ethr =  1.41E-05,  avg # of iterations =  3.5

     total cpu time spent up to now is       21.4 secs

     total energy              =     -45.52952014 Ry
     estimated scf accuracy    <       0.00002870 Ry

     iteration #  6     ecut=    80.00 Ry     beta= 0.70
     Davidson diagonalization with overlap
     ethr =  2.05E-07,  avg # of iterations =  3.5

     total cpu time spent up to now is       22.0 secs

     total energy              =     -45.52947616 Ry
     estimated scf accuracy    <       0.00026459 Ry

     iteration #  7     ecut=    80.00 Ry     beta= 0.70
     Davidson diagonalization with overlap
     ethr =  2.05E-07,  avg # of iterations =  2.0

     total cpu time spent up to now is       22.6 secs

     total energy              =     -45.52950462 Ry
     estimated scf accuracy    <       0.00000551 Ry

     iteration #  8     ecut=    80.00 Ry     beta= 0.70
     Davidson diagonalization with overlap
     ethr =  3.94E-08,  avg # of iterations =  2.2

     total cpu time spent up to now is       23.1 secs

     total energy              =     -45.52950638 Ry
     estimated scf accuracy    <       0.00000150 Ry

     iteration #  9     ecut=    80.00 Ry     beta= 0.70
     Davidson diagonalization with overlap
     ethr =  1.07E-08,  avg # of iterations =  1.2

     total cpu time spent up to now is       23.6 secs

     total energy              =     -45.52950661 Ry
     estimated scf accuracy    <       0.00000001 Ry

     iteration # 10     ecut=    80.00 Ry     beta= 0.70
     Davidson diagonalization with overlap
     ethr =  9.05E-11,  avg # of iterations =  3.7

     total cpu time spent up to now is       24.2 secs

     total energy              =     -45.52950661 Ry
     estimated scf accuracy    <       0.00000002 Ry

     iteration # 11     ecut=    80.00 Ry     beta= 0.70
     Davidson diagonalization with overlap
     ethr =  9.05E-11,  avg # of iterations =  1.1

     total cpu time spent up to now is       24.7 secs

     total energy              =     -45.52950661 Ry
     estimated scf accuracy    <       0.00000001 Ry

     iteration # 12     ecut=    80.00 Ry     beta= 0.70
     Davidson diagonalization with overlap
     ethr =  7.26E-11,  avg # of iterations =  1.6

     total cpu time spent up to now is       25.1 secs

     End of self-consistent calculation

          k = 0.0000 0.0000 0.0000 (  4923 PWs)   bands (ev):

   -39.4267 -39.3975  -6.7355   1.7772   4.9422   5.2865   5.2865   8.6165
     8.6165  11.6273  14.2950

          k =-0.3709-0.2142 0.0829 (  4961 PWs)   bands (ev):

   -39.4231 -39.3985  -6.1433   2.1947   2.4732   4.1870   5.5111   8.3342
    10.1503  10.8196  12.2569

          k =-0.7419-0.4283 0.1659 (  4958 PWs)   bands (ev):

   -39.4157 -39.4017  -4.4587  -1.1696   3.2119   3.3623   6.5108   6.9898
     8.0941  10.8325  11.2242

          k =-0.3709 0.2142 0.1659 (  4960 PWs)   bands (ev):

   -39.4227 -39.3989  -6.1392   2.0546   2.4942   4.1601   5.7865   8.3497
     9.9534  10.7947  12.8664

          k =-0.7419 0.0000 0.2488 (  4959 PWs)   bands (ev):

   -39.4167 -39.4015  -4.9779   0.3563   1.8334   2.8091   7.2697   7.7424
    10.1649  10.6090  11.3582

          k = 0.7419 0.8566-0.0829 (  4963 PWs)   bands (ev):

   -39.4119 -39.4042  -3.2393  -2.0094   0.9498   4.1587   5.5619   8.7502
     9.6764   9.9950  10.9056

          k = 0.3709 0.6425 0.0000 (  4953 PWs)   bands (ev):

   -39.4175 -39.4007  -4.9902   0.3698   1.8321   3.1488   6.5041   7.5486
    10.1777  10.3981  11.3842

          k =-0.7419 0.4283 0.3318 (  4969 PWs)   bands (ev):

   -39.4140 -39.4034  -4.4359  -1.1570   2.9127   3.1574   6.6094   7.0611
     8.7079  11.9573  12.9358

          k = 0.7419 1.2850 0.0000 (  4969 PWs)   bands (ev):

   -39.4094 -39.4067  -3.1994  -2.0276   0.9240   3.6732   5.7348   9.8439
     9.9973  10.5306  11.3050

          k = 0.0000 0.0000 0.2488 (  4947 PWs)   bands (ev):

   -39.4258 -39.3984  -6.7257   1.4216   5.2817   5.2817   5.7908   8.5968
     8.5968  11.5880  13.4671

          k =-0.3709-0.2142 0.3318 (  4953 PWs)   bands (ev):

   -39.4217 -39.3999  -6.1278   1.7177   2.4624   4.1866   6.7438   8.3262
    10.5301  10.8179  13.0419

          k = 1.1128 0.6425 0.0000 (  4969 PWs)   bands (ev):

   -39.4144 -39.4030  -4.4372  -1.1850   2.9207   3.1978   7.0514   7.1856
     9.0345  10.3600  11.0536

          k = 0.7419 0.4283 0.0829 (  4956 PWs)   bands (ev):

   -39.4155 -39.4019  -4.4579  -1.1524   3.1865   3.3576   6.4466   6.7467
     7.9667  11.2307  12.8525

          k =-0.3709 0.2142 0.4147 (  4946 PWs)   bands (ev):

   -39.4210 -39.4005  -6.1210   1.5704   2.4851   4.1434   7.2296   8.4116
    10.1714  10.7789  12.3289

          k = 1.1128 1.0708 0.0829 (  4978 PWs)   bands (ev):

   -39.4151 -39.4031  -4.9576   0.3338   1.8413   2.3941   7.8990   9.1216
    10.0979  10.8168  11.3225

          k = 0.7419 0.8566 0.1659 (  4971 PWs)   bands (ev):

   -39.4106 -39.4054  -3.2150  -2.0203   0.9339   3.8180   5.7581   8.9766
    10.0290  10.2212  11.8419

          k = 1.1128-0.6425-0.2488 (  4973 PWs)   bands (ev):

   -39.4131 -39.4042  -4.4229  -1.1775   2.7037   3.1642   6.9133   7.2082
     9.9109  10.8960  11.7644

          k = 0.0000 0.0000 0.4977 (  4913 PWs)   bands (ev):

   -39.4241 -39.4001  -6.7097   1.0047   5.2740   5.2740   7.5274   8.5642
     8.5642  11.0562  11.5393

          k = 1.4837 0.8566 0.1659 (  4955 PWs)   bands (ev):

   -39.4203 -39.4013  -6.1139   1.4162   2.4647   4.1594   7.9664   8.6024
    10.4771  10.7846  11.3098

     the Fermi energy is     7.3089 ev

!    total energy              =     -45.52950661 Ry
     estimated scf accuracy    <          1.0E-11 Ry
     smearing contrib. (-TS)   =      -0.00013163 Ry
     internal energy E=F+TS    =     -45.52937498 Ry

     The total energy is F=E-TS. E is the sum of the following terms:
     one-electron contribution =     -12.35666755 Ry
     hartree contribution      =       8.85016636 Ry
     xc contribution           =     -13.49545094 Ry
     ewald contribution        =     -28.52742286 Ry

     convergence has been achieved in  12 iterations

     Forces acting on atoms (cartesian axes, Ry/au):

     atom    1 type  1   force =     0.00000000   -0.00000000   -0.02319754
     atom    2 type  1   force =    -0.00000000   -0.00000000    0.02319754
     atom    3 type  2   force =     0.00000000    0.00000000   -0.06183973
     atom    4 type  2   force =    -0.00000000    0.00000000    0.06183973
     The non-local contrib.  to forces
     atom    1 type  1   force =    -0.00000000    0.00000000   -0.04012035
     atom    2 type  1   force =     0.00000000   -0.00000000    0.04012035
     atom    3 type  2   force =    -0.00000000   -0.00000000   -0.03465525
     atom    4 type  2   force =     0.00000000    0.00000000    0.03465525
     The ionic contribution  to forces
     atom    1 type  1   force =    -0.00000000   -0.00000000   -1.74125425
     atom    2 type  1   force =     0.00000000    0.00000000    1.74125425
     atom    3 type  2   force =    -0.00000000   -0.00000000   -0.50115589
     atom    4 type  2   force =    -0.00000000    0.00000000    0.50115589
     The local contribution  to forces
     atom    1 type  1   force =    -0.00000000    0.00000000    1.75817557
     atom    2 type  1   force =    -0.00000000    0.00000000   -1.75817557
     atom    3 type  2   force =     0.00000000    0.00000000    0.47002449
     atom    4 type  2   force =    -0.00000000   -0.00000000   -0.47002449
     The core correction contribution to forces
     atom    1 type  1   force =     0.00000000    0.00000000    0.00000000
     atom    2 type  1   force =     0.00000000    0.00000000    0.00000000
     atom    3 type  2   force =    -0.00000000    0.00000000    0.00394622
     atom    4 type  2   force =     0.00000000   -0.00000000   -0.00394622
     The Hubbard contrib.    to forces
     atom    1 type  1   force =     0.00000000    0.00000000    0.00000000
     atom    2 type  1   force =     0.00000000    0.00000000    0.00000000
     atom    3 type  2   force =     0.00000000    0.00000000    0.00000000
     atom    4 type  2   force =     0.00000000    0.00000000    0.00000000
     The SCF correction term to forces
     atom    1 type  1   force =     0.00000000    0.00000000    0.00000149
     atom    2 type  1   force =    -0.00000000    0.00000000   -0.00000149
     atom    3 type  2   force =     0.00000000   -0.00000000    0.00000070
     atom    4 type  2   force =    -0.00000000    0.00000000   -0.00000070

     Total force =     0.093405     Total SCF correction =     0.000002


     Computing stress (Cartesian axis) and pressure

          total   stress  (Ry/bohr**3)                   (kbar)     P=      433.27
   0.00405561   0.00000000  -0.00000000          596.60        0.00       -0.00
   0.00000000   0.00405561   0.00000000            0.00      596.60        0.00
  -0.00000000   0.00000000   0.00072469           -0.00        0.00      106.61

     Energy error            =      1.0E-01 Ry
     Gradient error          =      6.2E-02 Ry/Bohr
     Cell gradient error     =      3.9E+02 kbar

     number of scf cycles    =   3
     number of bfgs steps    =   2

     enthalpy           old  =     -44.2146300915 Ry
     enthalpy           new  =     -44.3177643336 Ry

     CASE: enthalpy          _new < enthalpy          _old

     new trust radius        =       0.5462575929 bohr
ibrav =      5
 celldm(1) =      9.14122085
 celldm(4) =      0.73754182
Input lattice vectors:
     0.27417838    -0.15829696     0.68746797
     0.00000000     0.31659393     0.68746797
    -0.27417838    -0.15829696     0.68746797
New lattice vectors in INITIAL alat:
     0.27417838    -0.15829696     0.68746797
     0.00000000     0.31659393     0.68746797
    -0.27417838    -0.15829696     0.68746797
New lattice vectors in NEW alat (for information only):
     0.36225556    -0.20914834     0.90831045
     0.00000000     0.41829669     0.90831045
    -0.36225556    -0.20914834     0.90831045
Discrepancy in bohr =     0.000000    0.000000    0.000000
     new conv_thr            =       0.0000000062 Ry

     new unit-cell volume =    315.40434 a.u.^3 (    46.73810 Ang^3 )
     density =      2.48888 g/cm^3

CELL_PARAMETERS (alat= 12.07775034)
   0.274178385  -0.158296964   0.687467966
   0.000000000   0.316593928   0.687467966
  -0.274178385  -0.158296964   0.687467966

ATOMIC_POSITIONS (crystal)
Li            0.3952688500        0.3952688500        0.3952688500
Li            0.6047311500        0.6047311500        0.6047311500
Si            0.1560492682        0.1560492682        0.1560492682
Si            0.8439507318        0.8439507318        0.8439507318



     Writing config-only to output data dir ./output/LiSi.save/
     NEW-OLD atomic charge density approx. for the potential

     negative rho (up, down):  5.144E-05 0.000E+00
     extrapolated charge   12.17691, renormalised to   14.00000

     total cpu time spent up to now is       26.6 secs

     Self-consistent Calculation

     iteration #  1     ecut=    80.00 Ry     beta= 0.70
     Davidson diagonalization with overlap
     c_bands:  1 eigenvalues not converged
     ethr =  1.00E-06,  avg # of iterations = 12.1

     total cpu time spent up to now is       28.1 secs

     total energy              =     -45.42524472 Ry
     estimated scf accuracy    <       0.11111754 Ry

     iteration #  2     ecut=    80.00 Ry     beta= 0.70
     Davidson diagonalization with overlap
     ethr =  7.94E-04,  avg # of iterations =  2.9

     total cpu time spent up to now is       28.7 secs

     total energy              =     -45.53208202 Ry
     estimated scf accuracy    <       0.21255203 Ry

     iteration #  3     ecut=    80.00 Ry     beta= 0.70
     Davidson diagonalization with overlap
     ethr =  7.94E-04,  avg # of iterations =  2.0

     total cpu time spent up to now is       29.2 secs

     total energy              =     -45.54285746 Ry
     estimated scf accuracy    <       0.02091683 Ry

     iteration #  4     ecut=    80.00 Ry     beta= 0.70
     Davidson diagonalization with overlap
     ethr =  1.49E-04,  avg # of iterations =  1.6

     total cpu time spent up to now is       29.7 secs

     total energy              =     -45.54416945 Ry
     estimated scf accuracy    <       0.00182273 Ry

     iteration #  5     ecut=    80.00 Ry     beta= 0.70
     Davidson diagonalization with overlap
     ethr =  1.30E-05,  avg # of iterations =  2.9

     total cpu time spent up to now is       30.2 secs

     total energy              =     -45.54454742 Ry
     estimated scf accuracy    <       0.00000965 Ry

     iteration #  6     ecut=    80.00 Ry     beta= 0.70
     Davidson diagonalization with overlap
     ethr =  6.89E-08,  avg # of iterations =  4.1

     total cpu time spent up to now is       30.9 secs

     total energy              =     -45.54456447 Ry
     estimated scf accuracy    <       0.00000555 Ry

     iteration #  7     ecut=    80.00 Ry     beta= 0.70
     Davidson diagonalization with overlap
     ethr =  3.97E-08,  avg # of iterations =  2.0

     total cpu time spent up to now is       31.4 secs

     total energy              =     -45.54456557 Ry
     estimated scf accuracy    <       0.00000004 Ry

     iteration #  8     ecut=    80.00 Ry     beta= 0.70
     Davidson diagonalization with overlap
     ethr =  2.72E-10,  avg # of iterations =  3.5

     total cpu time spent up to now is       32.0 secs

     total energy              =     -45.54456558 Ry
     estimated scf accuracy    <       0.00000003 Ry

     iteration #  9     ecut=    80.00 Ry     beta= 0.70
     Davidson diagonalization with overlap
     ethr =  2.13E-10,  avg # of iterations =  1.6

     total cpu time spent up to now is       32.5 secs

     End of self-consistent calculation

          k = 0.0000 0.0000 0.0000 (  4923 PWs)   bands (ev):

   -38.1040 -38.0387  -5.4252   3.7157   6.2882   6.2882   6.5200   9.2207
     9.2207  12.2593  15.0396

          k =-0.3647-0.2106 0.0970 (  4961 PWs)   bands (ev):

   -38.0978 -38.0423  -4.8725   3.4493   3.9794   5.1569   7.0679   9.4143
    10.9366  11.4106  12.7046

          k =-0.7295-0.4211 0.1939 (  4958 PWs)   bands (ev):

   -38.0854 -38.0507  -3.3194  -0.0344   4.1937   4.8131   7.5917   8.0410
    10.1432  11.2118  13.4840

          k =-0.3647 0.2106 0.1939 (  4960 PWs)   bands (ev):

   -38.0964 -38.0437  -4.8564   3.4701   3.6883   5.0530   7.4896   9.5221
    10.5451  11.4213  13.7900

          k =-0.7295 0.0000 0.2909 (  4959 PWs)   bands (ev):

   -38.0855 -38.0514  -3.7614   1.3523   2.9086   4.0917   8.3930   9.4693
    11.3539  11.7987  12.0994

          k = 0.7295 0.8423-0.0970 (  4963 PWs)   bands (ev):

   -38.0785 -38.0564  -2.2129  -0.8434   2.1148   5.3227   6.6141  10.2452
    10.8541  11.4741  13.4175

          k = 0.3647 0.6317 0.0000 (  4953 PWs)   bands (ev):

   -38.0888 -38.0481  -3.8083   1.4004   2.9175   4.8630   7.7460   8.5482
    11.3427  11.3723  12.0184

          k =-0.7295 0.4211 0.3879 (  4969 PWs)   bands (ev):

   -38.0783 -38.0578  -3.2344   0.0058   3.8734   3.9946   7.6203   8.0409
    11.3335  13.2371  15.2091

          k = 0.7295 1.2634 0.0000 (  4969 PWs)   bands (ev):

   -38.0684 -38.0665  -2.0740  -0.9074   2.0181   4.4469   6.8991  10.8494
    11.7365  12.9869  13.2178

          k = 0.0000 0.0000 0.2909 (  4947 PWs)   bands (ev):

   -38.1001 -38.0425  -5.3860   2.8614   6.2650   6.2650   8.0734   9.1704
     9.1704  12.1283  15.3413

          k =-0.3647-0.2106 0.3879 (  4953 PWs)   bands (ev):

   -38.0922 -38.0480  -4.8108   2.9158   3.4008   5.1551   8.5646  10.0375
    11.3790  11.8054  12.6241

          k = 1.0942 0.6317 0.0000 (  4969 PWs)   bands (ev):

   -38.0803 -38.0558  -3.2384  -0.0937   3.9232   4.1402   8.0985   8.6225
    11.3354  11.5917  12.8976

          k = 0.7295 0.4211 0.0970 (  4956 PWs)   bands (ev):

   -38.0846 -38.0515  -3.3170   0.0284   4.0983   4.7375   7.5596   7.7538
     9.7206  11.9023  15.7535

          k =-0.3647 0.2106 0.4849 (  4946 PWs)   bands (ev):

   -38.0891 -38.0510  -4.7833   2.6388   3.4750   4.9908   8.6543  10.8803
    10.9428  11.3867  14.1940

          k = 1.0942 1.0529 0.0970 (  4978 PWs)   bands (ev):

   -38.0780 -38.0588  -3.6814   1.2726   2.8975   3.3003   9.0281  10.7993
    11.7527  12.1969  12.8209

          k = 0.7295 0.8423 0.1939 (  4971 PWs)   bands (ev):

   -38.0743 -38.0606  -2.1310  -0.8774   2.0533   4.6648   7.0317  10.4110
    11.1182  11.9749  14.4949

          k = 1.0942-0.6317-0.2909 (  4973 PWs)   bands (ev):

   -38.0734 -38.0627  -3.1827  -0.0735   3.5156   4.0184   8.0548   8.2853
    12.4580  12.8623  14.6939

          k = 0.0000 0.0000 0.5818 (  4913 PWs)   bands (ev):

   -38.0923 -38.0503  -5.3196   2.0358   6.2301   6.2301   9.0775   9.0775
    10.9523  11.9624  14.4898

          k = 1.4589 0.8423 0.1939 (  4955 PWs)   bands (ev):

   -38.0854 -38.0547  -4.7535   2.3468   3.3957   5.0504   8.8193  11.3342
    11.8216  12.5489  13.6938

     the Fermi energy is     8.5641 ev

!    total energy              =     -45.54456558 Ry
     estimated scf accuracy    <          1.6E-09 Ry
     smearing contrib. (-TS)   =      -0.00018330 Ry
     internal energy E=F+TS    =     -45.54438228 Ry

     The total energy is F=E-TS. E is the sum of the following terms:
     one-electron contribution =      -8.39818949 Ry
     hartree contribution      =       7.53069398 Ry
     xc contribution           =     -13.56467101 Ry
     ewald contribution        =     -31.11221575 Ry

     convergence has been achieved in   9 iterations

     Forces acting on atoms (cartesian axes, Ry/au):

     atom    1 type  1   force =     0.00000000    0.00000000   -0.04659169
     atom    2 type  1   force =    -0.00000000   -0.00000000    0.04659169
     atom    3 type  2   force =    -0.00000000    0.00000000   -0.04750666
     atom    4 type  2   force =     0.00000000   -0.00000000    0.04750666
     The non-local contrib.  to forces
     atom    1 type  1   force =    -0.00000000   -0.00000000   -0.04814168
     atom    2 type  1   force =     0.00000000    0.00000000    0.04814168
     atom    3 type  2   force =    -0.00000000   -0.00000000   -0.01807878
     atom    4 type  2   force =     0.00000000    0.00000000    0.01807878
     The ionic contribution  to forces
     atom    1 type  1   force =    -0.00000000   -0.00000000   -1.35085685
     atom    2 type  1   force =     0.00000000    0.00000000    1.35085685
     atom    3 type  2   force =     0.00000000   -0.00000000   -0.48495097
     atom    4 type  2   force =     0.00000000    0.00000000    0.48495097
     The local contribution  to forces
     atom    1 type  1   force =    -0.00000000    0.00000000    1.35237376
     atom    2 type  1   force =    -0.00000000    0.00000000   -1.35237376
     atom    3 type  2   force =     0.00000000    0.00000000    0.45233088
     atom    4 type  2   force =    -0.00000000   -0.00000000   -0.45233088
     The core correction contribution to forces
     atom    1 type  1   force =     0.00000000    0.00000000    0.00000000
     atom    2 type  1   force =     0.00000000    0.00000000    0.00000000
     atom    3 type  2   force =     0.00000000    0.00000000    0.00318394
     atom    4 type  2   force =    -0.00000000   -0.00000000   -0.00318394
     The Hubbard contrib.    to forces
     atom    1 type  1   force =     0.00000000    0.00000000    0.00000000
     atom    2 type  1   force =     0.00000000    0.00000000    0.00000000
     atom    3 type  2   force =     0.00000000    0.00000000    0.00000000
     atom    4 type  2   force =     0.00000000    0.00000000    0.00000000
     The SCF correction term to forces
     atom    1 type  1   force =     0.00000000   -0.00000000    0.00003308
     atom    2 type  1   force =     0.00000000   -0.00000000   -0.00003308
     atom    3 type  2   force =    -0.00000000    0.00000000    0.00000828
     atom    4 type  2   force =     0.00000000    0.00000000   -0.00000828

     Total force =     0.094103     Total SCF correction =     0.000048


     Computing stress (Cartesian axis) and pressure

          total   stress  (Ry/bohr**3)                   (kbar)     P=      482.88
   0.00443451  -0.00000000  -0.00000000          652.34       -0.00       -0.00
   0.00000000   0.00443451   0.00000000            0.00      652.34        0.00
   0.00000000   0.00000000   0.00097868            0.00        0.00      143.97

     Energy error            =      1.5E-01 Ry
     Gradient error          =      4.8E-02 Ry/Bohr
     Cell gradient error     =      3.6E+02 kbar

     number of scf cycles    =   4
     number of bfgs steps    =   3

     enthalpy           old  =     -44.3177643336 Ry
     enthalpy           new  =     -44.4725280317 Ry

     CASE: enthalpy          _new < enthalpy          _old

     new trust radius        =       0.8000000000 bohr
ibrav =      5
 celldm(1) =      7.53578358
 celldm(4) =      0.59309294
Input lattice vectors:
     0.28143298    -0.16248541     0.53262958
    -0.00000000     0.32497081     0.53262958
    -0.28143298    -0.16248541     0.53262958
New lattice vectors in INITIAL alat:
     0.28143298    -0.16248541     0.53262958
     0.00000000     0.32497081     0.53262958
    -0.28143298    -0.16248541     0.53262958
New lattice vectors in NEW alat (for information only):
     0.45105824    -0.26041859     0.85365603
     0.00000000     0.52083719     0.85365603
    -0.45105824    -0.26041859     0.85365603
Discrepancy in bohr =     0.000000    0.000000    0.000000
     new conv_thr            =       0.0000000048 Ry

     new unit-cell volume =    257.46845 a.u.^3 (    38.15289 Ang^3 )
     density =      3.04894 g/cm^3

CELL_PARAMETERS (alat= 12.07775034)
   0.281432978  -0.162485406   0.532629583
   0.000000000   0.324970811   0.532629583
  -0.281432978  -0.162485406   0.532629583

ATOMIC_POSITIONS (crystal)
Li            0.3937166941        0.3937166941        0.3937166941
Li            0.6062833059        0.6062833059        0.6062833059
Si            0.1529429995        0.1529429995        0.1529429995
Si            0.8470570005        0.8470570005        0.8470570005



     Writing config-only to output data dir ./output/LiSi.save/
     NEW-OLD atomic charge density approx. for the potential

     negative rho (up, down):  4.604E-04 0.000E+00
     extrapolated charge   10.85203, renormalised to   14.00000

     total cpu time spent up to now is       33.9 secs

     Self-consistent Calculation

     iteration #  1     ecut=    80.00 Ry     beta= 0.70
     Davidson diagonalization with overlap
     ethr =  1.00E-06,  avg # of iterations = 13.7

     negative rho (up, down):  7.541E-07 0.000E+00

     total cpu time spent up to now is       35.6 secs

     total energy              =     -45.37687747 Ry
     estimated scf accuracy    <       0.14794413 Ry

     iteration #  2     ecut=    80.00 Ry     beta= 0.70
     Davidson diagonalization with overlap
     ethr =  1.06E-03,  avg # of iterations =  2.6

     total cpu time spent up to now is       36.3 secs

     total energy              =     -45.50196674 Ry
     estimated scf accuracy    <       0.04566940 Ry

     iteration #  3     ecut=    80.00 Ry     beta= 0.70
     Davidson diagonalization with overlap
     ethr =  3.26E-04,  avg # of iterations =  1.1

     total cpu time spent up to now is       36.7 secs

     total energy              =     -45.50310925 Ry
     estimated scf accuracy    <       0.00444662 Ry

     iteration #  4     ecut=    80.00 Ry     beta= 0.70
     Davidson diagonalization with overlap
     ethr =  3.18E-05,  avg # of iterations =  2.3

     total cpu time spent up to now is       37.2 secs

     total energy              =     -45.50385999 Ry
     estimated scf accuracy    <       0.00004880 Ry

     iteration #  5     ecut=    80.00 Ry     beta= 0.70
     Davidson diagonalization with overlap
     ethr =  3.49E-07,  avg # of iterations =  4.6

     total cpu time spent up to now is       37.9 secs

     total energy              =     -45.50387616 Ry
     estimated scf accuracy    <       0.00001138 Ry

     iteration #  6     ecut=    80.00 Ry     beta= 0.70
     Davidson diagonalization with overlap
     ethr =  8.13E-08,  avg # of iterations =  1.5

     total cpu time spent up to now is       38.4 secs

     total energy              =     -45.50387707 Ry
     estimated scf accuracy    <       0.00000060 Ry

     iteration #  7     ecut=    80.00 Ry     beta= 0.70
     Davidson diagonalization with overlap
     ethr =  4.25E-09,  avg # of iterations =  2.4

     total cpu time spent up to now is       38.9 secs

     End of self-consistent calculation

          k = 0.0000 0.0000 0.0000 (  4923 PWs)   bands (ev):

   -35.4951 -35.2757  -3.1690   8.1389   8.3357   8.3357  10.1192  10.6519
    10.6519  14.1235  15.7630

          k =-0.3553-0.2051 0.1252 (  4961 PWs)   bands (ev):

   -35.4820 -35.2863  -2.6842   5.3954   7.2589   7.8716  10.4647  12.0248
    12.6970  12.6979  13.8845

          k =-0.7106-0.4103 0.2503 (  4958 PWs)   bands (ev):

   -35.4571 -35.3072  -1.3786   2.1663   6.4071   8.0344   9.7571  10.6111
    12.1541  14.8652  18.0614

          k =-0.3553 0.2051 0.2503 (  4960 PWs)   bands (ev):

   -35.4747 -35.2935  -2.6015   5.7178   6.6814   6.9578  10.2527  11.7412
    13.1266  13.4644  16.3276

          k =-0.7106 0.0000 0.3755 (  4959 PWs)   bands (ev):

   -35.4502 -35.3146  -1.5783   3.2673   5.1987   6.6281  10.2387  12.5627
    13.3347  14.0727  16.5064

          k = 0.7106 0.8206-0.1252 (  4963 PWs)   bands (ev):

   -35.4427 -35.3203  -0.4552   1.4320   4.5986   7.4009   9.3379  12.5930
    13.6130  15.4116  16.9991

          k = 0.3553 0.6154 0.0000 (  4953 PWs)   bands (ev):

   -35.4650 -35.3001  -1.8084   3.5201   5.2065   8.9059   9.3517  11.5981
    12.9289  14.1747  14.2516

          k =-0.7106 0.4103 0.5007 (  4969 PWs)   bands (ev):

   -35.4275 -35.3364  -0.9445   2.3433   5.3947   5.7082   9.7499  10.0583
    16.5149  17.7106  17.8179

          k = 0.7106 1.2309 0.0000 (  4969 PWs)   bands (ev):

   -35.4208 -35.3419   0.2308   1.0511   4.1567   5.9832   9.4682  12.4330
    15.8786  16.5147  17.3962

          k = 0.0000 0.0000 0.3755 (  4947 PWs)   bands (ev):

   -35.4739 -35.2963  -2.9565   5.6781   8.1361   8.1361  10.5965  10.5965
    12.7854  14.0504  15.8025

          k =-0.3553-0.2051 0.5007 (  4953 PWs)   bands (ev):

   -35.4517 -35.3160  -2.3477   4.9325   5.3104   7.2462  10.8064  12.4252
    13.7020  14.0548  15.3201

          k = 1.0660 0.6154 0.0000 (  4969 PWs)   bands (ev):

   -35.4359 -35.3281  -0.9849   1.9191   5.8504   6.0892  10.1839  12.2765
    13.0740  15.6373  16.6050

          k = 0.7106 0.4103 0.1252 (  4956 PWs)   bands (ev):

   -35.4536 -35.3106  -1.3621   2.5011   5.8682   7.2232   9.8950  10.4919
    13.8237  13.9944  17.4873

          k =-0.3553 0.2051 0.6258 (  4946 PWs)   bands (ev):

   -35.4325 -35.3349  -2.1784   4.5163   5.4600   6.3910  10.3512  12.7192
    12.9090  15.2858  17.7409

          k = 1.0660 1.0257 0.1252 (  4978 PWs)   bands (ev):

   -35.4143 -35.3501  -1.1107   2.8850   4.9098   4.9646  11.6751  12.5939
    12.9739  15.5753  17.3680

          k = 0.7106 0.8206 0.2503 (  4971 PWs)   bands (ev):

   -35.4303 -35.3325  -0.1290   1.3397   4.2810   6.2028  10.1694  12.4611
    13.7786  16.7135  17.1010

          k = 1.0660-0.6154-0.3755 (  4973 PWs)   bands (ev):

   -35.4086 -35.3552  -0.6336   1.9154   4.9787   5.4972  10.0794  11.0666
    15.8600  16.8642  17.4791

          k = 0.0000 0.0000 0.7510 (  4913 PWs)   bands (ev):

   -35.4190 -35.3504  -2.5384   3.7183   7.9381   7.9381  10.1699  10.1699
    12.6112  17.4431  18.5477

          k = 1.4213 0.8206 0.2503 (  4955 PWs)   bands (ev):

   -35.3960 -35.3712  -1.9746   3.7943   5.0657   6.6691  10.4363  12.4206
    14.8997  15.0855  16.1365

     the Fermi energy is    10.6200 ev

!    total energy              =     -45.50387721 Ry
     estimated scf accuracy    <          2.4E-09 Ry
     smearing contrib. (-TS)   =       0.00160384 Ry
     internal energy E=F+TS    =     -45.50548105 Ry

     The total energy is F=E-TS. E is the sum of the following terms:
     one-electron contribution =      -3.12615755 Ry
     hartree contribution      =       6.20589057 Ry
     xc contribution           =     -13.73548422 Ry
     ewald contribution        =     -34.84972985 Ry

     convergence has been achieved in   7 iterations

     Forces acting on atoms (cartesian axes, Ry/au):

     atom    1 type  1   force =    -0.00000000   -0.00000000   -0.06709024
     atom    2 type  1   force =     0.00000000    0.00000000    0.06709024
     atom    3 type  2   force =    -0.00000000   -0.00000000   -0.04478713
     atom    4 type  2   force =     0.00000000    0.00000000    0.04478713
     The non-local contrib.  to forces
     atom    1 type  1   force =    -0.00000000    0.00000000   -0.02130914
     atom    2 type  1   force =     0.00000000   -0.00000000    0.02130914
     atom    3 type  2   force =     0.00000000   -0.00000000   -0.05304056
     atom    4 type  2   force =     0.00000000   -0.00000000    0.05304056
     The ionic contribution  to forces
     atom    1 type  1   force =    -0.00000000    0.00000000   -0.78434595
     atom    2 type  1   force =     0.00000000    0.00000000    0.78434595
     atom    3 type  2   force =     0.00000000   -0.00000000   -0.43612242
     atom    4 type  2   force =    -0.00000000    0.00000000    0.43612242
     The local contribution  to forces
     atom    1 type  1   force =    -0.00000000    0.00000000    0.73852115
     atom    2 type  1   force =    -0.00000000    0.00000000   -0.73852115
     atom    3 type  2   force =     0.00000000   -0.00000000    0.43902133
     atom    4 type  2   force =    -0.00000000    0.00000000   -0.43902133
     The core correction contribution to forces
     atom    1 type  1   force =     0.00000000    0.00000000    0.00000000
     atom    2 type  1   force =     0.00000000    0.00000000    0.00000000
     atom    3 type  2   force =     0.00000000    0.00000000    0.00534467
     atom    4 type  2   force =     0.00000000   -0.00000000   -0.00534467
     The Hubbard contrib.    to forces
     atom    1 type  1   force =     0.00000000    0.00000000    0.00000000
     atom    2 type  1   force =     0.00000000    0.00000000    0.00000000
     atom    3 type  2   force =     0.00000000    0.00000000    0.00000000
     atom    4 type  2   force =     0.00000000    0.00000000    0.00000000
     The SCF correction term to forces
     atom    1 type  1   force =     0.00000000    0.00000000    0.00004369
     atom    2 type  1   force =    -0.00000000   -0.00000000   -0.00004369
     atom    3 type  2   force =     0.00000000    0.00000000    0.00000986
     atom    4 type  2   force =    -0.00000000   -0.00000000   -0.00000986

     Total force =     0.114079     Total SCF correction =     0.000063


     Computing stress (Cartesian axis) and pressure

          total   stress  (Ry/bohr**3)                   (kbar)     P=      657.96
   0.00523132  -0.00000000   0.00000000          769.55       -0.00        0.00
   0.00000000   0.00523132   0.00000000            0.00      769.55        0.00
   0.00000000   0.00000000   0.00295562            0.00        0.00      434.79

     Energy error            =      1.6E-01 Ry
     Gradient error          =      6.7E-02 Ry/Bohr
     Cell gradient error     =      2.7E+02 kbar

     number of scf cycles    =   5
     number of bfgs steps    =   4

     enthalpy           old  =     -44.4725280317 Ry
     enthalpy           new  =     -44.6287597291 Ry

     CASE: enthalpy          _new < enthalpy          _old

     new trust radius        =       0.5023446323 bohr
ibrav =      5
 celldm(1) =      6.77524509
 celldm(4) =      0.46205226
Input lattice vectors:
     0.29093368    -0.16797064     0.44925474
    -0.00000000     0.33594128     0.44925474
    -0.29093368    -0.16797064     0.44925474
New lattice vectors in INITIAL alat:
     0.29093368    -0.16797064     0.44925474
     0.00000000     0.33594128     0.44925474
    -0.29093368    -0.16797064     0.44925474
New lattice vectors in NEW alat (for information only):
     0.51862691    -0.29942938     0.80085465
     0.00000000     0.59885877     0.80085465
    -0.51862691    -0.29942938     0.80085465
Discrepancy in bohr =     0.000000    0.000000    0.000000
     new conv_thr            =       0.0000000067 Ry

     new unit-cell volume =    232.07558 a.u.^3 (    34.39005 Ang^3 )
     density =      3.38254 g/cm^3

CELL_PARAMETERS (alat= 12.07775034)
   0.290933685  -0.167970641   0.449254737
   0.000000000   0.335941283   0.449254737
  -0.290933685  -0.167970641   0.449254737

ATOMIC_POSITIONS (crystal)
Li            0.3920204324        0.3920204324        0.3920204324
Li            0.6079795676        0.6079795676        0.6079795676
Si            0.1500383295        0.1500383295        0.1500383295
Si            0.8499616705        0.8499616705        0.8499616705



     Writing config-only to output data dir ./output/LiSi.save/
     NEW-OLD atomic charge density approx. for the potential

     negative rho (up, down):  1.972E-05 0.000E+00
     extrapolated charge   12.46930, renormalised to   14.00000

     total cpu time spent up to now is       40.3 secs

     Self-consistent Calculation

     iteration #  1     ecut=    80.00 Ry     beta= 0.70
     Davidson diagonalization with overlap
     c_bands:  1 eigenvalues not converged
     ethr =  1.00E-06,  avg # of iterations = 12.8

     total cpu time spent up to now is       41.9 secs

     total energy              =     -45.38682699 Ry
     estimated scf accuracy    <       0.02182589 Ry

     iteration #  2     ecut=    80.00 Ry     beta= 0.70
     Davidson diagonalization with overlap
     ethr =  1.56E-04,  avg # of iterations =  2.5

     total cpu time spent up to now is       42.5 secs

     total energy              =     -45.41342738 Ry
     estimated scf accuracy    <       0.01200727 Ry

     iteration #  3     ecut=    80.00 Ry     beta= 0.70
     Davidson diagonalization with overlap
     ethr =  8.58E-05,  avg # of iterations =  1.1

     total cpu time spent up to now is       43.0 secs

     total energy              =     -45.41345383 Ry
     estimated scf accuracy    <       0.00149775 Ry

     iteration #  4     ecut=    80.00 Ry     beta= 0.70
     Davidson diagonalization with overlap
     ethr =  1.07E-05,  avg # of iterations =  1.9

     total cpu time spent up to now is       43.5 secs

     total energy              =     -45.41366452 Ry
     estimated scf accuracy    <       0.00003131 Ry

     iteration #  5     ecut=    80.00 Ry     beta= 0.70
     Davidson diagonalization with overlap
     ethr =  2.24E-07,  avg # of iterations =  3.6

     total cpu time spent up to now is       44.1 secs

     total energy              =     -45.41367574 Ry
     estimated scf accuracy    <       0.00000463 Ry

     iteration #  6     ecut=    80.00 Ry     beta= 0.70
     Davidson diagonalization with overlap
     ethr =  3.31E-08,  avg # of iterations =  1.7

     total cpu time spent up to now is       44.5 secs

     total energy              =     -45.41367623 Ry
     estimated scf accuracy    <       0.00000016 Ry

     iteration #  7     ecut=    80.00 Ry     beta= 0.70
     Davidson diagonalization with overlap
     ethr =  1.13E-09,  avg # of iterations =  3.2

     total cpu time spent up to now is       45.1 secs

     total energy              =     -45.41367628 Ry
     estimated scf accuracy    <          8.9E-09 Ry

     iteration #  8     ecut=    80.00 Ry     beta= 0.70
     Davidson diagonalization with overlap
     ethr =  6.37E-11,  avg # of iterations =  1.9

     total cpu time spent up to now is       45.6 secs

     End of self-consistent calculation

          k = 0.0000 0.0000 0.0000 (  4923 PWs)   bands (ev):

   -34.2794 -33.8238  -1.9912   9.6102   9.6102  11.4435  11.4435  11.6070
    12.9979  15.9508  16.0721

          k =-0.3437-0.1984 0.1484 (  4961 PWs)   bands (ev):

   -34.2623 -33.8387  -1.5545   6.5194   8.7844  10.6781  12.9384  13.0987
    13.1706  14.7589  15.2445

          k =-0.6874-0.3969 0.2968 (  4958 PWs)   bands (ev):

   -34.2316 -33.8654  -0.4336   3.4721   8.2194  10.3910  11.2968  12.6329
    12.9111  17.1287  18.1872

          k =-0.3437 0.1984 0.2968 (  4960 PWs)   bands (ev):

   -34.2492 -33.8510  -1.3828   7.3815   7.4064   9.3839  11.3737  12.7811
    14.4978  15.7792  18.2115

          k =-0.6874 0.0000 0.4452 (  4959 PWs)   bands (ev):

   -34.2185 -33.8784  -0.3824   4.3255   6.8949   8.3659  11.8530  13.2064
    14.6991  15.9834  19.4231

          k = 0.6874 0.7938-0.1484 (  4963 PWs)   bands (ev):

   -34.2136 -33.8819   0.3570   2.9180   6.3068   8.7025  11.8473  13.7283
    16.0162  17.0277  17.5815

          k = 0.3437 0.5953 0.0000 (  4953 PWs)   bands (ev):

   -34.2423 -33.8558  -0.8401   4.9658   6.6738  10.3153  12.3697  13.5000
    13.7005  16.5954  16.7963

          k =-0.6874 0.3969 0.5936 (  4969 PWs)   bands (ev):

   -34.1891 -33.9061   0.4811   3.8115   5.8886   7.1508  11.0990  11.6478
    18.1266  18.9587  21.0799

          k = 0.6874 1.1907 0.0000 (  4969 PWs)   bands (ev):

   -34.1855 -33.9088   1.8830   1.9293   5.3568   7.2933  11.6306  12.9285
    17.6878  17.9628  20.3198

          k = 0.0000 0.0000 0.4452 (  4947 PWs)   bands (ev):

   -34.2406 -33.8602  -1.5329   8.0244   8.9188   8.9188  11.8406  11.8406
    12.9397  16.0321  16.0321

          k =-0.3437-0.1984 0.5936 (  4953 PWs)   bands (ev):

   -34.2103 -33.8879  -0.8199   5.6449   7.1261   8.7226  11.7726  12.6056
    14.4444  15.2690  16.7285

          k = 1.0312 0.5953 0.0000 (  4969 PWs)   bands (ev):

   -34.2001 -33.8956   0.3141   3.1303   7.2369   7.3342  11.3409  14.3842
    15.4099  16.5876  18.5197

          k = 0.6874 0.3969 0.1484 (  4956 PWs)   bands (ev):

   -34.2262 -33.8706  -0.3981   4.3082   6.8341   8.3821  11.3180  13.6741
    15.6211  17.2619  18.5862

          k =-0.3437 0.1984 0.7420 (  4946 PWs)   bands (ev):

   -34.1811 -33.9159  -0.3897   5.7212   6.7639   6.8276  10.9948  13.8147
    14.2085  15.1794  20.1689

          k = 1.0312 0.9922 0.1484 (  4978 PWs)   bands (ev):

   -34.1714 -33.9235   0.7560   3.5465   5.8431   6.3302  12.6464  13.8547
    14.1004  18.3623  18.9124

          k = 0.6874 0.7938 0.2968 (  4971 PWs)   bands (ev):

   -34.1969 -33.8979   0.8654   2.9279   5.6567   7.1471  13.1085  13.2366
    15.9864  17.3132  18.9346

          k = 1.0312-0.5953-0.4452 (  4973 PWs)   bands (ev):

   -34.1691 -33.9254   1.3046   2.8424   6.0062   6.0820  11.0367  13.6699
    16.9592  19.0034  19.1978

          k = 0.0000 0.0000 0.8904 (  4913 PWs)   bands (ev):

   -34.1529 -33.9442  -0.4438   4.7871   8.5449   8.5449  10.6728  10.6728
    12.2238  19.5821  21.1962

          k = 1.3749 0.7938 0.2968 (  4955 PWs)   bands (ev):

   -34.1438 -33.9519   0.2298   4.4291   5.9059   7.3736  11.0071  12.6566
    15.0178  17.7354  18.5429

     the Fermi energy is    12.6709 ev

!    total energy              =     -45.41367628 Ry
     estimated scf accuracy    <          5.1E-10 Ry
     smearing contrib. (-TS)   =      -0.00173906 Ry
     internal energy E=F+TS    =     -45.41193722 Ry

     The total energy is F=E-TS. E is the sum of the following terms:
     one-electron contribution =      -0.80697751 Ry
     hartree contribution      =       5.82047239 Ry
     xc contribution           =     -13.84157262 Ry
     ewald contribution        =     -36.58385949 Ry

     convergence has been achieved in   8 iterations

     Forces acting on atoms (cartesian axes, Ry/au):

     atom    1 type  1   force =     0.00000000   -0.00000000   -0.01739642
     atom    2 type  1   force =    -0.00000000    0.00000000    0.01739642
     atom    3 type  2   force =     0.00000000    0.00000000   -0.10512521
     atom    4 type  2   force =     0.00000000    0.00000000    0.10512521
     The non-local contrib.  to forces
     atom    1 type  1   force =    -0.00000000    0.00000000    0.03556963
     atom    2 type  1   force =     0.00000000   -0.00000000   -0.03556963
     atom    3 type  2   force =     0.00000000    0.00000000   -0.15336012
     atom    4 type  2   force =    -0.00000000   -0.00000000    0.15336012
     The ionic contribution  to forces
     atom    1 type  1   force =    -0.00000000    0.00000000   -0.45581090
     atom    2 type  1   force =     0.00000000    0.00000000    0.45581090
     atom    3 type  2   force =     0.00000000   -0.00000000   -0.45404532
     atom    4 type  2   force =    -0.00000000    0.00000000    0.45404532
     The local contribution  to forces
     atom    1 type  1   force =    -0.00000000    0.00000000    0.40283689
     atom    2 type  1   force =    -0.00000000    0.00000000   -0.40283689
     atom    3 type  2   force =    -0.00000000   -0.00000000    0.49197536
     atom    4 type  2   force =     0.00000000    0.00000000   -0.49197536
     The core correction contribution to forces
     atom    1 type  1   force =     0.00000000    0.00000000    0.00000000
     atom    2 type  1   force =     0.00000000    0.00000000    0.00000000
     atom    3 type  2   force =    -0.00000000    0.00000000    0.01029921
     atom    4 type  2   force =     0.00000000   -0.00000000   -0.01029921
     The Hubbard contrib.    to forces
     atom    1 type  1   force =     0.00000000    0.00000000    0.00000000
     atom    2 type  1   force =     0.00000000    0.00000000    0.00000000
     atom    3 type  2   force =     0.00000000    0.00000000    0.00000000
     atom    4 type  2   force =     0.00000000    0.00000000    0.00000000
     The SCF correction term to forces
     atom    1 type  1   force =     0.00000000    0.00000000    0.00000797
     atom    2 type  1   force =     0.00000000   -0.00000000   -0.00000797
     atom    3 type  2   force =     0.00000000    0.00000000    0.00000566
     atom    4 type  2   force =    -0.00000000   -0.00000000   -0.00000566

     Total force =     0.150691     Total SCF correction =     0.000014


     Computing stress (Cartesian axis) and pressure

          total   stress  (Ry/bohr**3)                   (kbar)     P=      788.16
   0.00512871  -0.00000000  -0.00000000          754.46       -0.00       -0.00
  -0.00000000   0.00512871   0.00000000           -0.00      754.46        0.00
  -0.00000000   0.00000000   0.00581592           -0.00        0.00      855.55

     Energy error            =      3.9E-03 Ry
     Gradient error          =      1.1E-01 Ry/Bohr
     Cell gradient error     =      3.6E+02 kbar

     number of scf cycles    =   6
     number of bfgs steps    =   5

     enthalpy           old  =     -44.6287597291 Ry
     enthalpy           new  =     -44.6248674142 Ry

     CASE: enthalpy          _new > enthalpy          _old

     new trust radius        =       0.2652603541 bohr
ibrav =      5
 celldm(1) =      7.17113433
 celldm(4) =      0.53631378
Input lattice vectors:
     0.28588996    -0.16505865     0.49351666
     0.00000000     0.33011729     0.49351666
    -0.28588996    -0.16505865     0.49351666
New lattice vectors in INITIAL alat:
     0.28588996    -0.16505865     0.49351666
     0.00000000     0.33011729     0.49351666
    -0.28588996    -0.16505865     0.49351666
New lattice vectors in NEW alat (for information only):
     0.48150089    -0.27799467     0.83118942
     0.00000000     0.55598934     0.83118942
    -0.48150089    -0.27799467     0.83118942
Discrepancy in bohr =     0.000000    0.000000    0.000000
     new conv_thr            =       0.0000000067 Ry

     new unit-cell volume =    246.17752 a.u.^3 (    36.47975 Ang^3 )
     density =      3.18878 g/cm^3

CELL_PARAMETERS (alat= 12.07775034)
   0.285889963  -0.165058647   0.493516658
   0.000000000   0.330117294   0.493516658
  -0.285889963  -0.165058647   0.493516658

ATOMIC_POSITIONS (crystal)
Li            0.3929209414        0.3929209414        0.3929209414
Li            0.6070790586        0.6070790586        0.6070790586
Si            0.1515803567        0.1515803567        0.1515803567
Si            0.8484196433        0.8484196433        0.8484196433



     Writing config-only to output data dir ./output/LiSi.save/
     NEW-OLD atomic charge density approx. for the potential
     extrapolated charge   14.80138, renormalised to   14.00000

     total cpu time spent up to now is       47.0 secs

     Self-consistent Calculation

     iteration #  1     ecut=    80.00 Ry     beta= 0.70
     Davidson diagonalization with overlap
     ethr =  1.00E-06,  avg # of iterations = 10.4

     total cpu time spent up to now is       48.4 secs

     total energy              =     -45.47558113 Ry
     estimated scf accuracy    <       0.00595445 Ry

     iteration #  2     ecut=    80.00 Ry     beta= 0.70
     Davidson diagonalization with overlap
     ethr =  4.25E-05,  avg # of iterations =  2.2

     total cpu time spent up to now is       49.0 secs

     total energy              =     -45.48169107 Ry
     estimated scf accuracy    <       0.00234485 Ry

     iteration #  3     ecut=    80.00 Ry     beta= 0.70
     Davidson diagonalization with overlap
     ethr =  1.67E-05,  avg # of iterations =  1.0

     total cpu time spent up to now is       49.5 secs

     total energy              =     -45.48167077 Ry
     estimated scf accuracy    <       0.00028206 Ry

     iteration #  4     ecut=    80.00 Ry     beta= 0.70
     Davidson diagonalization with overlap
     ethr =  2.01E-06,  avg # of iterations =  2.6

     total cpu time spent up to now is       50.0 secs

     total energy              =     -45.48171648 Ry
     estimated scf accuracy    <       0.00000234 Ry

     iteration #  5     ecut=    80.00 Ry     beta= 0.70
     Davidson diagonalization with overlap
     ethr =  1.67E-08,  avg # of iterations =  3.3

     total cpu time spent up to now is       50.6 secs

     total energy              =     -45.48171716 Ry
     estimated scf accuracy    <       0.00000046 Ry

     iteration #  6     ecut=    80.00 Ry     beta= 0.70
     Davidson diagonalization with overlap
     ethr =  3.27E-09,  avg # of iterations =  2.0

     total cpu time spent up to now is       51.1 secs

     total energy              =     -45.48171725 Ry
     estimated scf accuracy    <       0.00000001 Ry

     iteration #  7     ecut=    80.00 Ry     beta= 0.70
     Davidson diagonalization with overlap
     ethr =  8.81E-11,  avg # of iterations =  2.5

     total cpu time spent up to now is       51.7 secs

     End of self-consistent calculation

          k = 0.0000 0.0000 0.0000 (  4923 PWs)   bands (ev):

   -34.9094 -34.6068  -2.6035   8.8828   8.8828   9.6948  11.0009  11.0009
    11.4036  14.6728  15.6688

          k =-0.3498-0.2019 0.1351 (  4961 PWs)   bands (ev):

   -34.8945 -34.6195  -2.1426   5.8915   7.9033   9.1600  11.4890  12.5286
    12.9002  13.6457  14.1834

          k =-0.6996-0.4039 0.2702 (  4958 PWs)   bands (ev):

   -34.8668 -34.6434  -0.9263   2.7563   7.1547   9.1121  10.3190  11.5044
    12.3056  16.3926  17.0000

          k =-0.3498 0.2019 0.2702 (  4960 PWs)   bands (ev):

   -34.8846 -34.6291  -2.0226   6.4161   7.0183   8.0242  10.7505  12.0656
    13.6608  14.9214  16.4307

          k =-0.6996 0.0000 0.4053 (  4959 PWs)   bands (ev):

   -34.8570 -34.6535  -1.0144   3.7428   5.9266   7.3697  10.8210  12.8886
    13.9039  14.8437  18.1727

          k = 0.6996 0.8078-0.1351 (  4963 PWs)   bands (ev):

   -34.8506 -34.6582  -0.0657   2.0859   5.3638   7.9075  10.3549  13.0971
    14.5612  16.5126  17.1295

          k = 0.3498 0.6058 0.0000 (  4953 PWs)   bands (ev):

   -34.8760 -34.6351  -1.3423   4.1379   5.8747   9.6926  10.3727  12.5677
    13.1489  15.0524  15.2652

          k =-0.6996 0.4039 0.5403 (  4969 PWs)   bands (ev):

   -34.8309 -34.6785  -0.2921   3.0034   5.6354   6.2595  10.4627  10.5165
    17.2810  18.5530  19.0321

[...]
     The core correction contribution to forces
     atom    1 type  1   force =     0.00000000    0.00000000    0.00000000
     atom    2 type  1   force =     0.00000000    0.00000000    0.00000000
     atom    3 type  2   force =    -0.00000000   -0.00000000    0.00004807
     atom    4 type  2   force =     0.00000000    0.00000000   -0.00004807
     The Hubbard contrib.    to forces
     atom    1 type  1   force =     0.00000000    0.00000000    0.00000000
     atom    2 type  1   force =     0.00000000    0.00000000    0.00000000
     atom    3 type  2   force =     0.00000000    0.00000000    0.00000000
     atom    4 type  2   force =     0.00000000    0.00000000    0.00000000
     The SCF correction term to forces
     atom    1 type  1   force =    -0.00000000   -0.00000000   -0.00000065
     atom    2 type  1   force =     0.00000000    0.00000000    0.00000065
     atom    3 type  2   force =    -0.00000000   -0.00000000    0.00000092
     atom    4 type  2   force =     0.00000000    0.00000000   -0.00000092

     Total force =     0.000134     Total SCF correction =     0.000002


     Computing stress (Cartesian axis) and pressure

          total   stress  (Ry/bohr**3)                   (kbar)     P=      499.90
   0.00339951  -0.00000000   0.00000000          500.09       -0.00        0.00
  -0.00000000   0.00339951   0.00000000           -0.00      500.09        0.00
   0.00000000   0.00000000   0.00339571            0.00        0.00      499.53

     Energy error            =      1.2E-06 Ry
     Gradient error          =      8.9E-05 Ry/Bohr
     Cell gradient error     =      4.7E-01 kbar
ibrav =      5
 celldm(1) =      7.12496960
 celldm(4) =      0.50104067
Input lattice vectors:
     0.29465550    -0.17011943     0.48192250
     0.00000000     0.34023886     0.48192250
    -0.29465550    -0.17011943     0.48192250
New lattice vectors in INITIAL alat:
     0.29465550    -0.17011943     0.48192250
     0.00000000     0.34023886     0.48192250
    -0.29465550    -0.17011943     0.48192250
New lattice vectors in NEW alat (for information only):
     0.49947940    -0.28837456     0.81692132
     0.00000000     0.57674913     0.81692132
    -0.49947940    -0.28837456     0.81692132
Discrepancy in bohr =     0.000000    0.000000    0.000000

     bfgs converged in  23 scf cycles and  20 bfgs steps
     (criteria: energy <  1.0E-04 Ry, force <  1.0E-03 Ry/Bohr, cell <  1.0E+00 kbar)

     End of BFGS Geometry Optimization

     Final enthalpy           =     -44.7068198194 Ry

     File ./output/LiSi.bfgs deleted, as requested
Begin final coordinates
     new unit-cell volume =    255.36129 a.u.^3 (    37.84064 Ang^3 )
     density =      3.07410 g/cm^3

CELL_PARAMETERS (alat= 12.07775034)
   0.294655495  -0.170119430   0.481922495
   0.000000000   0.340238859   0.481922495
  -0.294655495  -0.170119430   0.481922495

ATOMIC_POSITIONS (crystal)
Li            0.3749602925        0.3749602925        0.3749602925
Li            0.6250397075        0.6250397075        0.6250397075
Si            0.1250622361        0.1250622361        0.1250622361
Si            0.8749377639        0.8749377639        0.8749377639
End final coordinates



     Writing config-only to output data dir ./output/LiSi.save/

     Final scf calculation at the relaxed structure.
     The G-vectors are recalculated for the final unit cell
     Results may differ from those at the preceding step.

     Parallelization info
     --------------------
     sticks:   dense  smooth     PW     G-vecs:    dense   smooth      PW
     Min         140     140     42                 3086     3086     501
     Max         141     141     43                 3088     3088     503
     Sum        1123    1123    337                24693    24693    4015

     Using Slab Decomposition



     bravais-lattice index     =            5
     lattice parameter (alat)  =      12.0778  a.u.
     unit-cell volume          =     255.3613 (a.u.)^3
     number of atoms/cell      =            4
     number of atomic types    =            2
     number of electrons       =        14.00
     number of Kohn-Sham states=           11
     kinetic-energy cutoff     =      80.0000  Ry
     charge density cutoff     =     320.0000  Ry
     scf convergence threshold =      1.0E-10
     mixing beta               =       0.7000
     number of iterations used =            8  plain     mixing
     press convergence thresh. =      1.0E+00
     Exchange-correlation= PBE
                           (   1   4   3   4   0   0   0)

     celldm(1)=  12.077750  celldm(2)=   0.000000  celldm(3)=   0.000000
     celldm(4)=   0.858611  celldm(5)=   0.000000  celldm(6)=   0.000000

     crystal axes: (cart. coord. in units of alat)
               a(1) = (   0.294655  -0.170119   0.481922 )  
               a(2) = (   0.000000   0.340239   0.481922 )  
               a(3) = (  -0.294655  -0.170119   0.481922 )  

     reciprocal axes: (cart. coord. in units 2 pi/alat)
               b(1) = (  1.696897 -0.979704  0.691674 )  
               b(2) = (  0.000000  1.959408  0.691674 )  
               b(3) = ( -1.696897 -0.979704  0.691674 )  


     PseudoPot. # 1 for Li read from file:
     ../pseudo/Li_ONCV_PBE_sr.upf
     MD5 check sum: 50ff420e78310ffa21704f3361e624a4
     Pseudo is Norm-conserving, Zval =  3.0
     Generated using ONCVPSP code by D. R. Hamann
     Using radial grid of 1944 points,  4 beta functions with: 
                l(1) =   0
                l(2) =   0
                l(3) =   1
                l(4) =   1

     PseudoPot. # 2 for Si read from file:
     ../pseudo/Si_ONCV_PBE_sr.upf
     MD5 check sum: e543d271109d17c80368dfa7c482276d
     Pseudo is Norm-conserving + core correction, Zval =  4.0
     Generated using ONCVPSP code by D. R. Hamann
     Using radial grid of 1510 points,  6 beta functions with: 
                l(1) =   0
                l(2) =   0
                l(3) =   1
                l(4) =   1
                l(5) =   2
                l(6) =   2

     atomic species   valence    mass     pseudopotential
        Li             3.00     6.94100     Li( 1.00)
        Si             4.00    28.08550     Si( 1.00)

     12 Sym. Ops., with inversion, found



   Cartesian axes

     site n.     atom                  positions (alat units)
         1           Li  tau(   1) = (   0.0000000  -0.0000000   0.5421054  )
         2           Li  tau(   2) = (   0.0000000  -0.0000000   0.9036621  )
         3           Si  tau(   3) = (  -0.0000000  -0.0000000   0.1808109  )
         4           Si  tau(   4) = (   0.0000000  -0.0000000   1.2649566  )

     number of k points=    19  Marzari-Vanderbilt smearing, width (Ry)=  0.0200
                       cart. coord. in units 2pi/alat
        k(    1) = (   0.0000000   0.0000000   0.0000000), wk =   0.0160000
        k(    2) = (  -0.3393794  -0.1959408   0.1383348), wk =   0.0960000
        k(    3) = (  -0.6787588  -0.3918816   0.2766697), wk =   0.0960000
        k(    4) = (  -0.3393794   0.1959408   0.2766697), wk =   0.0960000
        k(    5) = (  -0.6787588   0.0000000   0.4150045), wk =   0.1920000
        k(    6) = (   0.6787588   0.7837631  -0.1383348), wk =   0.1920000
        k(    7) = (   0.3393794   0.5878223   0.0000000), wk =   0.0960000
        k(    8) = (  -0.6787588   0.3918816   0.5533393), wk =   0.0960000
        k(    9) = (   0.6787588   1.1756447   0.0000000), wk =   0.0960000
        k(   10) = (   0.0000000  -0.0000000   0.4150045), wk =   0.0320000
        k(   11) = (  -0.3393794  -0.1959408   0.5533393), wk =   0.0960000
        k(   12) = (   1.0181381   0.5878223   0.0000000), wk =   0.0960000
        k(   13) = (   0.6787588   0.3918816   0.1383348), wk =   0.0960000
        k(   14) = (  -0.3393794   0.1959408   0.6916742), wk =   0.0960000
        k(   15) = (   1.0181381   0.9797039   0.1383348), wk =   0.1920000
        k(   16) = (   0.6787588   0.7837631   0.2766697), wk =   0.1920000
        k(   17) = (   1.0181381  -0.5878223  -0.4150045), wk =   0.0960000
        k(   18) = (   0.0000000  -0.0000000   0.8300090), wk =   0.0320000
        k(   19) = (   1.3575175   0.7837631   0.2766697), wk =   0.0960000

     Dense  grid:    24693 G-vectors     FFT dimensions: (  45,  45,  45)

     Estimated max dynamical RAM per process >      15.66 MB

     Estimated total dynamical RAM >     125.31 MB

     Initial potential from superposition of free atoms

     starting charge      13.9897, renormalised to      14.0000
     Starting wfcs are   12 randomized atomic wfcs

     total cpu time spent up to now is      128.3 secs

     Self-consistent Calculation

     iteration #  1     ecut=    80.00 Ry     beta= 0.70
     Davidson diagonalization with overlap
     c_bands:  1 eigenvalues not converged
     c_bands:  1 eigenvalues not converged
     c_bands:  1 eigenvalues not converged
     c_bands:  1 eigenvalues not converged
     c_bands:  1 eigenvalues not converged
     ethr =  1.00E-06,  avg # of iterations = 17.7

     total cpu time spent up to now is      129.1 secs

     total energy              =     -45.57497188 Ry
     estimated scf accuracy    <       0.01534005 Ry

     iteration #  2     ecut=    80.00 Ry     beta= 0.70
     Davidson diagonalization with overlap
     ethr =  1.10E-04,  avg # of iterations =  1.0

     total cpu time spent up to now is      129.3 secs

     total energy              =     -45.57485085 Ry
     estimated scf accuracy    <       0.00103948 Ry

     iteration #  3     ecut=    80.00 Ry     beta= 0.70
     Davidson diagonalization with overlap
     ethr =  7.42E-06,  avg # of iterations =  1.9

     total cpu time spent up to now is      129.5 secs

     total energy              =     -45.57488944 Ry
     estimated scf accuracy    <       0.00000243 Ry

     iteration #  4     ecut=    80.00 Ry     beta= 0.70
     Davidson diagonalization with overlap
     ethr =  1.73E-08,  avg # of iterations =  4.2

     total cpu time spent up to now is      129.8 secs

     total energy              =     -45.57489196 Ry
     estimated scf accuracy    <       0.00000017 Ry

     iteration #  5     ecut=    80.00 Ry     beta= 0.70
     Davidson diagonalization with overlap
     ethr =  1.25E-09,  avg # of iterations =  1.9

     total cpu time spent up to now is      130.0 secs

     total energy              =     -45.57489198 Ry
     estimated scf accuracy    <          7.7E-09 Ry

     iteration #  6     ecut=    80.00 Ry     beta= 0.70
     Davidson diagonalization with overlap
     ethr =  5.49E-11,  avg # of iterations =  2.6

     total cpu time spent up to now is      130.2 secs

     total energy              =     -45.57489198 Ry
     estimated scf accuracy    <          2.4E-10 Ry

     iteration #  7     ecut=    80.00 Ry     beta= 0.70
     Davidson diagonalization with overlap
     ethr =  1.75E-12,  avg # of iterations =  3.1

     total cpu time spent up to now is      130.4 secs

     End of self-consistent calculation

          k = 0.0000 0.0000 0.0000 (  3119 PWs)   bands (ev):

   -35.1912 -34.9550  -2.6833   9.3566   9.3587   9.3587  10.4766  10.5053
    10.5053  13.9821  16.1489

          k =-0.3394-0.1959 0.1383 (  3095 PWs)   bands (ev):

   -35.1737 -34.9708  -2.2492   5.9534   8.4451   8.4488  11.4972  11.5238
    11.5338  14.0207  14.0323

          k =-0.6788-0.3919 0.2767 (  3080 PWs)   bands (ev):

   -35.1373 -35.0045  -1.1528   2.9031   7.9388   7.9407  10.5643  10.5785
    11.2006  16.7834  16.8077

          k =-0.3394 0.1959 0.2767 (  3078 PWs)   bands (ev):

   -35.1674 -34.9766  -2.0877   6.8669   7.0006   7.0118  10.4101  11.8550
    13.6497  13.6521  16.4608

          k =-0.6788 0.0000 0.4150 (  3073 PWs)   bands (ev):

   -35.1339 -35.0077  -1.1107   3.7312   6.2937   6.4300  10.5190  12.5635
    13.4698  14.0143  18.3887

          k = 0.6788 0.7838-0.1383 (  3088 PWs)   bands (ev):

   -35.1153 -35.0254  -0.4175   2.4409   5.4957   6.9132  10.4908  12.4000
    14.0198  16.1770  16.5161

          k = 0.3394 0.5878 0.0000 (  3096 PWs)   bands (ev):

   -35.1481 -34.9944  -1.5426   4.5367   5.7863   8.2666  11.0097  12.0377
    12.7546  14.1887  15.2369

          k =-0.6788 0.3919 0.5533 (  3075 PWs)   bands (ev):

   -35.1065 -35.0339  -0.2477   2.8741   5.5278   5.5403  10.2200  10.3851
    17.0713  17.0797  19.4648

          k = 0.6788 1.1756 0.0000 (  3090 PWs)   bands (ev):

   -35.0807 -35.0591   0.8138   1.5376   4.7052   5.7027  10.2515  12.2148
    16.5866  16.6473  17.8005

          k = 0.0000-0.0000 0.4150 (  3095 PWs)   bands (ev):

   -35.1739 -34.9706  -2.2515   5.9440   8.4562   8.4562  11.5163  11.5270
    11.5270  14.0358  14.0358

          k =-0.3394-0.1959 0.5533 (  3096 PWs)   bands (ev):

   -35.1484 -34.9941  -1.5470   4.5393   5.7844   8.2690  11.0222  12.0532
    12.7635  14.1869  15.2517

          k = 1.0181 0.5878 0.0000 (  3084 PWs)   bands (ev):

   -35.1155 -35.0252  -0.4205   2.4420   5.4953   6.9191  10.4984  12.4014
    14.0090  16.1951  16.4865

          k = 0.6788 0.3919 0.1383 (  3070 PWs)   bands (ev):

   -35.1338 -35.0078  -1.1091   3.7245   6.2962   6.4390  10.5218  12.5383
    13.4658  14.0084  18.4000

          k =-0.3394 0.1959 0.6917 (  3071 PWs)   bands (ev):

   -35.1343 -35.0073  -1.1160   3.7299   6.2944   6.4428  10.5282  12.5549
    13.4767  14.0289  18.3971

          k = 1.0181 0.9797 0.1383 (  3091 PWs)   bands (ev):

   -35.0996 -35.0405   0.0689   2.3876   4.8417   5.6294  12.0755  12.3740
    13.3278  16.6102  17.3696

          k = 0.6788 0.7838 0.2767 (  3091 PWs)   bands (ev):

   -35.0992 -35.0410   0.0771   2.3793   4.8408   5.6292  12.0620  12.3708
    13.3212  16.6380  17.3673

          k = 1.0181-0.5878-0.4150 (  3094 PWs)   bands (ev):

   -35.0815 -35.0584   0.8023   1.5468   4.7014   5.7143  10.2608  12.1963
    16.5883  16.6460  17.8083

          k = 0.0000-0.0000 0.8300 (  3079 PWs)   bands (ev):

   -35.1380 -35.0038  -1.1635   2.9054   7.9508   7.9508  10.5805  10.5805
    11.2196  16.7919  16.7919

          k = 1.3575 0.7838 0.2767 (  3084 PWs)   bands (ev):

   -35.1161 -35.0246  -0.4313   2.4493   5.5001   6.9232  10.5033  12.4147
    14.0360  16.1717  16.4904

     the Fermi energy is    11.4715 ev

!    total energy              =     -45.57489198 Ry
     estimated scf accuracy    <          5.9E-13 Ry
     smearing contrib. (-TS)   =      -0.00040677 Ry
     internal energy E=F+TS    =     -45.57448521 Ry

     The total energy is F=E-TS. E is the sum of the following terms:
     one-electron contribution =      -1.91819489 Ry
     hartree contribution      =       5.74883148 Ry
     xc contribution           =     -13.64495918 Ry
     ewald contribution        =     -35.76016262 Ry

     convergence has been achieved in   7 iterations

     Forces acting on atoms (cartesian axes, Ry/au):

     atom    1 type  1   force =     0.00000000   -0.00000000   -0.00003041
     atom    2 type  1   force =    -0.00000000    0.00000000    0.00003041
     atom    3 type  2   force =    -0.00000000    0.00000000   -0.00008793
     atom    4 type  2   force =     0.00000000    0.00000000    0.00008793
     The non-local contrib.  to forces
     atom    1 type  1   force =    -0.00000000   -0.00000000   -0.00018901
     atom    2 type  1   force =     0.00000000   -0.00000000    0.00018901
     atom    3 type  2   force =     0.00000000    0.00000000   -0.00007445
     atom    4 type  2   force =     0.00000000    0.00000000    0.00007445
     The ionic contribution  to forces
     atom    1 type  1   force =    -0.00000000   -0.00000000   -0.00012291
     atom    2 type  1   force =     0.00000000    0.00000000    0.00012291
     atom    3 type  2   force =     0.00000000   -0.00000000   -0.00341712
     atom    4 type  2   force =    -0.00000000    0.00000000    0.00341712
     The local contribution  to forces
     atom    1 type  1   force =    -0.00000000    0.00000000    0.00028145
     atom    2 type  1   force =    -0.00000000   -0.00000000   -0.00028145
     atom    3 type  2   force =    -0.00000000   -0.00000000    0.00335612
     atom    4 type  2   force =     0.00000000    0.00000000   -0.00335612
     The core correction contribution to forces
     atom    1 type  1   force =     0.00000000    0.00000000    0.00000000
     atom    2 type  1   force =     0.00000000    0.00000000    0.00000000
     atom    3 type  2   force =    -0.00000000   -0.00000000    0.00004767
     atom    4 type  2   force =     0.00000000    0.00000000   -0.00004767
     The Hubbard contrib.    to forces
     atom    1 type  1   force =     0.00000000    0.00000000    0.00000000
     atom    2 type  1   force =     0.00000000    0.00000000    0.00000000
     atom    3 type  2   force =     0.00000000    0.00000000    0.00000000
     atom    4 type  2   force =     0.00000000    0.00000000    0.00000000
     The SCF correction term to forces
     atom    1 type  1   force =    -0.00000000   -0.00000000    0.00000006
     atom    2 type  1   force =     0.00000000    0.00000000   -0.00000006
     atom    3 type  2   force =     0.00000000   -0.00000000   -0.00000016
     atom    4 type  2   force =    -0.00000000    0.00000000    0.00000016

     Total force =     0.000132     Total SCF correction =     0.000000


     Computing stress (Cartesian axis) and pressure

          total   stress  (Ry/bohr**3)                   (kbar)     P=      500.93
   0.00341023  -0.00000000   0.00000000          501.66       -0.00        0.00
   0.00000000   0.00341023   0.00000000            0.00      501.66        0.00
   0.00000000   0.00000000   0.00339531            0.00        0.00      499.47


     Writing all to output data dir ./output/LiSi.save/

     init_run     :      1.36s CPU      1.72s WALL (       2 calls)
     electrons    :     86.20s CPU     96.89s WALL (      24 calls)
     update_pot   :      9.15s CPU      9.32s WALL (      22 calls)
     forces       :      5.43s CPU      5.51s WALL (      24 calls)
     stress       :     15.91s CPU     16.96s WALL (      24 calls)

     Called by init_run:
     wfcinit      :      0.30s CPU      0.43s WALL (       2 calls)
     potinit      :      0.33s CPU      0.42s WALL (       2 calls)
     hinit0       :      0.69s CPU      0.77s WALL (       2 calls)

     Called by electrons:
     c_bands      :     71.55s CPU     79.80s WALL (     161 calls)
     sum_band     :     11.12s CPU     12.62s WALL (     161 calls)
     v_of_rho     :      3.88s CPU      4.67s WALL (     179 calls)
     mix_rho      :      0.16s CPU      0.22s WALL (     161 calls)

     Called by c_bands:
     init_us_2    :      1.08s CPU      1.22s WALL (    7068 calls)
     init_us_2:cp :      1.07s CPU      1.22s WALL (    7068 calls)
     cegterg      :     69.16s CPU     76.32s WALL (    3059 calls)

     Called by *egterg:
     cdiaghg      :      1.67s CPU      1.78s WALL (   12437 calls)
     h_psi        :     64.77s CPU     71.74s WALL (   13007 calls)
     g_psi        :      0.14s CPU      0.15s WALL (    9910 calls)

     Called by h_psi:
     h_psi:calbec :      1.71s CPU      1.91s WALL (   13007 calls)
     vloc_psi     :     61.61s CPU     68.27s WALL (   13007 calls)
     add_vuspsi   :      1.34s CPU      1.45s WALL (   13007 calls)

     General routines
     calbec       :      2.13s CPU      2.34s WALL (   15287 calls)
     fft          :      2.08s CPU      3.05s WALL (    2394 calls)
     ffts         :      0.12s CPU      0.18s WALL (     161 calls)
     fftw         :     62.67s CPU     69.54s WALL (  235133 calls)

     Parallel routines

     PWSCF        :   1m58.34s CPU   2m11.09s WALL


   This run was terminated on:  22:44: 2  11Feb2025            

=------------------------------------------------------------------------------=
   JOB DONE.
=------------------------------------------------------------------------------=
