
     Program PWSCF v.7.2 starts on 11Feb2025 at 22:47:53 

     This program is part of the open-source Quantum ESPRESSO suite
     for quantum simulation of materials; please cite
         "P. Giannozzi et al., J. Phys.:Condens. Matter 21 395502 (2009);
         "P. Giannozzi et al., J. Phys.:Condens. Matter 29 465901 (2017);
         "P. Giannozzi et al., J. Chem. Phys. 152 154105 (2020);
          URL http://www.quantum-espresso.org", 
     in publications or presentations arising from this work. More details at
     http://www.quantum-espresso.org/quote

     Parallel version (MPI & OpenMP), running on       8 processor cores
     Number of MPI processes:                 8
     Threads/MPI process:                     1

     MPI processes distributed on     1 nodes
     482444 MiB available memory on the printing compute node when the environment starts

     Waiting for input...
     Reading input from standard input

     Current dimensions of program PWSCF are:
     Max number of different atomic species (ntypx) = 10
     Max number of k-points (npk) =  40000
     Max angular momentum in pseudopotentials (lmaxx) =  4

     R & G space division:  proc/nbgrp/npool/nimage =       8
     Subspace diagonalization in iterative solution of the eigenvalue problem:
     a serial algorithm will be used


     Parallelization info
     --------------------
     sticks:   dense  smooth     PW     G-vecs:    dense   smooth      PW
     Min         114     114     31                 4296     4296     655
     Max         115     115     32                 4301     4301     662
     Sum         913     913    253                34377    34377    5275

     Using Slab Decomposition



     bravais-lattice index     =            4
     lattice parameter (alat)  =       6.3937  a.u.
     unit-cell volume          =     355.5482 (a.u.)^3
     number of atoms/cell      =            4
     number of atomic types    =            2
     number of electrons       =        14.00
     number of Kohn-Sham states=           11
     kinetic-energy cutoff     =      80.0000  Ry
     charge density cutoff     =     320.0000  Ry
     scf convergence threshold =      1.0E-08
     mixing beta               =       0.7000
     number of iterations used =            8  plain     mixing
     energy convergence thresh.=      1.0E-04
     force convergence thresh. =      1.0E-03
     press convergence thresh. =      1.0E+00
     Exchange-correlation= PBE
                           (   1   4   3   4   0   0   0)
     nstep                     =           50


     celldm(1)=   6.393744  celldm(2)=   0.000000  celldm(3)=   1.570732
     celldm(4)=   0.000000  celldm(5)=   0.000000  celldm(6)=   0.000000

     crystal axes: (cart. coord. in units of alat)
               a(1) = (   1.000000   0.000000   0.000000 )  
               a(2) = (  -0.500000   0.866025   0.000000 )  
               a(3) = (   0.000000   0.000000   1.570732 )  

     reciprocal axes: (cart. coord. in units 2 pi/alat)
               b(1) = (  1.000000  0.577350 -0.000000 )  
               b(2) = (  0.000000  1.154701  0.000000 )  
               b(3) = (  0.000000 -0.000000  0.636646 )  


     PseudoPot. # 1 for Li read from file:
     ../pseudo/Li_ONCV_PBE_sr.upf
     MD5 check sum: 50ff420e78310ffa21704f3361e624a4
     Pseudo is Norm-conserving, Zval =  3.0
     Generated using ONCVPSP code by D. R. Hamann
     Using radial grid of 1944 points,  4 beta functions with: 
                l(1) =   0
                l(2) =   0
                l(3) =   1
                l(4) =   1

     PseudoPot. # 2 for Si read from file:
     ../pseudo/Si_ONCV_PBE_sr.upf
     MD5 check sum: e543d271109d17c80368dfa7c482276d
     Pseudo is Norm-conserving + core correction, Zval =  4.0
     Generated using ONCVPSP code by D. R. Hamann
     Using radial grid of 1510 points,  6 beta functions with: 
                l(1) =   0
                l(2) =   0
                l(3) =   1
                l(4) =   1
                l(5) =   2
                l(6) =   2

     atomic species   valence    mass     pseudopotential
        Li             3.00     6.94100     Li( 1.00)
        Si             4.00    28.08550     Si( 1.00)

     12 Sym. Ops., with inversion, found



   Cartesian axes

     site n.     atom                  positions (alat units)
         1           Li  tau(   1) = (  -0.0000000   0.5773503   0.1859032  )
         2           Li  tau(   2) = (   0.5000000   0.2886751   1.3848287  )
         3           Si  tau(   3) = (  -0.0000000   0.5773503   0.6814738  )
         4           Si  tau(   4) = (   0.5000000   0.2886751   0.8892581  )

     number of k points=    80  Marzari-Vanderbilt smearing, width (Ry)=  0.0200
                       cart. coord. in units 2pi/alat
        k(    1) = (   0.0000000   0.0000000   0.0000000), wk =   0.0028571
        k(    2) = (   0.0000000   0.0000000   0.0909494), wk =   0.0057143
        k(    3) = (   0.0000000   0.0000000   0.1818988), wk =   0.0057143
        k(    4) = (   0.0000000   0.0000000   0.2728482), wk =   0.0057143
        k(    5) = (   0.0000000   0.1154701   0.0000000), wk =   0.0171429
        k(    6) = (   0.0000000   0.1154701   0.0909494), wk =   0.0171429
        k(    7) = (   0.0000000   0.1154701   0.1818988), wk =   0.0171429
        k(    8) = (   0.0000000   0.1154701   0.2728482), wk =   0.0171429
        k(    9) = (   0.0000000   0.2309401   0.0000000), wk =   0.0171429
        k(   10) = (   0.0000000   0.2309401   0.0909494), wk =   0.0171429
        k(   11) = (   0.0000000   0.2309401   0.1818988), wk =   0.0171429
        k(   12) = (   0.0000000   0.2309401   0.2728482), wk =   0.0171429
        k(   13) = (   0.0000000   0.3464102   0.0000000), wk =   0.0171429
        k(   14) = (   0.0000000   0.3464102   0.0909494), wk =   0.0171429
        k(   15) = (   0.0000000   0.3464102   0.1818988), wk =   0.0171429
        k(   16) = (   0.0000000   0.3464102   0.2728482), wk =   0.0171429
        k(   17) = (   0.0000000   0.4618802   0.0000000), wk =   0.0171429
        k(   18) = (   0.0000000   0.4618802   0.0909494), wk =   0.0171429
        k(   19) = (   0.0000000   0.4618802   0.1818988), wk =   0.0171429
        k(   20) = (   0.0000000   0.4618802   0.2728482), wk =   0.0171429
        k(   21) = (   0.0000000  -0.5773503   0.0000000), wk =   0.0085714
        k(   22) = (   0.0000000  -0.5773503   0.0909494), wk =   0.0171429
        k(   23) = (   0.0000000  -0.5773503   0.1818988), wk =   0.0171429
        k(   24) = (   0.0000000  -0.5773503   0.2728482), wk =   0.0171429
        k(   25) = (   0.1000000   0.1732051   0.0000000), wk =   0.0171429
        k(   26) = (   0.1000000   0.1732051   0.0909494), wk =   0.0342857
        k(   27) = (   0.1000000   0.1732051   0.1818988), wk =   0.0342857
        k(   28) = (   0.1000000   0.1732051   0.2728482), wk =   0.0342857
        k(   29) = (   0.1000000   0.2886751   0.0000000), wk =   0.0342857
        k(   30) = (   0.1000000   0.2886751   0.0909494), wk =   0.0342857
        k(   31) = (   0.1000000   0.2886751   0.1818988), wk =   0.0342857
        k(   32) = (   0.1000000   0.2886751   0.2728482), wk =   0.0342857
        k(   33) = (   0.1000000   0.4041452   0.0000000), wk =   0.0342857
        k(   34) = (   0.1000000   0.4041452   0.0909494), wk =   0.0342857
        k(   35) = (   0.1000000   0.4041452   0.1818988), wk =   0.0342857
        k(   36) = (   0.1000000   0.4041452   0.2728482), wk =   0.0342857
        k(   37) = (   0.1000000   0.5196152   0.0000000), wk =   0.0342857
        k(   38) = (   0.1000000   0.5196152   0.0909494), wk =   0.0342857
        k(   39) = (   0.1000000   0.5196152   0.1818988), wk =   0.0342857
        k(   40) = (   0.1000000   0.5196152   0.2728482), wk =   0.0342857
        k(   41) = (   0.2000000   0.3464102   0.0000000), wk =   0.0171429
        k(   42) = (   0.2000000   0.3464102   0.0909494), wk =   0.0342857
        k(   43) = (   0.2000000   0.3464102   0.1818988), wk =   0.0342857
        k(   44) = (   0.2000000   0.3464102   0.2728482), wk =   0.0342857
        k(   45) = (   0.2000000   0.4618802   0.0000000), wk =   0.0342857
        k(   46) = (   0.2000000   0.4618802   0.0909494), wk =   0.0342857
        k(   47) = (   0.2000000   0.4618802   0.1818988), wk =   0.0342857
        k(   48) = (   0.2000000   0.4618802   0.2728482), wk =   0.0342857
        k(   49) = (   0.2000000   0.5773503   0.0000000), wk =   0.0171429
        k(   50) = (   0.2000000   0.5773503   0.0909494), wk =   0.0342857
        k(   51) = (   0.2000000   0.5773503   0.1818988), wk =   0.0342857
        k(   52) = (   0.2000000   0.5773503   0.2728482), wk =   0.0342857
        k(   53) = (   0.3000000   0.5196152   0.0000000), wk =   0.0171429
        k(   54) = (   0.3000000   0.5196152   0.0909494), wk =   0.0342857
        k(   55) = (   0.3000000   0.5196152   0.1818988), wk =   0.0342857
        k(   56) = (   0.3000000   0.5196152   0.2728482), wk =   0.0342857
        k(   57) = (   0.0000000   0.1154701  -0.0909494), wk =   0.0171429
        k(   58) = (   0.0000000   0.1154701  -0.1818988), wk =   0.0171429
        k(   59) = (   0.0000000   0.1154701  -0.2728482), wk =   0.0171429
        k(   60) = (   0.0000000   0.2309401  -0.0909494), wk =   0.0171429
        k(   61) = (   0.0000000   0.2309401  -0.1818988), wk =   0.0171429
        k(   62) = (   0.0000000   0.2309401  -0.2728482), wk =   0.0171429
        k(   63) = (   0.0000000   0.3464102  -0.0909494), wk =   0.0171429
        k(   64) = (   0.0000000   0.3464102  -0.1818988), wk =   0.0171429
        k(   65) = (   0.0000000   0.3464102  -0.2728482), wk =   0.0171429
        k(   66) = (   0.0000000   0.4618802  -0.0909494), wk =   0.0171429
        k(   67) = (   0.0000000   0.4618802  -0.1818988), wk =   0.0171429
        k(   68) = (   0.0000000   0.4618802  -0.2728482), wk =   0.0171429
        k(   69) = (  -0.1000000   0.2886751  -0.0909494), wk =   0.0342857
        k(   70) = (  -0.1000000   0.2886751  -0.1818988), wk =   0.0342857
        k(   71) = (  -0.1000000   0.2886751  -0.2728482), wk =   0.0342857
        k(   72) = (  -0.1000000   0.4041452  -0.0909494), wk =   0.0342857
        k(   73) = (  -0.1000000   0.4041452  -0.1818988), wk =   0.0342857
        k(   74) = (  -0.1000000   0.4041452  -0.2728482), wk =   0.0342857
        k(   75) = (  -0.1000000   0.5196152  -0.0909494), wk =   0.0342857
        k(   76) = (  -0.1000000   0.5196152  -0.1818988), wk =   0.0342857
        k(   77) = (  -0.1000000   0.5196152  -0.2728482), wk =   0.0342857
        k(   78) = (  -0.2000000   0.4618802  -0.0909494), wk =   0.0342857
        k(   79) = (  -0.2000000   0.4618802  -0.1818988), wk =   0.0342857
        k(   80) = (  -0.2000000   0.4618802  -0.2728482), wk =   0.0342857

     Dense  grid:    34377 G-vectors     FFT dimensions: (  40,  40,  60)

     Estimated max dynamical RAM per process >      22.40 MB

     Estimated total dynamical RAM >     179.24 MB

     Initial potential from superposition of free atoms

     starting charge      13.9897, renormalised to      14.0000
     Starting wfcs are   12 randomized atomic wfcs

     total cpu time spent up to now is        1.3 secs

     Self-consistent Calculation

     iteration #  1     ecut=    80.00 Ry     beta= 0.70
     Davidson diagonalization with overlap
     ethr =  1.00E-02,  avg # of iterations =  5.5

     Threshold (ethr) on eigenvalues was too large:
     Diagonalizing with lowered threshold

     Davidson diagonalization with overlap
     ethr =  7.03E-04,  avg # of iterations =  1.9

     total cpu time spent up to now is        3.5 secs

     total energy              =     -45.11513993 Ry
     estimated scf accuracy    <       0.10228727 Ry

     iteration #  2     ecut=    80.00 Ry     beta= 0.70
     Davidson diagonalization with overlap
     ethr =  7.31E-04,  avg # of iterations =  3.1

     total cpu time spent up to now is        4.6 secs

     total energy              =     -45.12961604 Ry
     estimated scf accuracy    <       0.06165185 Ry

     iteration #  3     ecut=    80.00 Ry     beta= 0.70
     Davidson diagonalization with overlap
     ethr =  4.40E-04,  avg # of iterations =  2.1

     total cpu time spent up to now is        5.4 secs

     total energy              =     -45.14389258 Ry
     estimated scf accuracy    <       0.00176757 Ry

     iteration #  4     ecut=    80.00 Ry     beta= 0.70
     Davidson diagonalization with overlap
     ethr =  1.26E-05,  avg # of iterations =  3.5

     total cpu time spent up to now is        6.4 secs

     total energy              =     -45.14414531 Ry
     estimated scf accuracy    <       0.00003044 Ry

     iteration #  5     ecut=    80.00 Ry     beta= 0.70
     Davidson diagonalization with overlap
     ethr =  2.17E-07,  avg # of iterations =  3.5

     total cpu time spent up to now is        7.4 secs

     total energy              =     -45.14415939 Ry
     estimated scf accuracy    <       0.00000387 Ry

     iteration #  6     ecut=    80.00 Ry     beta= 0.70
     Davidson diagonalization with overlap
     ethr =  2.76E-08,  avg # of iterations =  2.0

     total cpu time spent up to now is        8.2 secs

     total energy              =     -45.14415991 Ry
     estimated scf accuracy    <       0.00000017 Ry

     iteration #  7     ecut=    80.00 Ry     beta= 0.70
     Davidson diagonalization with overlap
     ethr =  1.18E-09,  avg # of iterations =  3.6

     total cpu time spent up to now is        9.3 secs

     total energy              =     -45.14415999 Ry
     estimated scf accuracy    <       0.00000003 Ry

     iteration #  8     ecut=    80.00 Ry     beta= 0.70
     Davidson diagonalization with overlap
     ethr =  1.94E-10,  avg # of iterations =  2.0

     total cpu time spent up to now is       10.1 secs

     End of self-consistent calculation

          k = 0.0000 0.0000 0.0000 (  4247 PWs)   bands (ev):

   -40.7062 -40.5700  -6.3028   1.0963   5.0328   6.1767   6.1767  10.1101
    10.1101  10.5616  11.8439

          k = 0.0000 0.0000 0.0909 (  4247 PWs)   bands (ev):

   -40.7061 -40.5701  -6.3039   1.0372   5.2788   6.1893   6.1893  10.1180
    10.1180  10.2121  11.8698

          k = 0.0000 0.0000 0.1819 (  4277 PWs)   bands (ev):

   -40.7060 -40.5702  -6.3063   0.9170   5.9387   6.2180   6.2180   9.3527
    10.1340  10.1340  11.8866

          k = 0.0000 0.0000 0.2728 (  4324 PWs)   bands (ev):

   -40.7059 -40.5703  -6.3083   0.8306   6.2417   6.2417   6.7977   8.3494
    10.1448  10.1448  11.8816

          k = 0.0000 0.1155 0.0000 (  4261 PWs)   bands (ev):

   -40.7029 -40.5726  -6.1461   1.2347   5.0836   5.2395   5.8207   9.7084
    10.5678  10.6979  12.6306

          k = 0.0000 0.1155 0.0909 (  4269 PWs)   bands (ev):

   -40.7028 -40.5727  -6.1471   1.1750   5.0867   5.5014   5.8352   9.7128
    10.3068  10.6698  12.5596

          k = 0.0000 0.1155 0.1819 (  4288 PWs)   bands (ev):

   -40.7027 -40.5728  -6.1495   1.0541   5.1405   5.8669   6.1391   9.3513
     9.9491  10.6385  12.0263

          k = 0.0000 0.1155 0.2728 (  4287 PWs)   bands (ev):

   -40.7026 -40.5729  -6.1515   0.9675   5.1757   5.8923   6.9896   8.4417
     9.8964  10.6246  11.7615

          k = 0.0000 0.2309 0.0000 (  4284 PWs)   bands (ev):

   -40.6934 -40.5802  -5.6792   1.6414   3.2854   5.1493   5.4236   8.9217
     9.8521  11.8297  12.5414

          k = 0.0000 0.2309 0.0909 (  4291 PWs)   bands (ev):

   -40.6934 -40.5802  -5.6800   1.5818   3.2551   5.1652   5.7528   8.9597
     9.7129  11.4129  11.5649

          k = 0.0000 0.2309 0.1819 (  4287 PWs)   bands (ev):

   -40.6933 -40.5803  -5.6823   1.4613   3.2516   5.2006   6.4530   8.9544
     9.5089  10.3092  11.1963

          k = 0.0000 0.2309 0.2728 (  4297 PWs)   bands (ev):

   -40.6932 -40.5804  -5.6843   1.3762   3.2658   5.2293   7.2428   8.6341
     9.1797   9.9422  10.9703

          k = 0.0000 0.3464 0.0000 (  4292 PWs)   bands (ev):

   -40.6796 -40.5917  -4.9147   1.2544   2.3588   4.5571   5.8430   7.9130
     8.8872  11.0586  12.1162

          k = 0.0000 0.3464 0.0909 (  4296 PWs)   bands (ev):

   -40.6796 -40.5917  -4.9152   1.2582   2.2638   4.5737   6.2779   7.7820
     8.7631  10.5321  11.4983

          k = 0.0000 0.3464 0.1819 (  4293 PWs)   bands (ev):

   -40.6795 -40.5918  -4.9175   1.2678   2.1337   4.6115   6.9561   7.7087
     8.7244   9.7333  10.8690

          k = 0.0000 0.3464 0.2728 (  4293 PWs)   bands (ev):

   -40.6794 -40.5918  -4.9199   1.2794   2.0568   4.6425   7.1199   8.2529
     8.8108   8.9668  10.5321

          k = 0.0000 0.4619 0.0000 (  4302 PWs)   bands (ev):

   -40.6647 -40.6047  -3.8989  -0.5278   3.2252   4.1755   5.9133   7.0964
     8.4306   9.6937  11.8905

          k = 0.0000 0.4619 0.0909 (  4298 PWs)   bands (ev):

   -40.6647 -40.6047  -3.8993  -0.5280   3.1349   4.1926   6.2015   7.0427
     8.2872   9.6688  11.2018

          k = 0.0000 0.4619 0.1819 (  4313 PWs)   bands (ev):

   -40.6647 -40.6047  -3.9031  -0.5195   3.0345   4.2317   5.9844   7.7780
     8.2152   9.4512  10.5175

          k = 0.0000 0.4619 0.2728 (  4301 PWs)   bands (ev):

   -40.6646 -40.6048  -3.9072  -0.5083   2.9857   4.2640   5.7433   8.1377
     8.6810   9.2045  10.1531

          k = 0.0000-0.5774 0.0000 (  4322 PWs)   bands (ev):

   -40.6569 -40.6118  -3.0798  -1.6121   3.8859   4.0452   5.3068   7.1930
     8.5524   8.8224  11.7860

          k = 0.0000-0.5774 0.0909 (  4300 PWs)   bands (ev):

   -40.6569 -40.6118  -3.0845  -1.6050   3.9022   4.0623   5.0821   7.5298
     8.4405   8.9625  11.0951

          k = 0.0000-0.5774 0.1819 (  4310 PWs)   bands (ev):

   -40.6568 -40.6118  -3.0949  -1.5891   3.9413   4.1017   4.7161   7.9950
     8.4921   9.1931  10.3948

          k = 0.0000-0.5774 0.2728 (  4288 PWs)   bands (ev):

   -40.6568 -40.6119  -3.1032  -1.5761   3.9785   4.1346   4.4843   8.0243
     8.7878   9.5216  10.0198

          k = 0.1000 0.1732 0.0000 (  4267 PWs)   bands (ev):

   -40.6965 -40.5777  -5.8342   1.5082   3.9904   4.9280   5.4310   9.4302
    10.5902  10.9099  12.8285

          k = 0.1000 0.1732 0.0909 (  4285 PWs)   bands (ev):

   -40.6964 -40.5777  -5.8353   1.4489   3.9748   4.9947   5.6480   9.3536
    10.5386  10.9041  12.0998

          k = 0.1000 0.1732 0.1819 (  4290 PWs)   bands (ev):

   -40.6963 -40.5779  -5.8376   1.3281   3.9588   5.0719   6.2975   9.0997
    10.2829  10.8417  11.2612

          k = 0.1000 0.1732 0.2728 (  4281 PWs)   bands (ev):

   -40.6962 -40.5779  -5.8395   1.2412   3.9555   5.1119   7.1611   8.5292
     9.8707  10.7463  10.9962

          k = 0.1000 0.2887 0.0000 (  4292 PWs)   bands (ev):

   -40.6848 -40.5873  -5.2175   1.9569   2.3402   4.0807   5.7679   8.5211
    10.0923  11.3630  11.9018

          k = 0.1000 0.2887 0.0909 (  4291 PWs)   bands (ev):

   -40.6847 -40.5874  -5.2183   1.9422   2.2676   4.1243   6.0594   8.4821
    10.0270  10.6746  11.5194

          k = 0.1000 0.2887 0.1819 (  4291 PWs)   bands (ev):

   -40.6846 -40.5874  -5.2206   1.8560   2.2230   4.1784   6.7160   8.4201
     9.8021  10.0310  10.8262

          k = 0.1000 0.2887 0.2728 (  4292 PWs)   bands (ev):

   -40.6845 -40.5875  -5.2226   1.7786   2.2218   4.2094   7.4118   8.4425
     9.0247  10.0722  10.3594

          k = 0.1000 0.4041 0.0000 (  4291 PWs)   bands (ev):

   -40.6699 -40.6000  -4.3183   0.3756   2.8639   3.5089   6.1631   7.4047
     9.5124  10.4501  10.8938

          k = 0.1000 0.4041 0.0909 (  4294 PWs)   bands (ev):

   -40.6699 -40.6001  -4.3189   0.3742   2.7678   3.5518   6.6296   7.1183
     9.4095   9.9727  10.9295

          k = 0.1000 0.4041 0.1819 (  4290 PWs)   bands (ev):

   -40.6698 -40.6001  -4.3216   0.3788   2.6536   3.5921   6.8338   7.3727
     9.2822   9.5666  10.4635

          k = 0.1000 0.4041 0.2728 (  4296 PWs)   bands (ev):

   -40.6698 -40.6002  -4.3245   0.3869   2.5918   3.6118   6.6013   8.1373
     9.0106   9.5686   9.9876

          k = 0.1000 0.5196 0.0000 (  4306 PWs)   bands (ev):

   -40.6569 -40.6117  -3.2553  -1.1880   3.1788   3.8080   5.6050   7.3765
     9.0314   9.5210  10.5454

          k = 0.1000 0.5196 0.0909 (  4303 PWs)   bands (ev):

   -40.6569 -40.6118  -3.2570  -1.1862   3.1864   3.7646   5.5897   7.5054
     8.9484   9.5111  10.3920

          k = 0.1000 0.5196 0.1819 (  4302 PWs)   bands (ev):

   -40.6569 -40.6118  -3.2635  -1.1766   3.2297   3.7066   5.3317   8.0241
     8.9242   9.4265  10.0925

          k = 0.1000 0.5196 0.2728 (  4298 PWs)   bands (ev):

   -40.6568 -40.6118  -3.2699  -1.1662   3.2857   3.6602   5.1132   8.3738
     8.9473   9.5956   9.8165

          k = 0.2000 0.3464 0.0000 (  4305 PWs)   bands (ev):

   -40.6718 -40.5984  -4.4618   1.0326   2.7251   2.7652   6.2104   7.7393
    10.1795  11.0878  11.2215

          k = 0.2000 0.3464 0.0909 (  4298 PWs)   bands (ev):

   -40.6717 -40.5985  -4.4630   1.0313   2.6416   2.8141   6.3965   7.7063
     9.7090  11.0130  11.2998

          k = 0.2000 0.3464 0.1819 (  4290 PWs)   bands (ev):

   -40.6717 -40.5985  -4.4656   1.0278   2.5364   2.8505   6.8632   7.6318
     9.2061  10.4320  11.3564

          k = 0.2000 0.3464 0.2728 (  4310 PWs)   bands (ev):

   -40.6716 -40.5986  -4.4678   1.0246   2.4710   2.8681   7.3383   7.5469
     9.1017   9.7086  11.3774

          k = 0.2000 0.4619 0.0000 (  4311 PWs)   bands (ev):

   -40.6570 -40.6117  -3.4543  -0.3827   1.9647   3.6387   6.1138   7.4377
     9.3705   9.8586  10.9271

          k = 0.2000 0.4619 0.0909 (  4303 PWs)   bands (ev):

   -40.6569 -40.6117  -3.4556  -0.3857   1.9858   3.5849   6.2514   7.2591
     9.0743  10.1169  11.1746

          k = 0.2000 0.4619 0.1819 (  4298 PWs)   bands (ev):

   -40.6569 -40.6118  -3.4597  -0.3882   2.0398   3.4858   6.2340   7.2194
     8.9557  10.0936  11.3191

          k = 0.2000 0.4619 0.2728 (  4298 PWs)   bands (ev):

   -40.6569 -40.6118  -3.4635  -0.3883   2.0900   3.4086   6.1021   7.2741
     9.2211   9.7464  11.4190

          k = 0.2000 0.5774 0.0000 (  4315 PWs)   bands (ev):

   -40.6480 -40.6201  -2.6082  -1.4122   1.7448   4.3428   5.4314   7.8675
     9.0258   9.1522  10.8140

          k = 0.2000 0.5774 0.0909 (  4303 PWs)   bands (ev):

   -40.6480 -40.6201  -2.6127  -1.4096   1.7661   4.3525   5.3207   7.6498
     9.1205   9.3743  11.0676

          k = 0.2000 0.5774 0.1819 (  4302 PWs)   bands (ev):

   -40.6480 -40.6201  -2.6227  -1.4037   1.8177   4.3752   5.0712   7.3794
     9.2702   9.6704  11.2802

          k = 0.2000 0.5774 0.2728 (  4293 PWs)   bands (ev):

   -40.6479 -40.6201  -2.6307  -1.3991   1.8634   4.3952   4.8711   7.2478
     9.4795   9.6866  11.3862

          k = 0.3000 0.5196 0.0000 (  4337 PWs)   bands (ev):

   -40.6426 -40.6253  -2.4058  -1.2123   0.9656   4.5322   5.5143   8.0510
     8.4487   9.5564   9.8538

          k = 0.3000 0.5196 0.0909 (  4306 PWs)   bands (ev):

   -40.6426 -40.6253  -2.4091  -1.2162   0.9919   4.5208   5.5284   7.2579
     9.0491   9.8591  10.0772

          k = 0.3000 0.5196 0.1819 (  4301 PWs)   bands (ev):

   -40.6425 -40.6253  -2.4165  -1.2250   1.0541   4.4861   5.5592   6.5525
     9.3330   9.8437  11.4594

          k = 0.3000 0.5196 0.2728 (  4301 PWs)   bands (ev):

   -40.6425 -40.6253  -2.4224  -1.2320   1.1075   4.4461   5.5838   6.1913
     9.5609   9.7480  12.8631

          k = 0.0000 0.1155-0.0909 (  4269 PWs)   bands (ev):

   -40.7028 -40.5727  -6.1472   1.1756   5.1841   5.3890   5.8337   9.5916
    10.4581  10.7118  12.5658

          k = 0.0000 0.1155-0.1819 (  4288 PWs)   bands (ev):

   -40.7027 -40.5728  -6.1496   1.0549   5.1823   5.8650   6.0740   9.2012
    10.1338  10.6948  12.2049

          k = 0.0000 0.1155-0.2728 (  4287 PWs)   bands (ev):

   -40.7026 -40.5729  -6.1515   0.9678   5.1872   5.8914   6.9617   8.4118
     9.9457  10.6508  11.8410

          k = 0.0000 0.2309-0.0909 (  4291 PWs)   bands (ev):

   -40.6934 -40.5802  -5.6804   1.5841   3.3058   5.1640   5.6040   8.8222
     9.9231  11.7312  12.0711

          k = 0.0000 0.2309-0.1819 (  4287 PWs)   bands (ev):

   -40.6933 -40.5803  -5.6828   1.4658   3.2979   5.1990   6.2430   8.6572
     9.8575  10.9372  11.3251

          k = 0.0000 0.2309-0.2728 (  4297 PWs)   bands (ev):

   -40.6932 -40.5804  -5.6845   1.3785   3.2823   5.2285   7.1073   8.4133
     9.5251  10.1352  11.0128

          k = 0.0000 0.3464-0.0909 (  4296 PWs)   bands (ev):

   -40.6796 -40.5917  -4.9164   1.2594   2.3277   4.5730   5.8549   7.9764
     9.0006  10.9958  11.5988

          k = 0.0000 0.3464-0.1819 (  4293 PWs)   bands (ev):

   -40.6795 -40.5918  -4.9191   1.2723   2.1959   4.6105   6.2573   8.0250
     8.9830  10.4550  10.9264

          k = 0.0000 0.3464-0.2728 (  4293 PWs)   bands (ev):

   -40.6794 -40.5918  -4.9206   1.2826   2.0793   4.6420   6.7884   8.2167
     8.8549   9.5601  10.5503

          k = 0.0000 0.4619-0.0909 (  4298 PWs)   bands (ev):

   -40.6647 -40.6047  -3.9020  -0.5193   3.2291   4.1923   5.5724   7.5171
     8.5393   9.6996  11.2392

          k = 0.0000 0.4619-0.1819 (  4313 PWs)   bands (ev):

   -40.6647 -40.6047  -3.9064  -0.5083   3.1315   4.2312   5.4883   7.9128
     8.5168   9.8472  10.5392

          k = 0.0000 0.4619-0.2728 (  4301 PWs)   bands (ev):

   -40.6646 -40.6048  -3.9087  -0.5032   3.0226   4.2638   5.5737   8.1404
     8.5853   9.7006  10.1601

          k =-0.1000 0.2887-0.0909 (  4291 PWs)   bands (ev):

   -40.6847 -40.5874  -5.2188   1.9137   2.3377   4.0961   5.9376   8.4768
    10.1869  11.0222  11.6315

          k =-0.1000 0.2887-0.1819 (  4291 PWs)   bands (ev):

   -40.6846 -40.5874  -5.2212   1.8387   2.2810   4.1543   6.5075   8.3764
    10.2301  10.4254  10.6459

          k =-0.1000 0.2887-0.2728 (  4292 PWs)   bands (ev):

   -40.6845 -40.5875  -5.2229   1.7758   2.2399   4.2011   7.2569   8.3116
     9.4701  10.1327  10.2904

          k =-0.1000 0.4041-0.0909 (  4294 PWs)   bands (ev):

   -40.6699 -40.6001  -4.3204   0.3822   2.8462   3.5070   6.0438   7.6452
     9.6480  10.1953  10.7477

          k =-0.1000 0.4041-0.1819 (  4290 PWs)   bands (ev):

   -40.6698 -40.6001  -4.3236   0.3897   2.7250   3.5546   6.1832   7.8777
     9.5684   9.9125  10.3386

          k =-0.1000 0.4041-0.2728 (  4296 PWs)   bands (ev):

   -40.6698 -40.6002  -4.3254   0.3920   2.6171   3.5993   6.3969   8.1715
     9.3276   9.6408   9.9530

          k =-0.1000 0.5196-0.0909 (  4303 PWs)   bands (ev):

   -40.6569 -40.6118  -3.2595  -1.1807   3.2068   3.8157   5.3300   7.7279
     9.1645   9.3949  10.3266

          k =-0.1000 0.5196-0.1819 (  4302 PWs)   bands (ev):

   -40.6569 -40.6118  -3.2667  -1.1697   3.2565   3.7639   5.0943   8.1355
     9.0753   9.5962   9.9698

          k =-0.1000 0.5196-0.2728 (  4298 PWs)   bands (ev):

   -40.6568 -40.6118  -3.2712  -1.1631   3.2985   3.6824   5.0254   8.3612
     9.0130   9.6788   9.8412

          k =-0.2000 0.4619-0.0909 (  4303 PWs)   bands (ev):

   -40.6569 -40.6117  -3.4567  -0.3815   1.9868   3.6094   6.0011   7.5554
     9.0435  10.1638  11.2018

          k =-0.2000 0.4619-0.1819 (  4298 PWs)   bands (ev):

   -40.6569 -40.6118  -3.4611  -0.3828   2.0404   3.5122   5.9724   7.4869
     8.9883  10.0836  11.4607

          k =-0.2000 0.4619-0.2728 (  4298 PWs)   bands (ev):

   -40.6569 -40.6118  -3.4641  -0.3859   2.0899   3.4192   6.0062   7.3565
     9.2986   9.6830  11.5007

     the Fermi energy is     7.1366 ev

!    total energy              =     -45.14416000 Ry
     estimated scf accuracy    <          2.3E-10 Ry
     smearing contrib. (-TS)   =      -0.00074049 Ry
     internal energy E=F+TS    =     -45.14341951 Ry

     The total energy is F=E-TS. E is the sum of the following terms:
     one-electron contribution =     -11.39893081 Ry
     hartree contribution      =       8.30068445 Ry
     xc contribution           =     -13.47622861 Ry
     ewald contribution        =     -28.56894454 Ry

     convergence has been achieved in   8 iterations

     Forces acting on atoms (cartesian axes, Ry/au):

     atom    1 type  1   force =     0.00000000    0.00000000   -0.30223502
     atom    2 type  1   force =    -0.00000000   -0.00000000    0.30223502
     atom    3 type  2   force =     0.00000000    0.00000000    0.26721631
     atom    4 type  2   force =    -0.00000000   -0.00000000   -0.26721631
     The non-local contrib.  to forces
     atom    1 type  1   force =     0.00000000    0.00000000    0.02384844
     atom    2 type  1   force =     0.00000000   -0.00000000   -0.02384844
     atom    3 type  2   force =     0.00000000    0.00000000    0.16384841
     atom    4 type  2   force =     0.00000000   -0.00000000   -0.16384841
     The ionic contribution  to forces
     atom    1 type  1   force =     0.00000002   -0.00000001   -1.56565092
     atom    2 type  1   force =    -0.00000002    0.00000001    1.56565092
     atom    3 type  2   force =     0.00000006   -0.00000004    0.12922294
     atom    4 type  2   force =    -0.00000006    0.00000004   -0.12922294
     The local contribution  to forces
     atom    1 type  1   force =     0.00000064   -0.00000037    1.23956967
     atom    2 type  1   force =    -0.00000064    0.00000037   -1.23956967
     atom    3 type  2   force =     0.00000001   -0.00000001   -0.01992358
     atom    4 type  2   force =    -0.00000001    0.00000001    0.01992358
     The core correction contribution to forces
     atom    1 type  1   force =     0.00000000    0.00000000    0.00000000
     atom    2 type  1   force =     0.00000000    0.00000000    0.00000000
     atom    3 type  2   force =    -0.00000000    0.00000000   -0.00593797
     atom    4 type  2   force =     0.00000000   -0.00000000    0.00593797
     The Hubbard contrib.    to forces
     atom    1 type  1   force =     0.00000000    0.00000000    0.00000000
     atom    2 type  1   force =     0.00000000    0.00000000    0.00000000
     atom    3 type  2   force =     0.00000000    0.00000000    0.00000000
     atom    4 type  2   force =     0.00000000    0.00000000    0.00000000
     The SCF correction term to forces
     atom    1 type  1   force =    -0.00000000    0.00000000   -0.00000221
     atom    2 type  1   force =     0.00000000   -0.00000000    0.00000221
     atom    3 type  2   force =    -0.00000000    0.00000000    0.00000651
     atom    4 type  2   force =     0.00000000   -0.00000000   -0.00000651

     Total force =     0.570527     Total SCF correction =     0.000010


     Computing stress (Cartesian axis) and pressure

          total   stress  (Ry/bohr**3)                   (kbar)     P=      584.67
   0.00262628   0.00000000   0.00000000          386.34        0.00        0.00
   0.00000000   0.00262628   0.00000000            0.00      386.34        0.00
   0.00000000   0.00000000   0.00667101            0.00        0.00      981.34


     BFGS Geometry Optimization
     Energy error            =      0.0E+00 Ry
     Gradient error          =      3.0E-01 Ry/Bohr
     Cell gradient error     =      4.8E+02 kbar

     number of scf cycles    =   1
     number of bfgs steps    =   0

     enthalpy           new  =     -43.9356763570 Ry

     new trust radius        =       0.3084917365 bohr
ibrav =      4
 celldm(1) =      6.27024037
 celldm(3) =      1.73269021
Input lattice vectors:
     0.98068366     0.00000000     0.00000000
    -0.49034183     0.84929696     0.00000000
     0.00000000     0.00000000     1.69922097
New lattice vectors in INITIAL alat:
     0.98068366     0.00000000     0.00000000
    -0.49034183     0.84929696     0.00000000
     0.00000000     0.00000000     1.69922097
New lattice vectors in NEW alat (for information only):
     1.00000000     0.00000000     0.00000000
    -0.50000000     0.86602540     0.00000000
     0.00000000     0.00000000     1.73269021
Discrepancy in bohr =     0.000000    0.000000    0.000000
     new conv_thr            =       0.0000000100 Ry

     new unit-cell volume =    369.91686 a.u.^3 (    54.81602 Ang^3 )
     density =      2.12211 g/cm^3

CELL_PARAMETERS (alat=  6.39374412)
   0.980683658   0.000000000   0.000000000
  -0.490341829   0.849296961   0.000000000
   0.000000000   0.000000000   1.699220975

ATOMIC_POSITIONS (crystal)
Li            0.3333333300        0.6666666700        0.0882599756
Li            0.6666666700        0.3333333300        0.9117400244
Si            0.3333333300        0.6666666700        0.4604650979
Si            0.6666666700        0.3333333300        0.5395349021



     Writing config-only to output data dir ./output/LiSi.save/
     NEW-OLD atomic charge density approx. for the potential
     extrapolated charge   14.54340, renormalised to   14.00000

     total cpu time spent up to now is       12.2 secs

     Self-consistent Calculation

     iteration #  1     ecut=    80.00 Ry     beta= 0.70
     Davidson diagonalization with overlap
     c_bands:  1 eigenvalues not converged
     c_bands:  1 eigenvalues not converged
     ethr =  1.00E-06,  avg # of iterations = 12.2

     total cpu time spent up to now is       14.8 secs

     total energy              =     -45.31485816 Ry
     estimated scf accuracy    <       0.04401161 Ry

     iteration #  2     ecut=    80.00 Ry     beta= 0.70
     Davidson diagonalization with overlap
     ethr =  3.14E-04,  avg # of iterations =  3.3

     total cpu time spent up to now is       15.8 secs

     total energy              =     -45.32274274 Ry
     estimated scf accuracy    <       0.06470754 Ry

     iteration #  3     ecut=    80.00 Ry     beta= 0.70
     Davidson diagonalization with overlap
     ethr =  3.14E-04,  avg # of iterations =  2.1

     total cpu time spent up to now is       16.6 secs

     total energy              =     -45.33416642 Ry
     estimated scf accuracy    <       0.00036821 Ry

     iteration #  4     ecut=    80.00 Ry     beta= 0.70
     Davidson diagonalization with overlap
     ethr =  2.63E-06,  avg # of iterations =  5.4

     total cpu time spent up to now is       17.6 secs

     total energy              =     -45.33425984 Ry
     estimated scf accuracy    <       0.00002832 Ry

     iteration #  5     ecut=    80.00 Ry     beta= 0.70
     Davidson diagonalization with overlap
     ethr =  2.02E-07,  avg # of iterations =  2.1

     total cpu time spent up to now is       18.4 secs

     total energy              =     -45.33426307 Ry
     estimated scf accuracy    <       0.00000225 Ry

     iteration #  6     ecut=    80.00 Ry     beta= 0.70
     Davidson diagonalization with overlap
     ethr =  1.61E-08,  avg # of iterations =  2.8

     total cpu time spent up to now is       19.3 secs

     total energy              =     -45.33426384 Ry
     estimated scf accuracy    <       0.00000035 Ry

     iteration #  7     ecut=    80.00 Ry     beta= 0.70
     Davidson diagonalization with overlap
     ethr =  2.49E-09,  avg # of iterations =  1.8

     total cpu time spent up to now is       20.0 secs

     End of self-consistent calculation

          k = 0.0000 0.0000 0.0000 (  4247 PWs)   bands (ev):

   -40.5062 -40.2488  -7.0351   0.5510   4.3536   5.7983   5.7983   9.9491
     9.9491  10.6116  12.0888

          k = 0.0000 0.0000 0.0841 (  4247 PWs)   bands (ev):

   -40.5062 -40.2489  -7.0357   0.5065   4.5781   5.8023   5.8023   9.9163
     9.9549   9.9549  12.1191

          k = 0.0000 0.0000 0.1681 (  4277 PWs)   bands (ev):

   -40.5062 -40.2489  -7.0371   0.4146   5.2032   5.8114   5.8114   8.6319
     9.9679   9.9679  12.1186

          k = 0.0000 0.0000 0.2522 (  4324 PWs)   bands (ev):

   -40.5062 -40.2489  -7.0383   0.3477   5.8187   5.8187   6.1268   7.3384
     9.9784   9.9784  12.1061

          k = 0.0000 0.1177 0.0000 (  4261 PWs)   bands (ev):

   -40.5002 -40.2540  -6.8700   0.7050   4.4568   4.8468   5.4382   9.6210
    10.5726  10.6044  12.6443

          k = 0.0000 0.1177 0.0841 (  4269 PWs)   bands (ev):

   -40.5002 -40.2541  -6.8705   0.6594   4.6521   4.8809   5.4429   9.5417
    10.0985  10.6026  12.5272

          k = 0.0000 0.1177 0.1681 (  4288 PWs)   bands (ev):

   -40.5002 -40.2541  -6.8719   0.5659   4.8250   5.3387   5.4531   8.6698
     9.7847  10.6097  12.3215

          k = 0.0000 0.1177 0.2522 (  4287 PWs)   bands (ev):

   -40.5002 -40.2541  -6.8730   0.4980   4.8434   5.4613   6.2377   7.4379
     9.7653  10.6208  12.2037

          k = 0.0000 0.2355 0.0000 (  4284 PWs)   bands (ev):

   -40.4831 -40.2690  -6.3779   1.1616   2.9217   4.7578   4.7806   8.9057
     9.7974  11.8920  12.1221

          k = 0.0000 0.2355 0.0841 (  4291 PWs)   bands (ev):

   -40.4831 -40.2690  -6.3784   1.1127   2.9126   4.7632   5.0308   8.9164
     9.6824  10.9144  12.0370

          k = 0.0000 0.2355 0.1681 (  4287 PWs)   bands (ev):

   -40.4831 -40.2690  -6.3796   1.0155   2.9132   4.7751   5.6548   8.6821
     9.2393  10.1892  11.9104

          k = 0.0000 0.2355 0.2522 (  4297 PWs)   bands (ev):

   -40.4831 -40.2690  -6.3806   0.9465   2.9192   4.7846   6.5110   7.6970
     9.1203  10.0651  11.8215

          k = 0.0000 0.3532 0.0000 (  4292 PWs)   bands (ev):

   -40.4578 -40.2916  -5.5720   0.8525   1.9339   4.1574   5.2951   7.9339
     8.5692  10.3574  12.7575

          k = 0.0000 0.3532 0.0841 (  4296 PWs)   bands (ev):

   -40.4578 -40.2916  -5.5723   0.8557   1.8650   4.1632   5.5830   7.9618
     8.4776   9.8564  12.1331

          k = 0.0000 0.3532 0.1681 (  4293 PWs)   bands (ev):

   -40.4578 -40.2916  -5.5734   0.8614   1.7585   4.1763   6.1641   7.9919
     8.4063   9.0435  11.6095

          k = 0.0000 0.3532 0.2522 (  4293 PWs)   bands (ev):

   -40.4578 -40.2916  -5.5745   0.8662   1.6926   4.1869   6.7303   8.0228
     8.2290   8.5347  11.3404

          k = 0.0000 0.4710 0.0000 (  4302 PWs)   bands (ev):

   -40.4304 -40.3168  -4.4981  -1.0132   2.9136   3.7709   5.8505   6.5140
     8.0324   8.9862  12.3091

          k = 0.0000 0.4710 0.0841 (  4298 PWs)   bands (ev):

   -40.4304 -40.3168  -4.4984  -1.0124   2.8418   3.7770   6.1534   6.4395
     7.9684   8.9277  11.7108

          k = 0.0000 0.4710 0.1681 (  4313 PWs)   bands (ev):

   -40.4304 -40.3168  -4.5000  -1.0076   2.7503   3.7907   5.8841   7.2161
     7.9462   8.7673  11.1641

          k = 0.0000 0.4710 0.2522 (  4301 PWs)   bands (ev):

   -40.4304 -40.3169  -4.5017  -1.0024   2.7018   3.8019   5.6863   7.8837
     8.0519   8.5628  10.8803

          k = 0.0000-0.5887 0.0000 (  4322 PWs)   bands (ev):

   -40.4159 -40.3306  -3.6152  -2.1691   3.6388   3.6643   5.3051   6.5235
     7.9555   8.2156  12.7047

          k = 0.0000-0.5887 0.0841 (  4300 PWs)   bands (ev):

   -40.4159 -40.3306  -3.6174  -2.1654   3.6450   3.6706   5.0381   6.9203
     7.9109   8.3340  11.5644

          k = 0.0000-0.5887 0.1681 (  4310 PWs)   bands (ev):

   -40.4159 -40.3306  -3.6222  -2.1571   3.6590   3.6859   4.6653   7.5889
     7.8692   8.6274  11.0115

          k = 0.0000-0.5887 0.2522 (  4288 PWs)   bands (ev):

   -40.4159 -40.3306  -3.6262  -2.1504   3.6703   3.6997   4.4494   7.8022
     8.0594   9.0537  10.7224

          k = 0.1020 0.1766 0.0000 (  4267 PWs)   bands (ev):

   -40.4886 -40.2641  -6.5413   1.0108   3.6454   4.5535   4.7490   9.5430
    10.3523  10.9923  12.4562

          k = 0.1020 0.1766 0.0841 (  4285 PWs)   bands (ev):

   -40.4886 -40.2641  -6.5418   0.9641   3.6412   4.6131   4.9244   9.3832
    10.2190  10.9935  11.7329

          k = 0.1020 0.1766 0.1681 (  4290 PWs)   bands (ev):

   -40.4886 -40.2642  -6.5431   0.8679   3.6376   4.6461   5.5285   8.6876
    10.0139  10.9869  11.1278

          k = 0.1020 0.1766 0.2522 (  4281 PWs)   bands (ev):

   -40.4886 -40.2642  -6.5441   0.7982   3.6377   4.6589   6.4180   7.6096
     9.9315  10.8988  10.9989

          k = 0.1020 0.2944 0.0000 (  4292 PWs)   bands (ev):

   -40.4673 -40.2831  -5.8913   1.5726   1.9084   3.6916   5.1120   8.6859
     9.7590  11.1888  12.0493

          k = 0.1020 0.2944 0.0841 (  4291 PWs)   bands (ev):

   -40.4673 -40.2831  -5.8917   1.5412   1.8798   3.7068   5.3513   8.6909
     9.6998  10.4090  11.7288

          k = 0.1020 0.2944 0.1681 (  4291 PWs)   bands (ev):

   -40.4673 -40.2831  -5.8929   1.4548   1.8632   3.7260   5.9507   8.5663
     9.3352   9.7560  11.2478

          k = 0.1020 0.2944 0.2522 (  4292 PWs)   bands (ev):

   -40.4672 -40.2831  -5.8939   1.3874   1.8632   3.7368   6.7325   7.9162
     8.9750   9.7389  10.9288

          k = 0.1020 0.4121 0.0000 (  4291 PWs)   bands (ev):

   -40.4400 -40.3079  -4.9429  -0.0591   2.5087   3.0947   5.7068   7.2212
     9.1790   9.7656  11.4930

          k = 0.1020 0.4121 0.0841 (  4294 PWs)   bands (ev):

   -40.4400 -40.3079  -4.9432  -0.0586   2.4368   3.1107   6.0011   7.1459
     9.0376   9.5644  11.1139

          k = 0.1020 0.4121 0.1681 (  4290 PWs)   bands (ev):

   -40.4400 -40.3079  -4.9444  -0.0553   2.3355   3.1255   6.4056   7.2462
     8.7538   9.3350  10.6847

          k = 0.1020 0.4121 0.2522 (  4296 PWs)   bands (ev):

   -40.4400 -40.3079  -4.9456  -0.0514   2.2761   3.1322   6.4904   7.8044
     8.2963   9.2837  10.3320

          k = 0.1020 0.5299 0.0000 (  4306 PWs)   bands (ev):

   -40.4159 -40.3305  -3.8127  -1.7062   2.7824   3.5357   5.6427   6.5366
     8.4780   9.0376  11.1097

          k = 0.1020 0.5299 0.0841 (  4303 PWs)   bands (ev):

   -40.4159 -40.3305  -3.8135  -1.7047   2.7871   3.4887   5.5557   6.7880
     8.4397   9.0643  10.6990

          k = 0.1020 0.5299 0.1681 (  4302 PWs)   bands (ev):

   -40.4159 -40.3305  -3.8164  -1.6994   2.8046   3.4303   5.2523   7.4673
     8.4655   9.0710  10.3029

          k = 0.1020 0.5299 0.2522 (  4298 PWs)   bands (ev):

   -40.4159 -40.3305  -3.8191  -1.6942   2.8226   3.3987   5.0456   7.9544
     8.5961   9.1502  10.0095

          k = 0.2039 0.3532 0.0000 (  4305 PWs)   bands (ev):

   -40.4434 -40.3048  -5.0948   0.6560   2.2765   2.3812   5.6353   7.7025
    10.4311  10.5357  10.8281

          k = 0.2039 0.3532 0.0841 (  4298 PWs)   bands (ev):

   -40.4434 -40.3048  -5.0953   0.6557   2.2578   2.3590   5.8260   7.6775
     9.7943  10.5544  10.8889

          k = 0.2039 0.3532 0.1681 (  4290 PWs)   bands (ev):

   -40.4434 -40.3048  -5.0965   0.6550   2.1955   2.3378   6.3298   7.6231
     9.1251  10.1147  10.9381

          k = 0.2039 0.3532 0.2522 (  4310 PWs)   bands (ev):

   -40.4434 -40.3048  -5.0974   0.6544   2.1405   2.3329   6.9267   7.5739
     8.5301   9.7387  10.9483

          k = 0.2039 0.4710 0.0000 (  4311 PWs)   bands (ev):

   -40.4160 -40.3304  -4.0306  -0.8278   1.4908   3.3589   6.1235   6.6469
     9.2121   9.7745  10.2786

          k = 0.2039 0.4710 0.0841 (  4303 PWs)   bands (ev):

   -40.4160 -40.3304  -4.0312  -0.8285   1.4998   3.3064   6.3476   6.5240
     8.8678   9.8532  10.6532

          k = 0.2039 0.4710 0.1681 (  4298 PWs)   bands (ev):

   -40.4160 -40.3304  -4.0329  -0.8287   1.5217   3.2149   6.2031   6.8882
     8.6094   9.7393  10.9787

          k = 0.2039 0.4710 0.2522 (  4298 PWs)   bands (ev):

   -40.4160 -40.3305  -4.0344  -0.8281   1.5406   3.1515   6.0668   7.1685
     8.6938   9.4520  11.0781

          k = 0.2039 0.5887 0.0000 (  4315 PWs)   bands (ev):

   -40.3993 -40.3465  -3.1229  -1.9279   1.2672   4.1447   5.4198   6.9412
     8.4719   9.4766  10.1641

          k = 0.2039 0.5887 0.0841 (  4303 PWs)   bands (ev):

   -40.3993 -40.3465  -3.1250  -1.9262   1.2762   4.1467   5.2754   7.0343
     8.5499   9.3847  10.4791

          k = 0.2039 0.5887 0.1681 (  4302 PWs)   bands (ev):

   -40.3993 -40.3465  -3.1296  -1.9224   1.2970   4.1516   5.0110   7.1528
     8.7713   9.3535  10.8794

          k = 0.2039 0.5887 0.2522 (  4293 PWs)   bands (ev):

   -40.3993 -40.3465  -3.1332  -1.9194   1.3145   4.1562   4.8331   7.1903
     9.0675   9.2982  11.0442

          k = 0.3059 0.5299 0.0000 (  4337 PWs)   bands (ev):

   -40.3891 -40.3565  -2.9211  -1.6700   0.4185   4.3631   5.4957   7.1078
     8.7414   8.9148   9.2650

          k = 0.3059 0.5299 0.0841 (  4306 PWs)   bands (ev):

   -40.3891 -40.3564  -2.9224  -1.6716   0.4300   4.3444   5.4956   6.8444
     8.6719   9.2998   9.5642

          k = 0.3059 0.5299 0.1681 (  4301 PWs)   bands (ev):

   -40.3891 -40.3564  -2.9256  -1.6752   0.4566   4.2993   5.4949   6.4434
     8.8453   9.3546  10.6944

          k = 0.3059 0.5299 0.2522 (  4301 PWs)   bands (ev):

   -40.3891 -40.3564  -2.9281  -1.6781   0.4786   4.2599   5.4938   6.2108
     9.1010   9.3197  11.9386

          k = 0.0000 0.1177-0.0841 (  4269 PWs)   bands (ev):

   -40.5002 -40.2541  -6.8706   0.6600   4.6773   4.8522   5.4425   9.4971
    10.1195  10.6144  12.6988

          k = 0.0000 0.1177-0.1681 (  4288 PWs)   bands (ev):

   -40.5002 -40.2541  -6.8719   0.5665   4.8388   5.3206   5.4527   8.6346
     9.8086  10.6252  12.5187

          k = 0.0000 0.1177-0.2522 (  4287 PWs)   bands (ev):

   -40.5002 -40.2541  -6.8730   0.4983   4.8460   5.4611   6.2341   7.4282
     9.7715  10.6280  12.2685

          k = 0.0000 0.2355-0.0841 (  4291 PWs)   bands (ev):

   -40.4831 -40.2690  -6.3785   1.1162   2.9296   4.7629   4.9799   8.8053
     9.6561  11.5876  12.1522

          k = 0.0000 0.2355-0.1681 (  4287 PWs)   bands (ev):

   -40.4831 -40.2690  -6.3798   1.0199   2.9289   4.7747   5.5868   8.4466
     9.3612  10.7134  12.0628

          k = 0.0000 0.2355-0.2522 (  4297 PWs)   bands (ev):

   -40.4831 -40.2690  -6.3807   0.9484   2.9248   4.7845   6.4693   7.6402
     9.1762  10.2280  11.8786

          k = 0.0000 0.3532-0.0841 (  4296 PWs)   bands (ev):

   -40.4578 -40.2916  -5.5728   0.8540   1.9007   4.1631   5.4169   7.8491
     8.6147  10.4915  12.2108

          k = 0.0000 0.3532-0.1681 (  4293 PWs)   bands (ev):

   -40.4578 -40.2916  -5.5740   0.8599   1.7961   4.1761   5.9104   7.7252
     8.5836   9.9684  11.6503

          k = 0.0000 0.3532-0.2522 (  4293 PWs)   bands (ev):

   -40.4578 -40.2916  -5.5748   0.8658   1.7073   4.1868   6.5784   7.6430
     8.5163   9.0040  11.3532

          k = 0.0000 0.4710-0.0841 (  4298 PWs)   bands (ev):

   -40.4304 -40.3168  -4.4994  -1.0095   2.9029   3.7769   5.5642   6.8708
     8.0718   9.1645  11.7328

          k = 0.0000 0.4710-0.1681 (  4313 PWs)   bands (ev):

   -40.4304 -40.3168  -4.5013  -1.0039   2.8156   3.7906   5.5037   7.2671
     8.0390   9.4362  11.1767

          k = 0.0000 0.4710-0.2522 (  4301 PWs)   bands (ev):

   -40.4304 -40.3168  -4.5023  -1.0007   2.7277   3.8018   5.5618   7.7346
     7.9755   9.1977  10.8844

          k =-0.1020 0.2944-0.0841 (  4291 PWs)   bands (ev):

   -40.4673 -40.2831  -5.8919   1.5303   1.9093   3.6979   5.3005   8.5647
     9.7999  11.0450  11.5188

          k =-0.1020 0.2944-0.1681 (  4291 PWs)   bands (ev):

   -40.4673 -40.2831  -5.8931   1.4491   1.8881   3.7184   5.8709   8.3028
     9.7986  10.0643  11.0618

          k =-0.1020 0.2944-0.2522 (  4292 PWs)   bands (ev):

   -40.4673 -40.2831  -5.8940   1.3866   1.8714   3.7342   6.6770   7.8110
     9.2537   9.7708  10.8651

          k =-0.1020 0.4121-0.0841 (  4294 PWs)   bands (ev):

   -40.4400 -40.3079  -4.9438  -0.0563   2.4818   3.0947   5.7366   7.2744
     9.2661   9.8675  10.9229

          k =-0.1020 0.4121-0.1681 (  4290 PWs)   bands (ev):

   -40.4400 -40.3079  -4.9451  -0.0522   2.3804   3.1118   6.0276   7.3427
     9.2206   9.8441  10.2868

          k =-0.1020 0.4121-0.2522 (  4296 PWs)   bands (ev):

   -40.4400 -40.3079  -4.9459  -0.0500   2.2931   3.1275   6.3425   7.5950
     8.8495   9.3877  10.1686

          k =-0.1020 0.5299-0.0841 (  4303 PWs)   bands (ev):

   -40.4159 -40.3305  -3.8146  -1.7027   2.7922   3.5396   5.3148   6.9388
     8.6544   9.0070  10.6522

          k =-0.1020 0.5299-0.1681 (  4302 PWs)   bands (ev):

   -40.4159 -40.3305  -3.8176  -1.6969   2.8105   3.4898   5.0605   7.4396
     8.8277   9.1490  10.1683

          k =-0.1020 0.5299-0.2522 (  4298 PWs)   bands (ev):

   -40.4159 -40.3305  -3.8197  -1.6931   2.8251   3.4237   4.9767   7.8345
     8.7878   9.3980   9.8368

          k =-0.2039 0.4710-0.0841 (  4303 PWs)   bands (ev):

   -40.4160 -40.3304  -4.0316  -0.8271   1.5002   3.3282   5.9792   6.8605
     9.0838   9.7117  10.6300

          k =-0.2039 0.4710-0.1681 (  4298 PWs)   bands (ev):

   -40.4160 -40.3304  -4.0334  -0.8268   1.5220   3.2385   5.9558   7.0611
     8.8884   9.5961  11.0385

          k =-0.2039 0.4710-0.2522 (  4298 PWs)   bands (ev):

   -40.4160 -40.3304  -4.0347  -0.8273   1.5407   3.1610   5.9884   7.1938
     8.9170   9.3075  11.1233

     the Fermi energy is     6.5729 ev

!    total energy              =     -45.33426390 Ry
     estimated scf accuracy    <          4.4E-09 Ry
     smearing contrib. (-TS)   =      -0.00000186 Ry
     internal energy E=F+TS    =     -45.33426204 Ry

     The total energy is F=E-TS. E is the sum of the following terms:
     one-electron contribution =     -11.39048829 Ry
     hartree contribution      =       8.16227869 Ry
     xc contribution           =     -13.45928969 Ry
     ewald contribution        =     -28.64676275 Ry

     convergence has been achieved in   7 iterations

     Forces acting on atoms (cartesian axes, Ry/au):

     atom    1 type  1   force =    -0.00000000   -0.00000000   -0.01457050
     atom    2 type  1   force =    -0.00000000   -0.00000000    0.01457050
     atom    3 type  2   force =     0.00000000    0.00000000   -0.05660815
     atom    4 type  2   force =     0.00000000    0.00000000    0.05660815
     The non-local contrib.  to forces
     atom    1 type  1   force =     0.00000000    0.00000000   -0.05232215
     atom    2 type  1   force =     0.00000000    0.00000000    0.05232215
     atom    3 type  2   force =     0.00000000   -0.00000000   -0.04645108
     atom    4 type  2   force =     0.00000000    0.00000000    0.04645108
     The ionic contribution  to forces
     atom    1 type  1   force =     0.00000003   -0.00000001   -0.43420868
     atom    2 type  1   force =    -0.00000003    0.00000001    0.43420868
     atom    3 type  2   force =     0.00000008   -0.00000005   -0.52381655
     atom    4 type  2   force =    -0.00000008    0.00000005    0.52381655
     The local contribution  to forces
     atom    1 type  1   force =     0.00000062   -0.00000036    0.47198979
     atom    2 type  1   force =    -0.00000062    0.00000036   -0.47198979
     atom    3 type  2   force =    -0.00000000    0.00000000    0.50738342
     atom    4 type  2   force =     0.00000000   -0.00000000   -0.50738342
     The core correction contribution to forces
     atom    1 type  1   force =     0.00000000    0.00000000    0.00000000
     atom    2 type  1   force =     0.00000000    0.00000000    0.00000000
     atom    3 type  2   force =    -0.00000000    0.00000000    0.00625701
     atom    4 type  2   force =     0.00000000   -0.00000000   -0.00625701
     The Hubbard contrib.    to forces
     atom    1 type  1   force =     0.00000000    0.00000000    0.00000000
     atom    2 type  1   force =     0.00000000    0.00000000    0.00000000
     atom    3 type  2   force =     0.00000000    0.00000000    0.00000000
     atom    4 type  2   force =     0.00000000    0.00000000    0.00000000
     The SCF correction term to forces
     atom    1 type  1   force =    -0.00000000    0.00000000   -0.00002947
     atom    2 type  1   force =     0.00000000   -0.00000000    0.00002947
     atom    3 type  2   force =     0.00000000   -0.00000000    0.00001905
     atom    4 type  2   force =    -0.00000000    0.00000000   -0.00001905

     Total force =     0.082665     Total SCF correction =     0.000050


     Computing stress (Cartesian axis) and pressure

          total   stress  (Ry/bohr**3)                   (kbar)     P=      530.06
   0.00438707   0.00000000   0.00000000          645.36        0.00        0.00
  -0.00000000   0.00438707   0.00000000           -0.00      645.36        0.00
   0.00000000   0.00000000   0.00203568            0.00        0.00      299.46

     Energy error            =      1.4E-01 Ry
     Gradient error          =      5.7E-02 Ry/Bohr
     Cell gradient error     =      2.0E+02 kbar

     number of scf cycles    =   2
     number of bfgs steps    =   1

     enthalpy           old  =     -43.9356763570 Ry
     enthalpy           new  =     -44.0769420556 Ry

     CASE: enthalpy          _new < enthalpy          _old

     new trust radius        =       0.0847363616 bohr
ibrav =      4
 celldm(1) =      6.40666227
 celldm(3) =      1.65843867
Input lattice vectors:
     1.00202044    -0.00000000     0.00000000
    -0.50101022     0.86777515     0.00000000
     0.00000000     0.00000000     1.66178944
New lattice vectors in INITIAL alat:
     1.00202044     0.00000000     0.00000000
    -0.50101022     0.86777515     0.00000000
     0.00000000     0.00000000     1.66178944
New lattice vectors in NEW alat (for information only):
     1.00000000     0.00000000     0.00000000
    -0.50000000     0.86602540     0.00000000
     0.00000000     0.00000000     1.65843867
Discrepancy in bohr =     0.000000    0.000000    0.000000
     new conv_thr            =       0.0000000057 Ry

     new unit-cell volume =    377.68135 a.u.^3 (    55.96660 Ang^3 )
     density =      2.07849 g/cm^3

CELL_PARAMETERS (alat=  6.39374412)
   1.002020436   0.000000000   0.000000000
  -0.501010218   0.867775152   0.000000000
   0.000000000   0.000000000   1.661789442

ATOMIC_POSITIONS (crystal)
Li            0.3333333300        0.6666666700        0.0854346720
Li            0.6666666700        0.3333333300        0.9145653280
Si            0.3333333300        0.6666666700        0.4565957245
Si            0.6666666700        0.3333333300        0.5434042755



     Writing config-only to output data dir ./output/LiSi.save/
     NEW-OLD atomic charge density approx. for the potential
     extrapolated charge   14.28760, renormalised to   14.00000

     total cpu time spent up to now is       21.8 secs

     Self-consistent Calculation

     iteration #  1     ecut=    80.00 Ry     beta= 0.70
     Davidson diagonalization with overlap
     ethr =  1.00E-06,  avg # of iterations =  9.2

     total cpu time spent up to now is       23.8 secs

     total energy              =     -45.38108811 Ry
     estimated scf accuracy    <       0.00396896 Ry

     iteration #  2     ecut=    80.00 Ry     beta= 0.70
     Davidson diagonalization with overlap
     ethr =  2.83E-05,  avg # of iterations =  4.3

     total cpu time spent up to now is       24.8 secs

     total energy              =     -45.38352429 Ry
     estimated scf accuracy    <       0.00923578 Ry

     iteration #  3     ecut=    80.00 Ry     beta= 0.70
     Davidson diagonalization with overlap
     ethr =  2.83E-05,  avg # of iterations =  2.6

     total cpu time spent up to now is       25.6 secs

     total energy              =     -45.38445924 Ry
     estimated scf accuracy    <       0.00043582 Ry

     iteration #  4     ecut=    80.00 Ry     beta= 0.70
     Davidson diagonalization with overlap
     ethr =  3.11E-06,  avg # of iterations =  3.9

     total cpu time spent up to now is       26.5 secs

     total energy              =     -45.38450914 Ry
     estimated scf accuracy    <       0.00002377 Ry

     iteration #  5     ecut=    80.00 Ry     beta= 0.70
     Davidson diagonalization with overlap
     ethr =  1.70E-07,  avg # of iterations =  2.8

     total cpu time spent up to now is       27.3 secs

     total energy              =     -45.38451638 Ry
     estimated scf accuracy    <       0.00000207 Ry

     iteration #  6     ecut=    80.00 Ry     beta= 0.70
     Davidson diagonalization with overlap
     ethr =  1.48E-08,  avg # of iterations =  2.0

     total cpu time spent up to now is       28.0 secs

     total energy              =     -45.38451674 Ry
     estimated scf accuracy    <       0.00000004 Ry

     iteration #  7     ecut=    80.00 Ry     beta= 0.70
     Davidson diagonalization with overlap
     ethr =  3.08E-10,  avg # of iterations =  3.5

     total cpu time spent up to now is       28.9 secs

     End of self-consistent calculation

          k = 0.0000 0.0000 0.0000 (  4247 PWs)   bands (ev):

   -40.7090 -40.4645  -6.8714   0.5688   4.3637   5.4909   5.4909   9.6571
     9.6571  10.5559  11.3698

          k = 0.0000 0.0000 0.0860 (  4247 PWs)   bands (ev):

   -40.7090 -40.4646  -6.8721   0.5163   4.6044   5.4968   5.4968   9.6649
     9.6649   9.9720  11.3544

          k = 0.0000 0.0000 0.1719 (  4277 PWs)   bands (ev):

   -40.7090 -40.4646  -6.8735   0.4091   5.2688   5.5101   5.5101   8.7596
     9.6826   9.6826  11.3207

          k = 0.0000 0.0000 0.2579 (  4324 PWs)   bands (ev):

   -40.7090 -40.4646  -6.8747   0.3317   5.5209   5.5209   6.2464   7.4541
     9.6968   9.6968  11.2947

          k = 0.0000 0.1152 0.0000 (  4261 PWs)   bands (ev):

   -40.7034 -40.4696  -6.7141   0.7145   4.4516   4.5699   5.1556   9.3301
    10.2721  10.4128  12.0848

          k = 0.0000 0.1152 0.0860 (  4269 PWs)   bands (ev):

   -40.7034 -40.4696  -6.7147   0.6610   4.5100   4.7588   5.1624   9.3160
    10.0070  10.2677  12.0371

          k = 0.0000 0.1152 0.1719 (  4288 PWs)   bands (ev):

   -40.7034 -40.4696  -6.7161   0.5523   4.5443   5.1774   5.3977   8.7600
     9.4996  10.2745  11.7817

          k = 0.0000 0.1152 0.2579 (  4287 PWs)   bands (ev):

   -40.7034 -40.4696  -6.7173   0.4742   4.5597   5.1892   6.3557   7.5446
     9.4681  10.2880  11.6109

          k = 0.0000 0.2305 0.0000 (  4284 PWs)   bands (ev):

   -40.6874 -40.4840  -6.2458   1.1418   2.7011   4.5126   4.7738   8.5812
     9.5098  11.6651  11.6903

          k = 0.0000 0.2305 0.0860 (  4291 PWs)   bands (ev):

   -40.6874 -40.4840  -6.2462   1.0873   2.6877   4.5203   5.0449   8.6190
     9.4100  10.7610  11.5570

          k = 0.0000 0.2305 0.1719 (  4287 PWs)   bands (ev):

   -40.6874 -40.4840  -6.2474   0.9768   2.6872   4.5375   5.7075   8.5645
     9.0412   9.8294  11.3580

          k = 0.0000 0.2305 0.2579 (  4297 PWs)   bands (ev):

   -40.6874 -40.4840  -6.2485   0.8980   2.6949   4.5512   6.6048   7.7617
     8.8122   9.6330  11.2221

          k = 0.0000 0.3457 0.0000 (  4292 PWs)   bands (ev):

   -40.6637 -40.5057  -5.4797   0.6924   1.8951   3.9395   5.2652   7.5924
     8.3205  10.1332  12.2612

          k = 0.0000 0.3457 0.0860 (  4296 PWs)   bands (ev):

   -40.6637 -40.5057  -5.4799   0.6984   1.8136   3.9478   5.5748   7.6196
     8.2144   9.7091  11.5875

          k = 0.0000 0.3457 0.1719 (  4293 PWs)   bands (ev):

   -40.6637 -40.5057  -5.4810   0.7073   1.6906   3.9664   6.1647   7.6700
     8.1554   8.9784  11.0266

          k = 0.0000 0.3457 0.2579 (  4293 PWs)   bands (ev):

   -40.6637 -40.5058  -5.4821   0.7131   1.6162   3.9815   6.6421   7.9931
     8.0496   8.2775  10.7371

          k = 0.0000 0.4609 0.0000 (  4302 PWs)   bands (ev):

   -40.6379 -40.5299  -4.4644  -1.0791   2.8084   3.5688   5.7547   6.3086
     7.7845   8.8019  11.8434

          k = 0.0000 0.4609 0.0860 (  4298 PWs)   bands (ev):

   -40.6379 -40.5299  -4.4647  -1.0770   2.7288   3.5774   5.9375   6.3783
     7.7081   8.7604  11.2021

          k = 0.0000 0.4609 0.1719 (  4313 PWs)   bands (ev):

   -40.6379 -40.5299  -4.4665  -1.0699   2.6254   3.5969   5.6330   7.2289
     7.6800   8.6380  10.6134

          k = 0.0000 0.4609 0.2579 (  4301 PWs)   bands (ev):

   -40.6379 -40.5299  -4.4684  -1.0629   2.5692   3.6127   5.4283   7.6654
     8.0480   8.4921  10.3065

          k = 0.0000-0.5762 0.0000 (  4322 PWs)   bands (ev):

   -40.6242 -40.5430  -3.6534  -2.1520   3.4419   3.4939   5.1638   6.4128
     7.7354   8.0434  12.3024

          k = 0.0000-0.5762 0.0860 (  4300 PWs)   bands (ev):

   -40.6242 -40.5430  -3.6559  -2.1471   3.4506   3.4966   4.8764   6.8279
     7.6936   8.1773  11.0680

          k = 0.0000-0.5762 0.1719 (  4310 PWs)   bands (ev):

   -40.6242 -40.5430  -3.6616  -2.1361   3.4703   3.5034   4.4785   7.4465
     7.7143   8.5306  10.4715

          k = 0.0000-0.5762 0.2579 (  4288 PWs)   bands (ev):

   -40.6242 -40.5430  -3.6660  -2.1271   3.4865   3.5103   4.2488   7.5384
     8.0047   9.0586  10.1582

          k = 0.0998 0.1729 0.0000 (  4267 PWs)   bands (ev):

   -40.6926 -40.4793  -6.4012   1.0020   3.3814   4.3651   4.7117   9.2268
    10.0944  10.5647  12.2971

          k = 0.0998 0.1729 0.0860 (  4285 PWs)   bands (ev):

   -40.6926 -40.4793  -6.4018   0.9479   3.3763   4.3969   4.9345   9.1242
     9.9988  10.5717  11.5319

          k = 0.0998 0.1729 0.1719 (  4290 PWs)   bands (ev):

   -40.6926 -40.4793  -6.4031   0.8375   3.3719   4.4299   5.5846   8.6484
     9.7662  10.5726  10.7350

          k = 0.0998 0.1729 0.2579 (  4281 PWs)   bands (ev):

   -40.6926 -40.4793  -6.4041   0.7580   3.3721   4.4474   6.5294   7.6676
     9.6066  10.4592  10.5676

          k = 0.0998 0.2881 0.0000 (  4292 PWs)   bands (ev):

   -40.6725 -40.4975  -5.7829   1.4440   1.7975   3.5119   5.0979   8.3206
     9.4665  10.9422  11.6097

          k = 0.0998 0.2881 0.0860 (  4291 PWs)   bands (ev):

   -40.6725 -40.4976  -5.7833   1.4330   1.7383   3.5319   5.3540   8.3305
     9.4033  10.2253  11.3004

          k = 0.0998 0.2881 0.1719 (  4291 PWs)   bands (ev):

   -40.6725 -40.4976  -5.7844   1.3647   1.6887   3.5582   5.9844   8.2698
     9.1857   9.4540  10.8010

          k = 0.0998 0.2881 0.2579 (  4292 PWs)   bands (ev):

   -40.6725 -40.4976  -5.7854   1.2971   1.6804   3.5736   6.7882   7.8861
     8.6191   9.4327  10.4479

          k = 0.0998 0.4033 0.0000 (  4291 PWs)   bands (ev):

   -40.6469 -40.5214  -4.8828  -0.1842   2.4286   2.9409   5.6667   6.9256
     8.8846   9.5466  11.1929

          k = 0.0998 0.4033 0.0860 (  4294 PWs)   bands (ev):

   -40.6469 -40.5214  -4.8831  -0.1824   2.3443   2.9637   5.9712   6.8541
     8.7671   9.3308  10.7257

          k = 0.0998 0.4033 0.1719 (  4290 PWs)   bands (ev):

   -40.6469 -40.5214  -4.8843  -0.1770   2.2306   2.9833   6.2682   7.0801
     8.5867   9.0455  10.2953

          k = 0.0998 0.4033 0.2579 (  4296 PWs)   bands (ev):

   -40.6469 -40.5214  -4.8856  -0.1719   2.1650   2.9918   6.2459   7.7475
     8.2288   8.9778   9.9357

          k = 0.0998 0.5186 0.0000 (  4306 PWs)   bands (ev):

   -40.6242 -40.5430  -3.8239  -1.7360   2.6279   3.3954   5.4704   6.4428
     8.2865   8.7573  10.8239

          k = 0.0998 0.5186 0.0860 (  4303 PWs)   bands (ev):

   -40.6242 -40.5430  -3.8249  -1.7335   2.6339   3.3470   5.3485   6.7365
     8.2421   8.7873  10.3250

          k = 0.0998 0.5186 0.1719 (  4302 PWs)   bands (ev):

   -40.6242 -40.5430  -3.8283  -1.7260   2.6578   3.2797   5.0248   7.4279
     8.2888   8.7992   9.9181

          k = 0.0998 0.5186 0.2579 (  4298 PWs)   bands (ev):

   -40.6242 -40.5430  -3.8314  -1.7191   2.6838   3.2370   4.8105   7.8468
     8.4301   8.9719   9.6594

          k = 0.1996 0.3457 0.0000 (  4305 PWs)   bands (ev):

   -40.6501 -40.5184  -5.0261   0.4585   2.1897   2.3194   5.6045   7.3597
    10.1344  10.3100  10.5581

          k = 0.1996 0.3457 0.0860 (  4298 PWs)   bands (ev):

   -40.6501 -40.5184  -5.0266   0.4588   2.1708   2.2931   5.8036   7.3252
     9.5126  10.3514  10.5894

          k = 0.1996 0.3457 0.1719 (  4290 PWs)   bands (ev):

   -40.6501 -40.5184  -5.0278   0.4595   2.1034   2.2694   6.3197   7.2520
     8.8986   9.9645  10.6319

          k = 0.1996 0.3457 0.2579 (  4310 PWs)   bands (ev):

   -40.6501 -40.5184  -5.0287   0.4599   2.0419   2.2662   6.9014   7.1950
     8.4475   9.5223  10.6392

          k = 0.1996 0.4609 0.0000 (  4311 PWs)   bands (ev):

   -40.6243 -40.5429  -4.0194  -0.9471   1.4347   3.2369   5.9661   6.4697
     8.9995   9.5776  10.0211

          k = 0.1996 0.4609 0.0860 (  4303 PWs)   bands (ev):

   -40.6243 -40.5429  -4.0200  -0.9473   1.4466   3.1795   6.0734   6.4545
     8.6386   9.6441  10.4148

          k = 0.1996 0.4609 0.1719 (  4298 PWs)   bands (ev):

   -40.6243 -40.5429  -4.0219  -0.9468   1.4769   3.0753   5.9167   6.7693
     8.4262   9.5870  10.6472

          k = 0.1996 0.4609 0.2579 (  4298 PWs)   bands (ev):

   -40.6243 -40.5429  -4.0235  -0.9458   1.5041   3.0006   5.7798   6.9512
     8.6234   9.3437  10.7357

          k = 0.1996 0.5762 0.0000 (  4315 PWs)   bands (ev):

   -40.6084 -40.5583  -3.1804  -1.9648   1.2144   3.9636   5.2278   6.8504
     8.2911   9.2935   9.9039

          k = 0.1996 0.5762 0.0860 (  4303 PWs)   bands (ev):

   -40.6084 -40.5583  -3.1827  -1.9626   1.2270   3.9603   5.0785   6.9080
     8.3880   9.1772  10.2726

          k = 0.1996 0.5762 0.1719 (  4302 PWs)   bands (ev):

   -40.6084 -40.5583  -3.1879  -1.9578   1.2564   3.9536   4.7996   6.9435
     8.6556   9.1970  10.5758

          k = 0.1996 0.5762 0.2579 (  4293 PWs)   bands (ev):

   -40.6084 -40.5583  -3.1920  -1.9539   1.2815   3.9490   4.6092   6.9205
     8.9874   9.2070  10.7085

          k = 0.2994 0.5186 0.0000 (  4337 PWs)   bands (ev):

   -40.5988 -40.5677  -2.9742  -1.7824   0.4538   4.1796   5.2591   7.0066
     8.6238   8.7150   9.0624

          k = 0.2994 0.5186 0.0860 (  4306 PWs)   bands (ev):

   -40.5988 -40.5677  -2.9757  -1.7841   0.4693   4.1556   5.2504   6.6965
     8.5124   9.1221   9.4799

          k = 0.2994 0.5186 0.1719 (  4301 PWs)   bands (ev):

   -40.5988 -40.5677  -2.9792  -1.7878   0.5053   4.0988   5.2309   6.2341
     8.7274   9.2377  10.6961

          k = 0.2994 0.5186 0.2579 (  4301 PWs)   bands (ev):

   -40.5988 -40.5677  -2.9819  -1.7908   0.5355   4.0500   5.2154   5.9673
     9.0229   9.2583  11.9493

          k = 0.0000 0.1152-0.0860 (  4269 PWs)   bands (ev):

   -40.7034 -40.4696  -6.7148   0.6614   4.5531   4.7116   5.1619   9.2517
    10.0536  10.2862  12.0605

          k = 0.0000 0.1152-0.1719 (  4288 PWs)   bands (ev):

   -40.7034 -40.4696  -6.7162   0.5528   4.5575   5.1767   5.3796   8.6781
     9.5725  10.2993  11.9593

          k = 0.0000 0.1152-0.2579 (  4287 PWs)   bands (ev):

   -40.7034 -40.4696  -6.7173   0.4744   4.5629   5.1889   6.3530   7.5236
     9.4844  10.2998  11.6806

          k = 0.0000 0.2305-0.0860 (  4291 PWs)   bands (ev):

   -40.6874 -40.4840  -6.2464   1.0884   2.7111   4.5199   4.9854   8.4805
     9.4315  11.4620  11.7211

          k = 0.0000 0.2305-0.1719 (  4287 PWs)   bands (ev):

   -40.6874 -40.4840  -6.2476   0.9789   2.7089   4.5369   5.6317   8.2282
     9.1947  10.4894  11.5320

          k = 0.0000 0.2305-0.2579 (  4297 PWs)   bands (ev):

   -40.6874 -40.4840  -6.2486   0.8991   2.7027   4.5509   6.5746   7.6105
     8.9291   9.8398  11.2791

          k = 0.0000 0.3457-0.0860 (  4296 PWs)   bands (ev):

   -40.6637 -40.5057  -5.4804   0.6932   1.8578   3.9475   5.3864   7.5082
     8.3742  10.3240  11.6802

          k = 0.0000 0.3457-0.1719 (  4293 PWs)   bands (ev):

   -40.6637 -40.5058  -5.4817   0.7012   1.7373   3.9660   5.8905   7.4060
     8.3335   9.9824  11.0747

          k = 0.0000 0.3457-0.2579 (  4293 PWs)   bands (ev):

   -40.6637 -40.5058  -5.4824   0.7106   1.6347   3.9813   6.5205   7.4407
     8.2524   9.0105  10.7520

          k = 0.0000 0.4609-0.0860 (  4298 PWs)   bands (ev):

   -40.6379 -40.5299  -4.4658  -1.0747   2.7942   3.5773   5.4137   6.7050
     7.8317   9.0102  11.2294

          k = 0.0000 0.4609-0.1719 (  4313 PWs)   bands (ev):

   -40.6379 -40.5299  -4.4678  -1.0668   2.6945   3.5967   5.3030   7.1472
     7.7949   9.3781  10.6289

          k = 0.0000 0.4609-0.2579 (  4301 PWs)   bands (ev):

   -40.6379 -40.5299  -4.4690  -1.0615   2.5962   3.6126   5.3214   7.6464
     7.7422   9.2411  10.3115

          k =-0.0998 0.2881-0.0860 (  4291 PWs)   bands (ev):

   -40.6725 -40.4976  -5.7835   1.4076   1.7861   3.5206   5.2976   8.2034
     9.5180  10.9229  11.0858

          k =-0.0998 0.2881-0.1719 (  4291 PWs)   bands (ev):

   -40.6725 -40.4976  -5.7847   1.3430   1.7330   3.5485   5.9006   7.9895
     9.5152   9.9941  10.6060

          k =-0.0998 0.2881-0.2579 (  4292 PWs)   bands (ev):

   -40.6725 -40.4976  -5.7855   1.2907   1.6954   3.5702   6.7522   7.6492
     9.0226   9.4798  10.3823

          k =-0.0998 0.4033-0.0860 (  4294 PWs)   bands (ev):

   -40.6469 -40.5214  -4.8838  -0.1812   2.4006   2.9386   5.6777   6.9879
     8.9742   9.6770  10.5590

          k =-0.0998 0.4033-0.1719 (  4290 PWs)   bands (ev):

   -40.6469 -40.5214  -4.8851  -0.1753   2.2849   2.9620   5.9195   7.1048
     8.9386   9.7630   9.9153

          k =-0.0998 0.4033-0.2579 (  4296 PWs)   bands (ev):

   -40.6469 -40.5214  -4.8860  -0.1711   2.1853   2.9845   6.1355   7.4592
     8.7410   9.1967   9.7818

          k =-0.0998 0.5186-0.0860 (  4303 PWs)   bands (ev):

   -40.6242 -40.5430  -3.8259  -1.7318   2.6422   3.3920   5.1411   6.8310
     8.5032   8.7135  10.2802

          k =-0.0998 0.5186-0.1719 (  4302 PWs)   bands (ev):

   -40.6242 -40.5430  -3.8295  -1.7238   2.6683   3.3309   4.8591   7.3316
     8.5932   8.9872   9.8005

          k =-0.0998 0.5186-0.2579 (  4298 PWs)   bands (ev):

   -40.6242 -40.5430  -3.8319  -1.7182   2.6886   3.2579   4.7512   7.7150
     8.5384   9.3540   9.4670

          k =-0.1996 0.4609-0.0860 (  4303 PWs)   bands (ev):

   -40.6243 -40.5429  -4.0205  -0.9462   1.4482   3.1992   5.8046   6.6763
     8.8468   9.5301  10.4263

          k =-0.1996 0.4609-0.1719 (  4298 PWs)   bands (ev):

   -40.6243 -40.5429  -4.0224  -0.9453   1.4788   3.0961   5.7325   6.8625
     8.6609   9.5106  10.7293

          k =-0.1996 0.4609-0.2579 (  4298 PWs)   bands (ev):

   -40.6243 -40.5429  -4.0238  -0.9452   1.5049   3.0088   5.7213   6.9573
     8.7870   9.2590  10.7941

     the Fermi energy is     6.5035 ev

!    total energy              =     -45.38451676 Ry
     estimated scf accuracy    <          2.2E-09 Ry
     smearing contrib. (-TS)   =      -0.00005379 Ry
     internal energy E=F+TS    =     -45.38446298 Ry

     The total energy is F=E-TS. E is the sum of the following terms:
     one-electron contribution =     -11.49567006 Ry
     hartree contribution      =       8.11266311 Ry
     xc contribution           =     -13.39678416 Ry
     ewald contribution        =     -28.60467187 Ry

     convergence has been achieved in   7 iterations

     Forces acting on atoms (cartesian axes, Ry/au):

     atom    1 type  1   force =     0.00000000   -0.00000000   -0.04236294
     atom    2 type  1   force =    -0.00000000   -0.00000000    0.04236294
     atom    3 type  2   force =    -0.00000000   -0.00000000   -0.01409164
     atom    4 type  2   force =     0.00000000    0.00000000    0.01409164
     The non-local contrib.  to forces
     atom    1 type  1   force =     0.00000000    0.00000000   -0.06643086
     atom    2 type  1   force =     0.00000000   -0.00000000    0.06643086
     atom    3 type  2   force =     0.00000000    0.00000000    0.00042428
     atom    4 type  2   force =     0.00000000   -0.00000000   -0.00042428
     The ionic contribution  to forces
     atom    1 type  1   force =     0.00000003   -0.00000002   -0.49446473
     atom    2 type  1   force =    -0.00000003    0.00000002    0.49446473
     atom    3 type  2   force =     0.00000008   -0.00000004   -0.39426228
     atom    4 type  2   force =    -0.00000008    0.00000004    0.39426228
     The local contribution  to forces
     atom    1 type  1   force =     0.00000064   -0.00000037    0.51855121
     atom    2 type  1   force =    -0.00000064    0.00000037   -0.51855121
     atom    3 type  2   force =     0.00000000   -0.00000000    0.37659032
     atom    4 type  2   force =    -0.00000000    0.00000000   -0.37659032
     The core correction contribution to forces
     atom    1 type  1   force =     0.00000000    0.00000000    0.00000000
     atom    2 type  1   force =     0.00000000    0.00000000    0.00000000
     atom    3 type  2   force =    -0.00000000    0.00000000    0.00317147
     atom    4 type  2   force =     0.00000000   -0.00000000   -0.00317147
     The Hubbard contrib.    to forces
     atom    1 type  1   force =     0.00000000    0.00000000    0.00000000
     atom    2 type  1   force =     0.00000000    0.00000000    0.00000000
     atom    3 type  2   force =     0.00000000    0.00000000    0.00000000
     atom    4 type  2   force =     0.00000000    0.00000000    0.00000000
     The SCF correction term to forces
     atom    1 type  1   force =    -0.00000000    0.00000000   -0.00001856
     atom    2 type  1   force =     0.00000000   -0.00000000    0.00001856
     atom    3 type  2   force =    -0.00000000    0.00000000   -0.00001542
     atom    4 type  2   force =     0.00000000   -0.00000000    0.00001542

     Total force =     0.063138     Total SCF correction =     0.000034


     Computing stress (Cartesian axis) and pressure

          total   stress  (Ry/bohr**3)                   (kbar)     P=      450.59
   0.00349319  -0.00000000   0.00000000          513.87       -0.00        0.00
  -0.00000000   0.00349319   0.00000000           -0.00      513.87        0.00
   0.00000000   0.00000000   0.00220275            0.00        0.00      324.04

     Energy error            =      2.4E-02 Ry
     Gradient error          =      4.2E-02 Ry/Bohr
     Cell gradient error     =      1.8E+02 kbar

     number of scf cycles    =   3
     number of bfgs steps    =   2

     enthalpy           old  =     -44.0769420556 Ry
     enthalpy           new  =     -44.1008039431 Ry

     CASE: enthalpy          _new < enthalpy          _old

     new trust radius        =       0.1926092173 bohr
ibrav =      4
 celldm(1) =      6.51172198
 celldm(3) =      1.55082414
Input lattice vectors:
     1.01845208    -0.00000000     0.00000000
    -0.50922604     0.88200537     0.00000000
     0.00000000     0.00000000     1.57944007
New lattice vectors in INITIAL alat:
     1.01845208     0.00000000     0.00000000
    -0.50922604     0.88200537     0.00000000
     0.00000000     0.00000000     1.57944007
New lattice vectors in NEW alat (for information only):
     1.00000000     0.00000000     0.00000000
    -0.50000000     0.86602540     0.00000000
     0.00000000     0.00000000     1.55082414
Discrepancy in bohr =     0.000000    0.000000    0.000000
     new conv_thr            =       0.0000000042 Ry

     new unit-cell volume =    370.83502 a.u.^3 (    54.95208 Ang^3 )
     density =      2.11686 g/cm^3

CELL_PARAMETERS (alat=  6.39374412)
   1.018452077   0.000000000   0.000000000
  -0.509226039   0.882005371   0.000000000
   0.000000000   0.000000000   1.579440069

ATOMIC_POSITIONS (crystal)
Li            0.3333333300        0.6666666700        0.0763058272
Li            0.6666666700        0.3333333300        0.9236941728
Si            0.3333333300        0.6666666700        0.4532140197
Si            0.6666666700        0.3333333300        0.5467859803



     Writing config-only to output data dir ./output/LiSi.save/
     NEW-OLD atomic charge density approx. for the potential
     extrapolated charge   13.74172, renormalised to   14.00000

     total cpu time spent up to now is       30.7 secs

     Self-consistent Calculation

     iteration #  1     ecut=    80.00 Ry     beta= 0.70
     Davidson diagonalization with overlap
     ethr =  1.00E-06,  avg # of iterations =  9.5

     total cpu time spent up to now is       32.9 secs

     total energy              =     -45.38852508 Ry
     estimated scf accuracy    <       0.00273661 Ry

     iteration #  2     ecut=    80.00 Ry     beta= 0.70
     Davidson diagonalization with overlap
     ethr =  1.95E-05,  avg # of iterations =  2.0

     total cpu time spent up to now is       33.7 secs

     total energy              =     -45.38959828 Ry
     estimated scf accuracy    <       0.00136311 Ry

     iteration #  3     ecut=    80.00 Ry     beta= 0.70
     Davidson diagonalization with overlap
     ethr =  9.74E-06,  avg # of iterations =  2.0

     total cpu time spent up to now is       34.4 secs

     total energy              =     -45.38984567 Ry
     estimated scf accuracy    <       0.00012452 Ry

     iteration #  4     ecut=    80.00 Ry     beta= 0.70
     Davidson diagonalization with overlap
     ethr =  8.89E-07,  avg # of iterations =  2.1

     total cpu time spent up to now is       35.2 secs

     total energy              =     -45.38986694 Ry
     estimated scf accuracy    <       0.00001985 Ry

     iteration #  5     ecut=    80.00 Ry     beta= 0.70
     Davidson diagonalization with overlap
     ethr =  1.42E-07,  avg # of iterations =  1.7

     total cpu time spent up to now is       35.8 secs

     total energy              =     -45.38986982 Ry
     estimated scf accuracy    <       0.00000034 Ry

     iteration #  6     ecut=    80.00 Ry     beta= 0.70
     Davidson diagonalization with overlap
     ethr =  2.45E-09,  avg # of iterations =  3.4

     total cpu time spent up to now is       36.7 secs

     total energy              =     -45.38986996 Ry
     estimated scf accuracy    <       0.00000009 Ry

     iteration #  7     ecut=    80.00 Ry     beta= 0.70
     Davidson diagonalization with overlap
     ethr =  6.13E-10,  avg # of iterations =  2.0

     total cpu time spent up to now is       37.4 secs

     total energy              =     -45.38986998 Ry
     estimated scf accuracy    <          4.2E-09 Ry

     iteration #  8     ecut=    80.00 Ry     beta= 0.70
     Davidson diagonalization with overlap
     ethr =  3.03E-11,  avg # of iterations =  2.3

     total cpu time spent up to now is       38.2 secs

     End of self-consistent calculation

          k = 0.0000 0.0000 0.0000 (  4247 PWs)   bands (ev):

   -40.5908 -40.3175  -6.5147   0.8258   4.8880   5.4806   5.4806   9.6496
     9.6496  11.0402  11.1302

          k = 0.0000 0.0000 0.0904 (  4247 PWs)   bands (ev):

   -40.5908 -40.3175  -6.5157   0.7643   5.1552   5.4913   5.4913   9.6626
     9.6626  10.6214  11.0858

          k = 0.0000 0.0000 0.1809 (  4277 PWs)   bands (ev):

   -40.5907 -40.3175  -6.5181   0.6395   5.5158   5.5158   5.8860   9.5496
     9.6917   9.6917  11.0123

          k = 0.0000 0.0000 0.2713 (  4324 PWs)   bands (ev):

   -40.5907 -40.3176  -6.5200   0.5500   5.5358   5.5358   6.9380   8.2501
     9.7148   9.7148  10.9584

          k = 0.0000 0.1134 0.0000 (  4261 PWs)   bands (ev):

   -40.5846 -40.3232  -6.3634   0.9651   4.5581   4.9869   5.1630   9.3433
    10.2353  10.7855  11.8087

          k = 0.0000 0.1134 0.0904 (  4269 PWs)   bands (ev):

   -40.5846 -40.3232  -6.3644   0.9025   4.5494   5.1751   5.2743   9.3670
    10.2285  10.4852  11.8236

          k = 0.0000 0.1134 0.1809 (  4288 PWs)   bands (ev):

   -40.5846 -40.3233  -6.3666   0.7760   4.5666   5.2020   6.0062   9.3216
     9.6950  10.2367  11.5772

          k = 0.0000 0.1134 0.2713 (  4287 PWs)   bands (ev):

   -40.5846 -40.3233  -6.3684   0.6856   4.5847   5.2236   7.0396   8.3339
     9.4811  10.2543  11.3022

          k = 0.0000 0.2268 0.0000 (  4284 PWs)   bands (ev):

   -40.5670 -40.3396  -5.9129   1.3693   2.7617   4.5471   5.2689   8.5954
     9.6296  11.5825  11.8413

          k = 0.0000 0.2268 0.0904 (  4291 PWs)   bands (ev):

   -40.5670 -40.3397  -5.9136   1.3080   2.7456   4.5606   5.5745   8.6522
     9.5178  11.0951  11.3883

          k = 0.0000 0.2268 0.1809 (  4287 PWs)   bands (ev):

   -40.5670 -40.3397  -5.9155   1.1802   2.7487   4.5909   6.3009   8.6999
     9.3398   9.9783  11.0877

          k = 0.0000 0.2268 0.2713 (  4297 PWs)   bands (ev):

   -40.5670 -40.3397  -5.9171   1.0886   2.7616   4.6154   7.2312   8.4768
     8.8533   9.5111  10.8815

          k = 0.0000 0.3401 0.0000 (  4292 PWs)   bands (ev):

   -40.5409 -40.3643  -5.1767   0.8007   2.1070   3.9940   5.7164   7.6337
     8.3810  10.3816  12.1408

          k = 0.0000 0.3401 0.0904 (  4296 PWs)   bands (ev):

[...]
     ethr =  1.90E-09,  avg # of iterations =  3.0

     total cpu time spent up to now is      186.9 secs

     total energy              =     -45.58965350 Ry
     estimated scf accuracy    <       0.00000001 Ry

     iteration #  7     ecut=    80.00 Ry     beta= 0.70
     Davidson diagonalization with overlap
     ethr =  9.30E-11,  avg # of iterations =  2.6

     total cpu time spent up to now is      187.6 secs

     total energy              =     -45.58965351 Ry
     estimated scf accuracy    <          2.1E-10 Ry

     iteration #  8     ecut=    80.00 Ry     beta= 0.70
     Davidson diagonalization with overlap
     ethr =  1.46E-12,  avg # of iterations =  3.3

     total cpu time spent up to now is      188.3 secs

     End of self-consistent calculation

          k = 0.0000 0.0000 0.0000 (  3523 PWs)   bands (ev):

   -37.0440 -36.7765  -4.2692   2.7849   5.4488   9.5127   9.5127  13.1543
    13.1543  14.4178  16.9118

          k = 0.0000 0.0000 0.1036 (  3517 PWs)   bands (ev):

   -37.0437 -36.7767  -4.2645   2.4757   6.0480   9.5721   9.5721  13.2125
    13.2126  14.0463  15.8701

          k = 0.0000 0.0000 0.2072 (  3499 PWs)   bands (ev):

   -37.0432 -36.7770  -4.2538   1.9925   7.3851   9.7192   9.7192  12.8833
    13.3431  13.3431  14.8365

          k = 0.0000 0.0000 0.3109 (  3487 PWs)   bands (ev):

   -37.0428 -36.7773  -4.2450   1.7029   8.9780   9.8548   9.8548  11.2475
    13.4166  13.4166  14.3103

          k = 0.0000 0.1199 0.0000 (  3521 PWs)   bands (ev):

   -37.0374 -36.7816  -4.1027   2.9119   5.5175   8.3003   9.0273  12.7939
    13.9263  15.3779  15.9708

          k = 0.0000 0.1199 0.1036 (  3503 PWs)   bands (ev):

   -37.0372 -36.7817  -4.0979   2.6016   6.1076   8.3360   9.0886  12.8422
    13.9338  14.9258  15.0723

          k = 0.0000 0.1199 0.2072 (  3490 PWs)   bands (ev):

   -37.0367 -36.7821  -4.0867   2.1151   7.3992   8.4525   9.2419  12.6832
    13.8034  13.9360  14.1104

          k = 0.0000 0.1199 0.3109 (  3482 PWs)   bands (ev):

   -37.0363 -36.7824  -4.0773   1.8231   8.4144   9.0042   9.3848  11.6252
    13.2225  13.4272  13.8224

          k = 0.0000 0.2397 0.0000 (  3507 PWs)   bands (ev):

   -37.0187 -36.7962  -3.6056   3.2689   5.6486   6.2209   8.1845  11.8592
    14.0090  14.8672  15.0676

          k = 0.0000 0.2397 0.1036 (  3509 PWs)   bands (ev):

   -37.0185 -36.7964  -3.6010   2.9734   6.0918   6.3052   8.2486  11.9552
    13.3508  14.2352  15.5917

          k = 0.0000 0.2397 0.2072 (  3495 PWs)   bands (ev):

   -37.0181 -36.7967  -3.5887   2.4798   6.2243   7.4084   8.4099  11.7497
    12.8606  13.2115  15.0026

          k = 0.0000 0.2397 0.3109 (  3501 PWs)   bands (ev):

   -37.0178 -36.7969  -3.5777   2.1758   6.2887   8.5617   8.5835  11.3854
    12.5982  12.6203  13.5742

          k = 0.0000 0.3596 0.0000 (  3491 PWs)   bands (ev):

   -36.9914 -36.8187  -2.7870   3.3975   4.3952   6.0451   7.4761  10.8346
    12.3821  13.1454  14.6302

          k = 0.0000 0.3596 0.1036 (  3500 PWs)   bands (ev):

   -36.9912 -36.8188  -2.7844   3.3531   4.1844   6.3569   7.5422  11.0836
    11.9423  13.5742  13.7810

          k = 0.0000 0.3596 0.2072 (  3511 PWs)   bands (ev):

   -36.9909 -36.8190  -2.7719   2.9627   4.1685   7.0862   7.7089  10.9139
    11.9399  12.4774  14.9272

          k = 0.0000 0.3596 0.3109 (  3507 PWs)   bands (ev):

   -36.9906 -36.8192  -2.7584   2.6435   4.2562   7.6241   7.8666  10.9367
    11.8405  12.1135  14.0217

          k = 0.0000 0.4794 0.0000 (  3511 PWs)   bands (ev):

   -36.9620 -36.8441  -1.6800   1.7429   4.8575   6.1905   7.0288   9.9129
    11.3156  12.0003  14.2055

          k = 0.0000 0.4794 0.1036 (  3504 PWs)   bands (ev):

   -36.9619 -36.8441  -1.6840   1.7994   4.6171   6.1558   7.0961  10.4743
    11.0123  12.4906  13.1172

          k = 0.0000 0.4794 0.2072 (  3496 PWs)   bands (ev):

   -36.9616 -36.8442  -1.6772   1.8375   4.2027   6.2789   7.2659  10.6023
    11.4016  12.0038  13.6732

          k = 0.0000 0.4794 0.3109 (  3491 PWs)   bands (ev):

   -36.9614 -36.8443  -1.6645   1.8176   4.0006   6.3188   7.4270  10.7048
    11.3589  11.9374  14.6614

          k = 0.0000-0.5993 0.0000 (  3528 PWs)   bands (ev):

   -36.9465 -36.8580  -0.7043   0.4951   5.3722   6.0623   6.8771   9.5582
    10.8664  11.6455  14.0566

          k = 0.0000-0.5993 0.1036 (  3502 PWs)   bands (ev):

   -36.9464 -36.8580  -0.7136   0.5270   5.2943   5.8280   6.9450   9.9342
    10.8011  12.1312  12.9605

          k = 0.0000-0.5993 0.2072 (  3510 PWs)   bands (ev):

   -36.9462 -36.8581  -0.7343   0.6025   5.1372   5.3857   7.1158  10.6323
    10.9381  11.8422  13.2573

          k = 0.0000-0.5993 0.3109 (  3496 PWs)   bands (ev):

   -36.9461 -36.8582  -0.7508   0.6672   5.0255   5.0805   7.2779  10.6630
    11.1952  11.8006  14.3954

          k = 0.1038 0.1798 0.0000 (  3507 PWs)   bands (ev):

   -37.0247 -36.7915  -3.7708   3.1566   5.6434   6.9570   7.9792  13.0601
    13.9808  14.9146  14.9799

          k = 0.1038 0.1798 0.1036 (  3501 PWs)   bands (ev):

   -37.0245 -36.7916  -3.7655   2.8384   6.2147   6.9995   8.0415  13.0038
    13.7829  14.2454  14.3121

          k = 0.1038 0.1798 0.2072 (  3492 PWs)   bands (ev):

   -37.0241 -36.7919  -3.7533   2.3483   6.9793   7.5518   8.1981  12.6582
    12.9508  13.6163  13.9367

          k = 0.1038 0.1798 0.3109 (  3496 PWs)   bands (ev):

   -37.0238 -36.7922  -3.7432   2.0564   7.0698   8.3331   8.8122  11.9299
    12.3523  13.0230  13.8475

          k = 0.1038 0.2996 0.0000 (  3502 PWs)   bands (ev):

   -37.0015 -36.8102  -3.1123   3.5529   5.0774   5.8957   6.9240  12.2613
    13.2506  13.6955  14.6553

          k = 0.1038 0.2996 0.1036 (  3498 PWs)   bands (ev):

   -37.0014 -36.8103  -3.1076   3.2848   5.0760   6.3167   7.0190  12.2867
    12.6259  13.2900  15.1405

          k = 0.1038 0.2996 0.2072 (  3499 PWs)   bands (ev):

   -37.0010 -36.8105  -3.0945   2.7997   5.1406   7.0386   7.4220  11.5428
    12.1264  13.2334  15.1080

          k = 0.1038 0.2996 0.3109 (  3499 PWs)   bands (ev):

   -37.0007 -36.8107  -3.0825   2.4945   5.2067   7.2316   8.1922  11.0123
    12.0011  13.1654  13.9860

          k = 0.1038 0.4195 0.0000 (  3494 PWs)   bands (ev):

   -36.9723 -36.8350  -2.1434   2.7137   4.5962   5.9954   6.3745  11.0182
    11.8821  12.8097  14.0284

          k = 0.1038 0.4195 0.1036 (  3505 PWs)   bands (ev):

   -36.9721 -36.8351  -2.1422   2.7638   4.2813   6.1566   6.5082  11.1076
    11.7624  12.7407  13.7830

          k = 0.1038 0.4195 0.2072 (  3498 PWs)   bands (ev):

   -36.9719 -36.8352  -2.1308   2.7092   3.9390   6.4221   6.8302  10.5568
    11.8677  12.7483  14.6000

          k = 0.1038 0.4195 0.3109 (  3501 PWs)   bands (ev):

   -36.9716 -36.8354  -2.1173   2.5635   3.8683   6.5456   7.0813  10.2072
    11.9805  13.0515  14.5445

          k = 0.1038 0.5394 0.0000 (  3509 PWs)   bands (ev):

   -36.9466 -36.8580  -0.9532   1.0301   5.2621   5.8138   6.1941  10.2924
    10.9075  12.4058  13.7056

          k = 0.1038 0.5394 0.1036 (  3512 PWs)   bands (ev):

   -36.9465 -36.8580  -0.9626   1.0741   5.0718   5.8645   6.1158  10.3632
    11.2330  12.5311  13.0520

          k = 0.1038 0.5394 0.2072 (  3506 PWs)   bands (ev):

   -36.9463 -36.8581  -0.9668   1.1283   4.7290   5.8669   6.1501  10.0817
    11.8746  12.6013  13.5256

          k = 0.1038 0.5394 0.3109 (  3494 PWs)   bands (ev):

   -36.9461 -36.8581  -0.9628   1.1507   4.5445   5.7417   6.2783   9.8481
    11.9615  13.0949  14.6867

          k = 0.2076 0.3596 0.0000 (  3493 PWs)   bands (ev):

   -36.9759 -36.8319  -2.3006   3.4006   4.6664   5.0699   6.2902  11.8047
    11.9536  13.9553  14.1325

          k = 0.2076 0.3596 0.1036 (  3502 PWs)   bands (ev):

   -36.9757 -36.8320  -2.2946   3.2694   4.4788   5.2402   6.6207  10.9276
    12.0465  14.4489  14.8512

          k = 0.2076 0.3596 0.2072 (  3504 PWs)   bands (ev):

   -36.9754 -36.8321  -2.2810   2.9867   4.3432   5.4426   7.2509   9.9591
    12.1135  14.7637  15.1050

          k = 0.2076 0.3596 0.3109 (  3482 PWs)   bands (ev):

   -36.9752 -36.8323  -2.2698   2.7826   4.3096   5.5872   7.6738   9.3752
    12.7661  13.9521  14.8635

          k = 0.2076 0.4794 0.0000 (  3496 PWs)   bands (ev):

   -36.9467 -36.8578  -1.2026   2.0201   4.2546   5.2211   6.3602  10.7576
    11.0453  13.3402  13.6141

          k = 0.2076 0.4794 0.1036 (  3495 PWs)   bands (ev):

   -36.9466 -36.8579  -1.2023   2.0394   4.2132   5.1409   6.4391   9.8937
    11.8077  13.3821  14.4909

          k = 0.2076 0.4794 0.2072 (  3497 PWs)   bands (ev):

   -36.9464 -36.8579  -1.1948   2.0286   4.2061   4.9899   6.6000   8.9877
    12.5211  14.3685  14.7654

          k = 0.2076 0.4794 0.3109 (  3494 PWs)   bands (ev):

   -36.9462 -36.8580  -1.1856   1.9914   4.2695   4.8799   6.6774   8.4752
    13.4125  14.4496  15.2249

          k = 0.2076 0.5993 0.0000 (  3490 PWs)   bands (ev):

   -36.9290 -36.8743  -0.2124   0.8289   4.0386   5.7040   6.2238  10.3753
    10.6311  13.1044  13.4629

          k = 0.2076 0.5993 0.1036 (  3495 PWs)   bands (ev):

   -36.9290 -36.8743  -0.2208   0.8479   4.0813   5.6435   6.1396   9.3696
    11.8836  12.9049  14.3236

          k = 0.2076 0.5993 0.2072 (  3504 PWs)   bands (ev):

   -36.9288 -36.8743  -0.2395   0.8910   4.2046   5.5374   5.8778   8.5944
    13.2069  13.4240  14.6103

          k = 0.2076 0.5993 0.3109 (  3501 PWs)   bands (ev):

   -36.9287 -36.8743  -0.2545   0.9258   4.3541   5.4822   5.5773   8.2097
    13.9191  14.4769  14.8190

          k = 0.3114 0.5394 0.0000 (  3483 PWs)   bands (ev):

   -36.9184 -36.8845  -0.0418   1.2386   3.0296   5.8381   6.3001  10.1160
    10.7598  12.9759  13.0320

          k = 0.3114 0.5394 0.1036 (  3495 PWs)   bands (ev):

   -36.9183 -36.8845  -0.0442   1.2287   3.1060   5.7419   6.3243   8.8924
    12.1271  13.2870  13.4389

          k = 0.3114 0.5394 0.2072 (  3497 PWs)   bands (ev):

   -36.9182 -36.8844  -0.0500   1.2063   3.3074   5.5518   6.3387   7.7531
    13.3295  14.2739  14.8208

          k = 0.3114 0.5394 0.3109 (  3491 PWs)   bands (ev):

   -36.9181 -36.8844  -0.0549   1.1883   3.5152   5.3863   6.3319   7.1153
    14.3766  14.9514  16.5827

          k = 0.0000 0.1199-0.1036 (  3503 PWs)   bands (ev):

   -37.0372 -36.7817  -4.0977   2.5968   6.1123   8.3572   9.0895  12.7821
    13.9754  14.7518  15.2661

          k = 0.0000 0.1199-0.2072 (  3490 PWs)   bands (ev):

   -37.0367 -36.7821  -4.0863   2.1110   7.3943   8.4938   9.2431  12.7875
    13.3575  13.8859  14.4835

          k = 0.0000 0.1199-0.3109 (  3482 PWs)   bands (ev):

   -37.0363 -36.7824  -4.0772   1.8216   8.3994   9.0413   9.3854  11.6755
    12.9613  13.4466  13.9734

          k = 0.0000 0.2397-0.1036 (  3509 PWs)   bands (ev):

   -37.0185 -36.7964  -3.5991   2.9263   6.0353   6.5099   8.2497  11.7082
    13.2290  14.2903  15.6598

          k = 0.0000 0.2397-0.2072 (  3495 PWs)   bands (ev):

   -37.0181 -36.7967  -3.5862   2.4402   6.2327   7.6065   8.4114  11.6231
    12.3780  13.2269  15.0278

          k = 0.0000 0.2397-0.3109 (  3501 PWs)   bands (ev):

   -37.0178 -36.7969  -3.5765   2.1613   6.3002   8.5625   8.6985  11.5986
    11.8779  12.6012  13.8523

          k = 0.0000 0.3596-0.1036 (  3500 PWs)   bands (ev):

   -36.9912 -36.8188  -2.7777   3.0972   4.4213   6.6116   7.5431  10.4595
    11.9471  13.5843  14.0176

          k = 0.0000 0.3596-0.2072 (  3511 PWs)   bands (ev):

   -36.9909 -36.8190  -2.7632   2.7474   4.3827   7.4119   7.7101  10.4712
    11.5367  12.4796  14.6744

          k = 0.0000 0.3596-0.3109 (  3507 PWs)   bands (ev):

   -36.9906 -36.8192  -2.7544   2.5674   4.3368   7.7538   7.8672  11.2147
    11.3105  11.8406  14.0649

          k = 0.0000 0.4794-0.1036 (  3504 PWs)   bands (ev):

   -36.9619 -36.8441  -1.6680   1.7032   4.6352   6.5018   7.0966   9.6782
    11.2114  12.7319  13.1193

          k = 0.0000 0.4794-0.2072 (  3496 PWs)   bands (ev):

   -36.9616 -36.8442  -1.6567   1.7035   4.3090   6.5228   7.2665  10.3217
    11.0116  12.0037  13.7877

          k = 0.0000 0.4794-0.3109 (  3491 PWs)   bands (ev):

   -36.9614 -36.8443  -1.6552   1.7523   4.0653   6.3831   7.4273  10.8346
    11.3586  11.4917  14.2181

          k =-0.1038 0.2996-0.1036 (  3498 PWs)   bands (ev):

   -37.0014 -36.8103  -3.1051   3.2033   5.1585   6.4535   6.9661  11.7000
    12.9010  13.4530  15.1537

          k =-0.1038 0.2996-0.2072 (  3499 PWs)   bands (ev):

   -37.0010 -36.8105  -3.0913   2.7351   5.2154   7.0653   7.5353  11.0875
    12.3851  12.9828  15.1554

          k =-0.1038 0.2996-0.3109 (  3499 PWs)   bands (ev):

   -37.0007 -36.8107  -3.0811   2.4715   5.2371   7.2173   8.3007  10.8122
    12.2703  12.6728  14.1915

          k =-0.1038 0.4195-0.1036 (  3505 PWs)   bands (ev):

   -36.9721 -36.8351  -2.1333   2.6092   4.4406   6.1993   6.6548  10.3283
    12.0865  12.9350  13.8192

          k =-0.1038 0.4195-0.2072 (  3498 PWs)   bands (ev):

   -36.9719 -36.8352  -2.1193   2.5018   4.1742   6.3380   7.1374  10.0342
    12.0125  12.5154  14.5730

          k =-0.1038 0.4195-0.3109 (  3501 PWs)   bands (ev):

   -36.9716 -36.8354  -2.1121   2.4710   3.9773   6.4821   7.2327  10.0497
    12.2293  12.5611  14.4106

          k =-0.1038 0.5394-0.1036 (  3512 PWs)   bands (ev):

   -36.9465 -36.8580  -0.9451   1.0242   5.0923   5.8080   6.3138   9.9076
    11.4640  12.6552  13.0152

          k =-0.1038 0.5394-0.2072 (  3506 PWs)   bands (ev):

   -36.9463 -36.8581  -0.9449   1.0616   4.8174   5.7466   6.3396   9.8716
    11.9206  12.4142  13.6536

          k =-0.1038 0.5394-0.3109 (  3494 PWs)   bands (ev):

   -36.9461 -36.8581  -0.9530   1.1191   4.5963   5.6867   6.3422   9.7972
    12.0292  12.9202  14.4263

          k =-0.2076 0.4794-0.1036 (  3495 PWs)   bands (ev):

   -36.9466 -36.8579  -1.1952   1.9861   4.3490   5.0048   6.5773   9.6798
    11.8491  13.5825  14.4368

          k =-0.2076 0.4794-0.2072 (  3497 PWs)   bands (ev):

   -36.9464 -36.8580  -1.1858   1.9585   4.5134   4.6955   6.7694   8.8262
    12.4728  14.4552  14.6921

          k =-0.2076 0.4794-0.3109 (  3494 PWs)   bands (ev):

   -36.9462 -36.8580  -1.1815   1.9590   4.4365   4.7179   6.7571   8.4113
    13.4602  14.3029  15.0481

     the Fermi energy is     8.7466 ev

!    total energy              =     -45.58965351 Ry
     estimated scf accuracy    <          1.5E-11 Ry
     smearing contrib. (-TS)   =       0.00071390 Ry
     internal energy E=F+TS    =     -45.59036741 Ry

     The total energy is F=E-TS. E is the sum of the following terms:
     one-electron contribution =      -5.95188557 Ry
     hartree contribution      =       6.88540056 Ry
     xc contribution           =     -13.57247368 Ry
     ewald contribution        =     -32.95140872 Ry

     convergence has been achieved in   8 iterations

     Forces acting on atoms (cartesian axes, Ry/au):

     atom    1 type  1   force =     0.00000000    0.00000000   -0.00008040
     atom    2 type  1   force =     0.00000000    0.00000000    0.00008040
     atom    3 type  2   force =    -0.00000000    0.00000000   -0.00026449
     atom    4 type  2   force =     0.00000000   -0.00000000    0.00026449
     The non-local contrib.  to forces
     atom    1 type  1   force =     0.00000000   -0.00000000   -0.00537755
     atom    2 type  1   force =     0.00000000    0.00000000    0.00537755
     atom    3 type  2   force =    -0.00000000   -0.00000000    0.03254637
     atom    4 type  2   force =     0.00000000    0.00000000   -0.03254637
     The ionic contribution  to forces
     atom    1 type  1   force =     0.00000004   -0.00000003    0.28608400
     atom    2 type  1   force =    -0.00000004    0.00000003   -0.28608400
     atom    3 type  2   force =     0.00000006   -0.00000003   -0.46295912
     atom    4 type  2   force =    -0.00000006    0.00000003    0.46295912
     The local contribution  to forces
     atom    1 type  1   force =     0.00000061   -0.00000035   -0.28078453
     atom    2 type  1   force =    -0.00000061    0.00000035    0.28078453
     atom    3 type  2   force =     0.00000000   -0.00000000    0.42749548
     atom    4 type  2   force =    -0.00000000    0.00000000   -0.42749548
     The core correction contribution to forces
     atom    1 type  1   force =     0.00000000    0.00000000    0.00000000
     atom    2 type  1   force =     0.00000000    0.00000000    0.00000000
     atom    3 type  2   force =    -0.00000000    0.00000000    0.00264998
     atom    4 type  2   force =     0.00000000   -0.00000000   -0.00264998
     The Hubbard contrib.    to forces
     atom    1 type  1   force =     0.00000000    0.00000000    0.00000000
     atom    2 type  1   force =     0.00000000    0.00000000    0.00000000
     atom    3 type  2   force =     0.00000000    0.00000000    0.00000000
     atom    4 type  2   force =     0.00000000    0.00000000    0.00000000
     The SCF correction term to forces
     atom    1 type  1   force =    -0.00000000    0.00000000   -0.00000231
     atom    2 type  1   force =     0.00000000   -0.00000000    0.00000231
     atom    3 type  2   force =    -0.00000000    0.00000000    0.00000280
     atom    4 type  2   force =     0.00000000   -0.00000000   -0.00000280

     Total force =     0.000391     Total SCF correction =     0.000005


     Computing stress (Cartesian axis) and pressure

          total   stress  (Ry/bohr**3)                   (kbar)     P=      500.43
   0.00340133  -0.00000000   0.00000000          500.35       -0.00        0.00
   0.00000000   0.00340133   0.00000000            0.00      500.35        0.00
   0.00000000   0.00000000   0.00340287            0.00        0.00      500.58


     Writing all to output data dir ./output/LiSi.save/

     init_run     :      1.47s CPU      1.73s WALL (       2 calls)
     electrons    :    138.28s CPU    146.83s WALL (      23 calls)
     update_pot   :      7.15s CPU      7.35s WALL (      21 calls)
     forces       :      5.76s CPU      5.93s WALL (      23 calls)
     stress       :     25.82s CPU     26.81s WALL (      23 calls)

     Called by init_run:
     wfcinit      :      0.50s CPU      0.52s WALL (       2 calls)
     potinit      :      0.30s CPU      0.39s WALL (       2 calls)
     hinit0       :      0.64s CPU      0.70s WALL (       2 calls)

     Called by electrons:
     c_bands      :    121.02s CPU    128.03s WALL (     159 calls)
     sum_band     :     15.87s CPU     16.42s WALL (     159 calls)
     v_of_rho     :      1.43s CPU      2.38s WALL (     179 calls)
     mix_rho      :      0.09s CPU      0.16s WALL (     159 calls)

     Called by c_bands:
     init_us_2    :      3.83s CPU      4.08s WALL (   29280 calls)
     init_us_2:cp :      3.79s CPU      4.04s WALL (   29280 calls)
     cegterg      :    112.67s CPU    115.81s WALL (   12720 calls)

     Called by *egterg:
     cdiaghg      :      7.33s CPU      7.60s WALL (   53838 calls)
     h_psi        :     94.18s CPU     96.76s WALL (   55918 calls)
     g_psi        :      0.53s CPU      0.54s WALL (   43038 calls)

     Called by h_psi:
     h_psi:calbec :      6.74s CPU      6.91s WALL (   55918 calls)
     vloc_psi     :     81.94s CPU     84.19s WALL (   55918 calls)
     add_vuspsi   :      5.09s CPU      5.23s WALL (   55918 calls)

     General routines
     calbec       :      8.37s CPU      8.58s WALL (   65118 calls)
     fft          :      1.42s CPU      2.60s WALL (    2366 calls)
     ffts         :      0.07s CPU      0.12s WALL (     159 calls)
     fftw         :     82.38s CPU     84.59s WALL (  994266 calls)

     Parallel routines

     PWSCF        :   2m58.95s CPU   3m 9.69s WALL


   This run was terminated on:  22:51: 2  11Feb2025            

=------------------------------------------------------------------------------=
   JOB DONE.
=------------------------------------------------------------------------------=
