
     Program PWSCF v.7.2 starts on 11Feb2025 at 22: 5:35 

     This program is part of the open-source Quantum ESPRESSO suite
     for quantum simulation of materials; please cite
         "P. Giannozzi et al., J. Phys.:Condens. Matter 21 395502 (2009);
         "P. Giannozzi et al., J. Phys.:Condens. Matter 29 465901 (2017);
         "P. Giannozzi et al., J. Chem. Phys. 152 154105 (2020);
          URL http://www.quantum-espresso.org", 
     in publications or presentations arising from this work. More details at
     http://www.quantum-espresso.org/quote

     Parallel version (MPI & OpenMP), running on       8 processor cores
     Number of MPI processes:                 8
     Threads/MPI process:                     1

     MPI processes distributed on     1 nodes
     482096 MiB available memory on the printing compute node when the environment starts

     Waiting for input...
     Reading input from standard input

     Current dimensions of program PWSCF are:
     Max number of different atomic species (ntypx) = 10
     Max number of k-points (npk) =  40000
     Max angular momentum in pseudopotentials (lmaxx) =  4

     R & G space division:  proc/nbgrp/npool/nimage =       8
     Subspace diagonalization in iterative solution of the eigenvalue problem:
     a serial algorithm will be used


     Parallelization info
     --------------------
     sticks:   dense  smooth     PW     G-vecs:    dense   smooth      PW
     Min          50      50     15                 1334     1334     231
     Max          51      51     16                 1339     1339     238
     Sum         401     401    121                10689    10689    1863

     Using Slab Decomposition



     bravais-lattice index     =            6
     lattice parameter (alat)  =       3.9483  a.u.
     unit-cell volume          =     110.0924 (a.u.)^3
     number of atoms/cell      =            2
     number of atomic types    =            2
     number of electrons       =         7.00
     number of Kohn-Sham states=            8
     kinetic-energy cutoff     =      80.0000  Ry
     charge density cutoff     =     320.0000  Ry
     scf convergence threshold =      1.0E-08
     mixing beta               =       0.7000
     number of iterations used =            8  plain     mixing
     energy convergence thresh.=      1.0E-04
     force convergence thresh. =      1.0E-03
     press convergence thresh. =      1.0E+00
     Exchange-correlation= PBE
                           (   1   4   3   4   0   0   0)
     nstep                     =           50


     celldm(1)=   3.948262  celldm(2)=   0.000000  celldm(3)=   1.788708
     celldm(4)=   0.000000  celldm(5)=   0.000000  celldm(6)=   0.000000

     crystal axes: (cart. coord. in units of alat)
               a(1) = (   1.000000   0.000000   0.000000 )  
               a(2) = (   0.000000   1.000000   0.000000 )  
               a(3) = (   0.000000   0.000000   1.788708 )  

     reciprocal axes: (cart. coord. in units 2 pi/alat)
               b(1) = (  1.000000  0.000000  0.000000 )  
               b(2) = (  0.000000  1.000000  0.000000 )  
               b(3) = (  0.000000  0.000000  0.559063 )  


     PseudoPot. # 1 for Li read from file:
     ../pseudo/Li_ONCV_PBE_sr.upf
     MD5 check sum: 50ff420e78310ffa21704f3361e624a4
     Pseudo is Norm-conserving, Zval =  3.0
     Generated using ONCVPSP code by D. R. Hamann
     Using radial grid of 1944 points,  4 beta functions with: 
                l(1) =   0
                l(2) =   0
                l(3) =   1
                l(4) =   1

     PseudoPot. # 2 for Si read from file:
     ../pseudo/Si_ONCV_PBE_sr.upf
     MD5 check sum: e543d271109d17c80368dfa7c482276d
     Pseudo is Norm-conserving + core correction, Zval =  4.0
     Generated using ONCVPSP code by D. R. Hamann
     Using radial grid of 1510 points,  6 beta functions with: 
                l(1) =   0
                l(2) =   0
                l(3) =   1
                l(4) =   1
                l(5) =   2
                l(6) =   2

     atomic species   valence    mass     pseudopotential
        Li             3.00     6.94100     Li( 1.00)
        Si             4.00    28.08550     Si( 1.00)

     16 Sym. Ops., with inversion, found



   Cartesian axes

     site n.     atom                  positions (alat units)
         1           Li  tau(   1) = (   0.5000000   0.5000000   0.0000000  )
         2           Si  tau(   2) = (   0.0000000   0.0000000   0.8943542  )

     number of k points=    84  Marzari-Vanderbilt smearing, width (Ry)=  0.0200
                       cart. coord. in units 2pi/alat
        k(    1) = (   0.0000000   0.0000000   0.0000000), wk =   0.0027548
        k(    2) = (   0.0000000   0.0000000   0.0931771), wk =   0.0055096
        k(    3) = (   0.0000000   0.0000000   0.1863542), wk =   0.0055096
        k(    4) = (   0.0000000   0.0000000  -0.2795313), wk =   0.0027548
        k(    5) = (   0.0000000   0.0909091   0.0000000), wk =   0.0110193
        k(    6) = (   0.0000000   0.0909091   0.0931771), wk =   0.0220386
        k(    7) = (   0.0000000   0.0909091   0.1863542), wk =   0.0220386
        k(    8) = (   0.0000000   0.0909091  -0.2795313), wk =   0.0110193
        k(    9) = (   0.0000000   0.1818182   0.0000000), wk =   0.0110193
        k(   10) = (   0.0000000   0.1818182   0.0931771), wk =   0.0220386
        k(   11) = (   0.0000000   0.1818182   0.1863542), wk =   0.0220386
        k(   12) = (   0.0000000   0.1818182  -0.2795313), wk =   0.0110193
        k(   13) = (   0.0000000   0.2727273   0.0000000), wk =   0.0110193
        k(   14) = (   0.0000000   0.2727273   0.0931771), wk =   0.0220386
        k(   15) = (   0.0000000   0.2727273   0.1863542), wk =   0.0220386
        k(   16) = (   0.0000000   0.2727273  -0.2795313), wk =   0.0110193
        k(   17) = (   0.0000000   0.3636364   0.0000000), wk =   0.0110193
        k(   18) = (   0.0000000   0.3636364   0.0931771), wk =   0.0220386
        k(   19) = (   0.0000000   0.3636364   0.1863542), wk =   0.0220386
        k(   20) = (   0.0000000   0.3636364  -0.2795313), wk =   0.0110193
        k(   21) = (   0.0000000   0.4545455   0.0000000), wk =   0.0110193
        k(   22) = (   0.0000000   0.4545455   0.0931771), wk =   0.0220386
        k(   23) = (   0.0000000   0.4545455   0.1863542), wk =   0.0220386
        k(   24) = (   0.0000000   0.4545455  -0.2795313), wk =   0.0110193
        k(   25) = (   0.0909091   0.0909091   0.0000000), wk =   0.0110193
        k(   26) = (   0.0909091   0.0909091   0.0931771), wk =   0.0220386
        k(   27) = (   0.0909091   0.0909091   0.1863542), wk =   0.0220386
        k(   28) = (   0.0909091   0.0909091  -0.2795313), wk =   0.0110193
        k(   29) = (   0.0909091   0.1818182   0.0000000), wk =   0.0220386
        k(   30) = (   0.0909091   0.1818182   0.0931771), wk =   0.0440771
        k(   31) = (   0.0909091   0.1818182   0.1863542), wk =   0.0440771
        k(   32) = (   0.0909091   0.1818182  -0.2795313), wk =   0.0220386
        k(   33) = (   0.0909091   0.2727273   0.0000000), wk =   0.0220386
        k(   34) = (   0.0909091   0.2727273   0.0931771), wk =   0.0440771
        k(   35) = (   0.0909091   0.2727273   0.1863542), wk =   0.0440771
        k(   36) = (   0.0909091   0.2727273  -0.2795313), wk =   0.0220386
        k(   37) = (   0.0909091   0.3636364   0.0000000), wk =   0.0220386
        k(   38) = (   0.0909091   0.3636364   0.0931771), wk =   0.0440771
        k(   39) = (   0.0909091   0.3636364   0.1863542), wk =   0.0440771
        k(   40) = (   0.0909091   0.3636364  -0.2795313), wk =   0.0220386
        k(   41) = (   0.0909091   0.4545455   0.0000000), wk =   0.0220386
        k(   42) = (   0.0909091   0.4545455   0.0931771), wk =   0.0440771
        k(   43) = (   0.0909091   0.4545455   0.1863542), wk =   0.0440771
        k(   44) = (   0.0909091   0.4545455  -0.2795313), wk =   0.0220386
        k(   45) = (   0.1818182   0.1818182   0.0000000), wk =   0.0110193
        k(   46) = (   0.1818182   0.1818182   0.0931771), wk =   0.0220386
        k(   47) = (   0.1818182   0.1818182   0.1863542), wk =   0.0220386
        k(   48) = (   0.1818182   0.1818182  -0.2795313), wk =   0.0110193
        k(   49) = (   0.1818182   0.2727273   0.0000000), wk =   0.0220386
        k(   50) = (   0.1818182   0.2727273   0.0931771), wk =   0.0440771
        k(   51) = (   0.1818182   0.2727273   0.1863542), wk =   0.0440771
        k(   52) = (   0.1818182   0.2727273  -0.2795313), wk =   0.0220386
        k(   53) = (   0.1818182   0.3636364   0.0000000), wk =   0.0220386
        k(   54) = (   0.1818182   0.3636364   0.0931771), wk =   0.0440771
        k(   55) = (   0.1818182   0.3636364   0.1863542), wk =   0.0440771
        k(   56) = (   0.1818182   0.3636364  -0.2795313), wk =   0.0220386
        k(   57) = (   0.1818182   0.4545455   0.0000000), wk =   0.0220386
        k(   58) = (   0.1818182   0.4545455   0.0931771), wk =   0.0440771
        k(   59) = (   0.1818182   0.4545455   0.1863542), wk =   0.0440771
        k(   60) = (   0.1818182   0.4545455  -0.2795313), wk =   0.0220386
        k(   61) = (   0.2727273   0.2727273   0.0000000), wk =   0.0110193
        k(   62) = (   0.2727273   0.2727273   0.0931771), wk =   0.0220386
        k(   63) = (   0.2727273   0.2727273   0.1863542), wk =   0.0220386
        k(   64) = (   0.2727273   0.2727273  -0.2795313), wk =   0.0110193
        k(   65) = (   0.2727273   0.3636364   0.0000000), wk =   0.0220386
        k(   66) = (   0.2727273   0.3636364   0.0931771), wk =   0.0440771
        k(   67) = (   0.2727273   0.3636364   0.1863542), wk =   0.0440771
        k(   68) = (   0.2727273   0.3636364  -0.2795313), wk =   0.0220386
        k(   69) = (   0.2727273   0.4545455   0.0000000), wk =   0.0220386
        k(   70) = (   0.2727273   0.4545455   0.0931771), wk =   0.0440771
        k(   71) = (   0.2727273   0.4545455   0.1863542), wk =   0.0440771
        k(   72) = (   0.2727273   0.4545455  -0.2795313), wk =   0.0220386
        k(   73) = (   0.3636364   0.3636364   0.0000000), wk =   0.0110193
        k(   74) = (   0.3636364   0.3636364   0.0931771), wk =   0.0220386
        k(   75) = (   0.3636364   0.3636364   0.1863542), wk =   0.0220386
        k(   76) = (   0.3636364   0.3636364  -0.2795313), wk =   0.0110193
        k(   77) = (   0.3636364   0.4545455   0.0000000), wk =   0.0220386
        k(   78) = (   0.3636364   0.4545455   0.0931771), wk =   0.0440771
        k(   79) = (   0.3636364   0.4545455   0.1863542), wk =   0.0440771
        k(   80) = (   0.3636364   0.4545455  -0.2795313), wk =   0.0220386
        k(   81) = (   0.4545455   0.4545455   0.0000000), wk =   0.0110193
        k(   82) = (   0.4545455   0.4545455   0.0931771), wk =   0.0220386
        k(   83) = (   0.4545455   0.4545455   0.1863542), wk =   0.0220386
        k(   84) = (   0.4545455   0.4545455  -0.2795313), wk =   0.0110193

     Dense  grid:    10689 G-vectors     FFT dimensions: (  24,  24,  45)

     Estimated max dynamical RAM per process >      14.21 MB

     Estimated total dynamical RAM >     113.66 MB

     Initial potential from superposition of free atoms

     starting charge       6.9948, renormalised to       7.0000
     Starting wfcs are    6 randomized atomic wfcs +    2 random wfcs

     total cpu time spent up to now is        0.6 secs

     Self-consistent Calculation

     iteration #  1     ecut=    80.00 Ry     beta= 0.70
     Davidson diagonalization with overlap
     ethr =  1.00E-02,  avg # of iterations =  6.4

     Threshold (ethr) on eigenvalues was too large:
     Diagonalizing with lowered threshold

     Davidson diagonalization with overlap
     ethr =  1.39E-04,  avg # of iterations =  2.9

     total cpu time spent up to now is        1.3 secs

     total energy              =     -22.69708842 Ry
     estimated scf accuracy    <       0.00972288 Ry

     iteration #  2     ecut=    80.00 Ry     beta= 0.70
     Davidson diagonalization with overlap
     ethr =  1.39E-04,  avg # of iterations =  1.4

     total cpu time spent up to now is        1.6 secs

     total energy              =     -22.69775317 Ry
     estimated scf accuracy    <       0.00121380 Ry

     iteration #  3     ecut=    80.00 Ry     beta= 0.70
     Davidson diagonalization with overlap
     ethr =  1.73E-05,  avg # of iterations =  2.2

     total cpu time spent up to now is        1.8 secs

     total energy              =     -22.69795033 Ry
     estimated scf accuracy    <       0.00018531 Ry

     iteration #  4     ecut=    80.00 Ry     beta= 0.70
     Davidson diagonalization with overlap
     ethr =  2.65E-06,  avg # of iterations =  2.7

     total cpu time spent up to now is        2.1 secs

     total energy              =     -22.69797603 Ry
     estimated scf accuracy    <       0.00000056 Ry

     iteration #  5     ecut=    80.00 Ry     beta= 0.70
     Davidson diagonalization with overlap
     ethr =  8.06E-09,  avg # of iterations =  2.3

     total cpu time spent up to now is        2.4 secs

     End of self-consistent calculation

          k = 0.0000 0.0000 0.0000 (  1333 PWs)   bands (ev):

   -33.7486  -2.6558   6.3282  13.3482  22.5121  27.3956  27.3956  34.3355

          k = 0.0000 0.0000 0.0932 (  1332 PWs)   bands (ev):

   -33.7478  -2.6624   5.9846  14.3667  22.5640  27.5967  27.5967  30.8319

          k = 0.0000 0.0000 0.1864 (  1332 PWs)   bands (ev):

   -33.7461  -2.6759   5.4361  16.8143  22.6717  26.2463  28.1280  28.1281

          k = 0.0000 0.0000-0.2795 (  1348 PWs)   bands (ev):

   -33.7453  -2.6828   5.2070  18.8534  22.7276  23.4861  28.5348  28.5348

          k = 0.0000 0.0909 0.0000 (  1329 PWs)   bands (ev):

   -33.7266  -2.4018   6.5891  13.3490  20.6626  27.6015  28.5217  32.1575

          k = 0.0000 0.0909 0.0932 (  1340 PWs)   bands (ev):

   -33.7258  -2.4042   6.2144  14.3992  20.7458  27.8004  28.5568  30.2752

          k = 0.0000 0.0909 0.1864 (  1333 PWs)   bands (ev):

   -33.7242  -2.4091   5.6247  16.9045  20.9276  26.0697  28.3233  28.6617

          k = 0.0000 0.0909-0.2795 (  1332 PWs)   bands (ev):

   -33.7234  -2.4117   5.3801  19.0276  21.0446  23.2696  28.7183  28.7559

          k = 0.0000 0.1818 0.0000 (  1337 PWs)   bands (ev):

   -33.6672  -1.6442   7.3720  13.1107  17.7224  27.4630  28.2153  29.5597

          k = 0.0000 0.1818 0.0932 (  1338 PWs)   bands (ev):

   -33.6665  -1.6341   6.8940  14.1961  17.8419  26.2443  28.4076  29.8306

          k = 0.0000 0.1818 0.1864 (  1338 PWs)   bands (ev):

   -33.6652  -1.6134   6.1797  16.3866  18.4198  24.1926  27.7514  28.9050

          k = 0.0000 0.1818-0.2795 (  1330 PWs)   bands (ev):

   -33.6645  -1.6028   5.8908  17.2467  20.1482  21.9234  26.4641  29.2672

          k = 0.0000 0.2727 0.0000 (  1333 PWs)   bands (ev):

   -33.5887  -0.3956   8.6779  11.6110  16.0613  23.0683  27.7069  29.2218

          k = 0.0000 0.2727 0.0932 (  1335 PWs)   bands (ev):

   -33.5882  -0.3657   7.9617  12.4350  16.5167  22.4913  28.4953  29.4028

          k = 0.0000 0.2727 0.1864 (  1331 PWs)   bands (ev):

   -33.5872  -0.3032   7.0522  13.3469  18.0091  21.6829  27.8370  29.8590

          k = 0.0000 0.2727-0.2795 (  1318 PWs)   bands (ev):

   -33.5867  -0.2706   6.7042  13.6087  19.2476  21.3901  26.0508  30.1736

          k = 0.0000 0.3636 0.0000 (  1333 PWs)   bands (ev):

   -33.5160   1.3231   8.8664  10.5077  15.8808  19.1502  25.9126  30.5746

          k = 0.0000 0.3636 0.0932 (  1333 PWs)   bands (ev):

   -33.5156   1.3779   8.5224  10.4375  16.1769  19.6549  26.5430  30.7396

          k = 0.0000 0.3636 0.1864 (  1339 PWs)   bands (ev):

   -33.5149   1.4929   7.9600  10.2289  16.5484  21.3678  27.4954  29.9061

          k = 0.0000 0.3636-0.2795 (  1322 PWs)   bands (ev):

   -33.5145   1.5535   7.7162  10.1102  16.6573  23.1689  26.1920  29.7804

          k = 0.0000 0.4545 0.0000 (  1328 PWs)   bands (ev):

   -33.4725   3.4819   6.0322  12.8622  15.7463  15.9999  24.9616  32.0262

          k = 0.0000 0.4545 0.0932 (  1335 PWs)   bands (ev):

   -33.4722   3.5555   6.1293  11.6476  14.8561  18.6582  25.4031  32.1725

          k = 0.0000 0.4545 0.1864 (  1337 PWs)   bands (ev):

   -33.4716   3.6840   6.5404   9.6996  14.8862  22.1245  26.5168  29.9475

          k = 0.0000 0.4545-0.2795 (  1336 PWs)   bands (ev):

   -33.4713   3.7358   7.0659   8.5874  14.9548  25.3109  26.3195  27.8939

          k = 0.0909 0.0909 0.0000 (  1332 PWs)   bands (ev):

   -33.7048  -2.1482   6.8500  13.3870  19.6931  26.0293  30.1995  32.3115

          k = 0.0909 0.0909 0.0932 (  1336 PWs)   bands (ev):

   -33.7041  -2.1464   6.4449  14.4699  19.7973  26.0788  29.3407  30.7172

          k = 0.0909 0.0909 0.1864 (  1335 PWs)   bands (ev):

   -33.7026  -2.1429   5.8157  17.0363  20.0268  25.9780  26.3656  27.9792

          k = 0.0909 0.0909-0.2795 (  1342 PWs)   bands (ev):

   -33.7018  -2.1412   5.5564  19.2608  20.1547  23.2312  26.2742  27.4157

          k = 0.0909 0.1818 0.0000 (  1329 PWs)   bands (ev):

   -33.6462  -1.3915   7.6330  13.2662  17.3858  25.6130  27.7133  29.4964

          k = 0.0909 0.1818 0.0932 (  1335 PWs)   bands (ev):

   -33.6455  -1.3776   7.1266  14.3898  17.5275  25.4489  26.4364  30.4600

          k = 0.0909 0.1818 0.1864 (  1339 PWs)   bands (ev):

   -33.6443  -1.3490   6.3782  16.5958  18.2059  24.1790  25.7326  27.2147

          k = 0.0909 0.1818-0.2795 (  1334 PWs)   bands (ev):

   -33.6436  -1.3343   6.0766  17.2995  20.1237  22.1890  25.5784  25.6493

          k = 0.0909 0.2727 0.0000 (  1334 PWs)   bands (ev):

   -33.5688  -0.1444   8.9387  11.8556  15.9597  23.3231  26.0523  27.4953

          k = 0.0909 0.2727 0.0932 (  1337 PWs)   bands (ev):

   -33.5683  -0.1112   8.2001  12.6686  16.4963  22.5092  26.3185  28.3106

          k = 0.0909 0.2727 0.1864 (  1331 PWs)   bands (ev):

   -33.5673  -0.0417   7.2649  13.5367  18.1774  21.5552  26.2671  27.8893

          k = 0.0909 0.2727-0.2795 (  1334 PWs)   bands (ev):

   -33.5668  -0.0053   6.9069  13.7897  19.4600  21.4146  25.6756  26.2499

          k = 0.0909 0.3636 0.0000 (  1338 PWs)   bands (ev):

   -33.4970   1.5727   9.1112  10.7683  15.9720  19.4081  25.3800  27.5709

          k = 0.0909 0.3636 0.0932 (  1339 PWs)   bands (ev):

   -33.4966   1.6298   8.7762  10.6573  16.3845  19.7180  26.2407  27.5005

          k = 0.0909 0.3636 0.1864 (  1328 PWs)   bands (ev):

   -33.4959   1.7503   8.2006  10.4427  16.7698  21.3058  27.3032  27.7165

          k = 0.0909 0.3636-0.2795 (  1322 PWs)   bands (ev):

   -33.4955   1.8141   7.9445  10.3372  16.8220  23.1758  26.2001  27.2565

          k = 0.0909 0.4545 0.0000 (  1331 PWs)   bands (ev):

   -33.4540   3.7292   6.2782  13.1217  16.0066  16.2018  24.5045  29.0355

          k = 0.0909 0.4545 0.0932 (  1327 PWs)   bands (ev):

   -33.4537   3.8036   6.3789  11.8892  15.1029  18.8286  25.0740  28.9749

          k = 0.0909 0.4545 0.1864 (  1338 PWs)   bands (ev):

   -33.4531   3.9353   6.7923   9.9487  15.0562  22.2167  26.5098  28.6813

          k = 0.0909 0.4545-0.2795 (  1340 PWs)   bands (ev):

   -33.4528   3.9896   7.3119   8.8471  15.0839  25.1988  26.5010  27.5822

          k = 0.1818 0.1818 0.0000 (  1340 PWs)   bands (ev):

   -33.5896  -0.6375   8.4159  13.5833  16.1465  23.5053  28.2191  28.2649

          k = 0.1818 0.1818 0.0932 (  1329 PWs)   bands (ev):

   -33.5891  -0.6125   7.8160  14.8373  16.2790  23.3543  25.5891  28.6099

          k = 0.1818 0.1818 0.1864 (  1330 PWs)   bands (ev):

   -33.5880  -0.5604   6.9642  16.5816  17.5795  23.0775  23.7450  26.3474

          k = 0.1818 0.1818-0.2795 (  1330 PWs)   bands (ev):

   -33.5874  -0.5332   6.6260  16.7583  19.8875  22.9547  23.0505  23.6111

          k = 0.1818 0.2727 0.0000 (  1337 PWs)   bands (ev):

   -33.5149   0.6053   9.7213  12.5789  15.3602  22.9639  24.0797  26.5150

          k = 0.1818 0.2727 0.0932 (  1335 PWs)   bands (ev):

   -33.5145   0.6480   8.9090  13.3153  16.1360  22.1190  23.6474  27.3869

          k = 0.1818 0.2727 0.1864 (  1331 PWs)   bands (ev):

   -33.5136   0.7383   7.8953  13.9959  18.3543  20.8939  23.2183  27.1430

          k = 0.1818 0.2727-0.2795 (  1330 PWs)   bands (ev):

   -33.5132   0.7862   7.5071  14.2206  19.9680  20.4734  23.8797  24.2656

          k = 0.1818 0.3636 0.0000 (  1326 PWs)   bands (ev):

   -33.4457   2.3167   9.8302  11.5497  16.0634  20.1791  23.0772  25.3539

          k = 0.1818 0.3636 0.0932 (  1327 PWs)   bands (ev):

   -33.4453   2.3810   9.5319  11.2878  16.8793  19.7037  23.7983  25.7805

          k = 0.1818 0.3636 0.1864 (  1329 PWs)   bands (ev):

   -33.4447   2.5182   8.9172  11.0523  17.3903  20.6399  24.0566  27.5471

          k = 0.1818 0.3636-0.2795 (  1336 PWs)   bands (ev):

   -33.4443   2.5918   8.6226  10.9907  17.2557  21.9426  24.9448  25.9020

          k = 0.1818 0.4545 0.0000 (  1327 PWs)   bands (ev):

   -33.4042   4.4654   7.0086  13.8988  16.7337  16.7871  22.9017  25.6535

          k = 0.1818 0.4545 0.0932 (  1331 PWs)   bands (ev):

   -33.4040   4.5428   7.1192  12.6034  15.8238  19.2215  23.7278  25.5502

          k = 0.1818 0.4545 0.1864 (  1337 PWs)   bands (ev):

   -33.4034   4.6855   7.5374  10.6886  15.5276  22.1841  24.9557  26.3101

          k = 0.1818 0.4545-0.2795 (  1338 PWs)   bands (ev):

   -33.4032   4.7483   8.0353   9.6236  15.4347  23.8280  25.4100  26.9860

          k = 0.2727 0.2727 0.0000 (  1330 PWs)   bands (ev):

   -33.4438   1.8411  11.0255  13.3793  14.0063  21.4068  24.9700  25.2412

          k = 0.2727 0.2727 0.0932 (  1329 PWs)   bands (ev):

   -33.4435   1.8988  10.0506  13.5298  15.4529  21.2401  22.3687  25.9975

          k = 0.2727 0.2727 0.1864 (  1330 PWs)   bands (ev):

   -33.4428   2.0227   8.9082  13.8820  17.6202  20.4456  21.4821  25.9197

          k = 0.2727 0.2727-0.2795 (  1330 PWs)   bands (ev):

   -33.4424   2.0896   8.4757  14.0953  18.4235  19.7055  23.1137  24.1468

          k = 0.2727 0.3636 0.0000 (  1314 PWs)   bands (ev):

   -33.3780   3.5416  10.9253  12.8505  15.4314  20.9374  21.4469  24.1046

          k = 0.2727 0.3636 0.0932 (  1324 PWs)   bands (ev):

   -33.3777   3.6175  10.7539  12.1579  16.7070  19.5354  21.8947  24.8799

          k = 0.2727 0.3636 0.1864 (  1329 PWs)   bands (ev):

   -33.3771   3.7824  10.0900  11.8861  18.1811  18.3156  22.4253  25.4511

          k = 0.2727 0.3636-0.2795 (  1330 PWs)   bands (ev):

   -33.3768   3.8728   9.7243  11.9254  17.6979  18.6988  24.1619  24.3517

          k = 0.2727 0.4545 0.0000 (  1321 PWs)   bands (ev):

   -33.3386   5.6708   8.1886  15.1887  17.1350  18.0846  20.2159  23.4131

          k = 0.2727 0.4545 0.0932 (  1322 PWs)   bands (ev):

   -33.3383   5.7556   8.3139  13.7367  16.9226  18.9231  21.2462  23.8364

          k = 0.2727 0.4545 0.1864 (  1337 PWs)   bands (ev):

   -33.3379   5.9222   8.7329  11.8884  16.1600  20.1003  22.3175  25.3695

          k = 0.2727 0.4545-0.2795 (  1330 PWs)   bands (ev):

   -33.3376   6.0020   9.1806  10.9064  15.8936  20.2632  22.9198  25.4920

          k = 0.3636 0.3636 0.0000 (  1312 PWs)   bands (ev):

   -33.3153   5.2213  11.5195  14.3673  14.6672  20.1993  22.6104  22.7506

          k = 0.3636 0.3636 0.0932 (  1313 PWs)   bands (ev):

   -33.3150   5.3122  11.6818  12.8742  15.9204  20.1979  20.3522  23.1227

          k = 0.3636 0.3636 0.1864 (  1325 PWs)   bands (ev):

   -33.3146   5.5129  11.6420  12.0687  16.3665  18.2324  21.2163  23.5500

          k = 0.3636 0.3636-0.2795 (  1342 PWs)   bands (ev):

   -33.3143   5.6253  11.1746  12.3100  16.3603  17.4619  22.4261  22.4834

          k = 0.3636 0.4545 0.0000 (  1310 PWs)   bands (ev):

   -33.2778   7.3019   9.6754  15.7596  16.9818  18.2691  19.8751  21.6791

          k = 0.3636 0.4545 0.0932 (  1317 PWs)   bands (ev):

   -33.2776   7.4018   9.8198  14.8515  16.8080  18.0795  19.4288  22.7964

          k = 0.3636 0.4545 0.1864 (  1319 PWs)   bands (ev):

   -33.2771   7.6128  10.2273  13.4254  16.3319  17.2945  19.7652  22.6819

          k = 0.3636 0.4545-0.2795 (  1328 PWs)   bands (ev):

   -33.2769   7.7239  10.5760  12.6598  16.2800  16.7223  20.3412  21.8764

          k = 0.4545 0.4545 0.0000 (  1300 PWs)   bands (ev):

   -33.2415   9.2189  10.5879  14.1213  16.1602  19.2443  21.6365  21.8514

          k = 0.4545 0.4545 0.0932 (  1312 PWs)   bands (ev):

   -33.2412   9.3456  10.7562  14.0255  16.2359  17.9865  19.1100  21.7564

          k = 0.4545 0.4545 0.1864 (  1310 PWs)   bands (ev):

   -33.2408   9.6295  11.1614  13.9573  15.5523  17.1243  17.5860  20.2636

          k = 0.4545 0.4545-0.2795 (  1312 PWs)   bands (ev):

   -33.2406   9.7908  11.4182  14.1763  14.6876  16.3375  18.3674  19.0273

     the Fermi energy is    12.9239 ev

!    total energy              =     -22.69797626 Ry
     estimated scf accuracy    <          9.1E-09 Ry
     smearing contrib. (-TS)   =       0.00016733 Ry
     internal energy E=F+TS    =     -22.69814359 Ry

     The total energy is F=E-TS. E is the sum of the following terms:
     one-electron contribution =       0.25390120 Ry
     hartree contribution      =       2.74651124 Ry
     xc contribution           =      -7.00654708 Ry
     ewald contribution        =     -18.69200895 Ry

     convergence has been achieved in   5 iterations

     Forces acting on atoms (cartesian axes, Ry/au):

     atom    1 type  1   force =     0.00000000    0.00000000    0.00000000
     atom    2 type  2   force =     0.00000000    0.00000000    0.00000000
     The non-local contrib.  to forces
     atom    1 type  1   force =     0.00000000    0.00000000    0.00000000
     atom    2 type  2   force =     0.00000000    0.00000000    0.00000000
     The ionic contribution  to forces
     atom    1 type  1   force =     0.00000000    0.00000000   -0.00000000
     atom    2 type  2   force =    -0.00000000   -0.00000000    0.00000000
     The local contribution  to forces
     atom    1 type  1   force =     0.00000000    0.00000000    0.00000000
     atom    2 type  2   force =    -0.00000000   -0.00000000    0.00000000
     The core correction contribution to forces
     atom    1 type  1   force =     0.00000000    0.00000000    0.00000000
     atom    2 type  2   force =     0.00000000    0.00000000   -0.00000000
     The Hubbard contrib.    to forces
     atom    1 type  1   force =     0.00000000    0.00000000    0.00000000
     atom    2 type  2   force =     0.00000000    0.00000000    0.00000000
     The SCF correction term to forces
     atom    1 type  1   force =    -0.00000000    0.00000000    0.00000000
     atom    2 type  2   force =     0.00000000   -0.00000000    0.00000000

     Total force =     0.000000     Total SCF correction =     0.000000


     Computing stress (Cartesian axis) and pressure

          total   stress  (Ry/bohr**3)                   (kbar)     P=     1093.45
   0.00949420   0.00000000   0.00000000         1396.64        0.00        0.00
   0.00000000   0.00949420   0.00000000            0.00     1396.64        0.00
   0.00000000   0.00000000   0.00331100            0.00        0.00      487.07


     BFGS Geometry Optimization
     Energy error            =      0.0E+00 Ry
     Gradient error          =      0.0E+00 Ry/Bohr
     Cell gradient error     =      9.0E+02 kbar

     number of scf cycles    =   1
     number of bfgs steps    =   0

     enthalpy           new  =     -22.3237798334 Ry

     new trust radius        =       0.3197725605 bohr
ibrav =      6
 celldm(1) =      4.54990395
 celldm(3) =      1.54877208
Input lattice vectors:
     1.15238161     0.00000000     0.00000000
     0.00000000     1.15238161     0.00000000
     0.00000000     0.00000000     1.78477646
New lattice vectors in INITIAL alat:
     1.15238161     0.00000000     0.00000000
     0.00000000     1.15238161     0.00000000
     0.00000000     0.00000000     1.78477646
New lattice vectors in NEW alat (for information only):
     1.00000000     0.00000000     0.00000000
     0.00000000     1.00000000     0.00000000
     0.00000000     0.00000000     1.54877208
Discrepancy in bohr =     0.000000    0.000000    0.000000
     new conv_thr            =       0.0000000100 Ry

     new unit-cell volume =    145.87948 a.u.^3 (    21.61711 Ang^3 )
     density =      2.69059 g/cm^3

CELL_PARAMETERS (alat=  3.94826151)
   1.152381607   0.000000000   0.000000000
   0.000000000   1.152381607   0.000000000
   0.000000000   0.000000000   1.784776458

ATOMIC_POSITIONS (crystal)
Li            0.5000000000        0.5000000000        0.0000000000
Si            0.0000000000        0.0000000000        0.5000000000



     Writing config-only to output data dir ./output/LiSi.save/
     NEW-OLD atomic charge density approx. for the potential
     extrapolated charge    8.71597, renormalised to    7.00000

     total cpu time spent up to now is        3.0 secs

     Self-consistent Calculation

     iteration #  1     ecut=    80.00 Ry     beta= 0.70
     Davidson diagonalization with overlap
     c_bands:  1 eigenvalues not converged
     ethr =  1.00E-06,  avg # of iterations = 11.3

     total cpu time spent up to now is        3.8 secs

     total energy              =     -22.83073124 Ry
     estimated scf accuracy    <       0.00726818 Ry

     iteration #  2     ecut=    80.00 Ry     beta= 0.70
     Davidson diagonalization with overlap
     ethr =  1.04E-04,  avg # of iterations =  3.1

     total cpu time spent up to now is        4.2 secs

     total energy              =     -22.86729131 Ry
     estimated scf accuracy    <       0.00730277 Ry

     iteration #  3     ecut=    80.00 Ry     beta= 0.70
     Davidson diagonalization with overlap
     ethr =  1.04E-04,  avg # of iterations =  1.0

     total cpu time spent up to now is        4.5 secs

     total energy              =     -22.86571104 Ry
     estimated scf accuracy    <       0.00257767 Ry

     iteration #  4     ecut=    80.00 Ry     beta= 0.70
     Davidson diagonalization with overlap
     ethr =  3.68E-05,  avg # of iterations =  2.0

     total cpu time spent up to now is        4.8 secs

     total energy              =     -22.86595188 Ry
     estimated scf accuracy    <       0.00000194 Ry

     iteration #  5     ecut=    80.00 Ry     beta= 0.70
     Davidson diagonalization with overlap
     ethr =  2.77E-08,  avg # of iterations =  3.5

     total cpu time spent up to now is        5.2 secs

     total energy              =     -22.86595044 Ry
     estimated scf accuracy    <       0.00000571 Ry

     iteration #  6     ecut=    80.00 Ry     beta= 0.70
     Davidson diagonalization with overlap
     ethr =  2.77E-08,  avg # of iterations =  2.0

     total cpu time spent up to now is        5.5 secs

     total energy              =     -22.86595109 Ry
     estimated scf accuracy    <       0.00000003 Ry

     iteration #  7     ecut=    80.00 Ry     beta= 0.70
     Davidson diagonalization with overlap
     ethr =  4.49E-10,  avg # of iterations =  1.8

     total cpu time spent up to now is        5.8 secs

     End of self-consistent calculation

          k = 0.0000 0.0000 0.0000 (  1333 PWs)   bands (ev):

   -36.7242  -3.7358   5.3759  10.7351  17.3312  18.3716  18.3716  26.4168

          k = 0.0000 0.0000 0.0934 (  1332 PWs)   bands (ev):

   -36.7240  -3.6664   4.5773  12.2067  17.4340  18.5685  18.5685  25.9805

          k = 0.0000 0.0000 0.1868 (  1332 PWs)   bands (ev):

   -36.7229  -3.5151   3.4538  15.3423  17.6576  19.0722  19.0722  24.4860

          k = 0.0000 0.0000-0.2801 (  1348 PWs)   bands (ev):

   -36.7227  -3.4322   2.9994  17.7801  18.1639  19.4299  19.4299  21.2825

          k = 0.0000 0.0789 0.0000 (  1329 PWs)   bands (ev):

   -36.7179  -3.5446   5.5733  10.7183  14.9000  18.5473  20.4338  24.9390

          k = 0.0000 0.0789 0.0934 (  1340 PWs)   bands (ev):

   -36.7176  -3.4720   4.7463  12.1887  15.0611  18.7431  20.5255  23.3332

          k = 0.0000 0.0789 0.1868 (  1333 PWs)   bands (ev):

   -36.7165  -3.3135   3.5972  14.8949  15.8137  19.2424  20.7433  21.5737

          k = 0.0000 0.0789-0.2801 (  1332 PWs)   bands (ev):

   -36.7161  -3.2262   3.1338  15.4107  18.3340  19.5953  20.3327  20.9726

          k = 0.0000 0.1578 0.0000 (  1337 PWs)   bands (ev):

   -36.7003  -2.9735   6.1649  10.1385  12.7133  19.0740  21.4135  22.1305

          k = 0.0000 0.1578 0.0934 (  1338 PWs)   bands (ev):

   -36.6999  -2.8915   5.2407  11.1122  13.4123  19.2660  20.1466  22.1196

          k = 0.0000 0.1578 0.1868 (  1338 PWs)   bands (ev):

   -36.6991  -2.7108   4.0173  11.9619  15.8744  18.7051  19.7523  22.0892

          k = 0.0000 0.1578-0.2801 (  1330 PWs)   bands (ev):

   -36.6986  -2.6102   3.5290  12.2211  17.5343  18.8990  20.0908  22.0859

          k = 0.0000 0.2367 0.0000 (  1333 PWs)   bands (ev):

   -36.6768  -2.0311   7.1480   7.9760  12.4204  18.1301  19.9491  22.1665

          k = 0.0000 0.2367 0.0934 (  1335 PWs)   bands (ev):

   -36.6766  -1.9330   5.9612   8.5884  13.5660  17.3220  20.1345  23.0432

          k = 0.0000 0.2367 0.1868 (  1331 PWs)   bands (ev):

   -36.6759  -1.7137   4.6658   8.9949  15.0208  17.5404  20.5984  23.0789

          k = 0.0000 0.2367-0.2801 (  1318 PWs)   bands (ev):

   -36.6754  -1.5892   4.1529   9.1415  14.8864  19.8107  20.9136  22.4680

          k = 0.0000 0.3156 0.0000 (  1333 PWs)   bands (ev):

   -36.6555  -0.7394   5.4839   8.5117  12.7888  15.2081  20.5961  21.1648

          k = 0.0000 0.3156 0.0934 (  1333 PWs)   bands (ev):

   -36.6553  -0.6161   5.4358   7.6188  13.4174  15.5578  21.3396  21.6940

          k = 0.0000 0.3156 0.1868 (  1339 PWs)   bands (ev):

   -36.6549  -0.3354   5.1785   6.5830  13.0350  18.2086  21.7684  23.5126

          k = 0.0000 0.3156-0.2801 (  1322 PWs)   bands (ev):

   -36.6544  -0.1720   4.9113   6.3144  12.7492  20.9874  22.0493  22.8077

          k = 0.0000 0.3944 0.0000 (  1328 PWs)   bands (ev):

   -36.6427   0.7878   3.3150  10.1696  12.7657  13.1218  19.6993  22.6725

          k = 0.0000 0.3944 0.0934 (  1335 PWs)   bands (ev):

   -36.6426   0.9678   3.3533   8.5830  12.1474  15.5104  20.6222  22.8230

          k = 0.0000 0.3944 0.1868 (  1337 PWs)   bands (ev):

   -36.6421   1.3854   3.5332   6.5531  11.6387  18.9946  22.7319  24.8465

          k = 0.0000 0.3944-0.2801 (  1336 PWs)   bands (ev):

   -36.6419   1.6287   3.8001   5.5338  11.4332  22.1359  22.9774  24.1186

          k = 0.0789 0.0789 0.0000 (  1332 PWs)   bands (ev):

   -36.7114  -3.3534   5.7706  10.7520  14.0509  17.4986  22.2068  24.7516

          k = 0.0789 0.0789 0.0934 (  1336 PWs)   bands (ev):

   -36.7108  -3.2777   4.9164  12.2487  14.2085  17.6226  22.0714  23.5000

          k = 0.0789 0.0789 0.1868 (  1335 PWs)   bands (ev):

   -36.7100  -3.1121   3.7427  14.5793  15.2806  17.9859  20.8993  22.6263

          k = 0.0789 0.0789-0.2801 (  1342 PWs)   bands (ev):

   -36.7099  -3.0206   3.2706  14.8061  17.2297  19.1514  20.2137  20.7046

          k = 0.0789 0.1578 0.0000 (  1329 PWs)   bands (ev):

   -36.6936  -2.7821   6.3620  10.3136  12.3784  17.3951  21.5941  23.3420

          k = 0.0789 0.1578 0.0934 (  1335 PWs)   bands (ev):

   -36.6934  -2.6973   5.4144  11.2677  13.1164  17.4734  20.2328  23.3958

          k = 0.0789 0.1578 0.1868 (  1339 PWs)   bands (ev):

   -36.6928  -2.5100   4.1697  12.0180  15.6131  17.6443  18.8234  22.6451

          k = 0.0789 0.1578-0.2801 (  1334 PWs)   bands (ev):

   -36.6924  -2.4053   3.6733  12.2725  17.0997  17.5606  19.6507  21.1748

          k = 0.0789 0.2367 0.0000 (  1334 PWs)   bands (ev):

   -36.6707  -1.8395   7.3445   8.1511  12.3198  17.9779  18.3234  21.9126

          k = 0.0789 0.2367 0.0934 (  1337 PWs)   bands (ev):

   -36.6705  -1.7391   6.1449   8.7331  13.5403  17.1091  18.4307  22.8186

          k = 0.0789 0.2367 0.1868 (  1331 PWs)   bands (ev):

   -36.6699  -1.5141   4.8310   9.1367  15.1669  16.8850  18.8745  23.1684

          k = 0.0789 0.2367-0.2801 (  1334 PWs)   bands (ev):

   -36.6695  -1.3859   4.3101   9.2944  14.9488  17.8529  20.5337  22.1081

          k = 0.0789 0.3156 0.0000 (  1338 PWs)   bands (ev):

   -36.6499  -0.5470   5.6604   8.7069  12.8367  15.4053  18.8669  20.5212

          k = 0.0789 0.3156 0.0934 (  1339 PWs)   bands (ev):

   -36.6495  -0.4221   5.6225   7.7816  13.5954  15.4885  19.2389  21.4490

          k = 0.0789 0.3156 0.1868 (  1328 PWs)   bands (ev):

   -36.6487  -0.1374   5.3686   6.7440  13.1435  17.8050  19.8351  23.1778

          k = 0.0789 0.3156-0.2801 (  1322 PWs)   bands (ev):

   -36.6484   0.0290   5.0878   6.4951  12.8159  18.9792  21.6276  22.8363

          k = 0.0789 0.3944 0.0000 (  1331 PWs)   bands (ev):

   -36.6372   0.9849   3.4896  10.3605  12.9682  13.2647  19.2284  20.4511

          k = 0.0789 0.3944 0.0934 (  1327 PWs)   bands (ev):

   -36.6367   1.1646   3.5336   8.7692  12.3089  15.5964  20.1942  20.6555

          k = 0.0789 0.3944 0.1868 (  1338 PWs)   bands (ev):

   -36.6364   1.5822   3.7231   6.7458  11.7227  18.7753  21.0621  22.5389

          k = 0.0789 0.3944-0.2801 (  1340 PWs)   bands (ev):

   -36.6361   1.8264   3.9918   5.7318  11.4883  20.1899  22.2848  22.8908

          k = 0.1578 0.1578 0.0000 (  1340 PWs)   bands (ev):

   -36.6768  -2.2106   6.9524  10.7741  11.0281  16.0377  22.5638  22.5790

          k = 0.1578 0.1578 0.0934 (  1329 PWs)   bands (ev):

   -36.6763  -2.1174   5.9251  11.1991  12.2477  16.1889  19.7860  21.5881

          k = 0.1578 0.1578 0.1868 (  1330 PWs)   bands (ev):

   -36.6755  -1.9100   4.6179  11.6092  14.2696  17.2687  17.7773  21.1059

          k = 0.1578 0.1578-0.2801 (  1330 PWs)   bands (ev):

   -36.6751  -1.7928   4.0987  11.8673  14.7903  16.9826  19.7251  20.1066

          k = 0.1578 0.2367 0.0000 (  1337 PWs)   bands (ev):

   -36.6546  -1.2672   7.9330   8.6277  11.6700  15.9200  18.8974  21.2117

          k = 0.1578 0.2367 0.0934 (  1335 PWs)   bands (ev):

   -36.6541  -1.1599   6.6905   9.0793  12.9112  15.9680  17.8374  21.1801

          k = 0.1578 0.2367 0.1868 (  1331 PWs)   bands (ev):

   -36.6535  -0.9175   5.3192   9.4786  14.4169  15.5436  18.1152  20.8526

          k = 0.1578 0.2367-0.2801 (  1330 PWs)   bands (ev):

   -36.6531  -0.7779   4.7748   9.6799  14.7655  15.0022  20.0016  20.7799

          k = 0.1578 0.3156 0.0000 (  1326 PWs)   bands (ev):

   -36.6336   0.0274   6.1730   9.2914  12.6893  15.9949  16.3681  19.7813

          k = 0.1578 0.3156 0.0934 (  1327 PWs)   bands (ev):

   -36.6333   0.1568   6.1703   8.2500  13.9156  14.8135  17.3094  20.6814

          k = 0.1578 0.3156 0.1868 (  1329 PWs)   bands (ev):

   -36.6329   0.4542   5.9352   7.2045  13.4190  15.5169  19.1087  21.0204

          k = 0.1578 0.3156-0.2801 (  1336 PWs)   bands (ev):

   -36.6328   0.6298   5.6115   7.0214  12.9771  15.8299  20.8054  20.8566

          k = 0.1578 0.3944 0.0000 (  1327 PWs)   bands (ev):

   -36.6215   1.5720   4.0069  10.9315  13.5524  13.5744  17.1270  18.3097

          k = 0.1578 0.3944 0.0934 (  1331 PWs)   bands (ev):

   -36.6213   1.7511   4.0683   9.3205  12.7658  15.4586  17.8655  19.0501

          k = 0.1578 0.3944 0.1868 (  1337 PWs)   bands (ev):

   -36.6210   2.1691   4.2878   7.3198  11.9478  16.9026  19.2961  20.3272

          k = 0.1578 0.3944-0.2801 (  1338 PWs)   bands (ev):

   -36.6207   2.4162   4.5612   6.3241  11.6346  17.2574  19.3975  21.3229

          k = 0.2367 0.2367 0.0000 (  1330 PWs)   bands (ev):

   -36.6328  -0.3229   8.7488   8.9098  10.5971  15.3530  20.1473  20.3060

          k = 0.2367 0.2367 0.0934 (  1329 PWs)   bands (ev):

   -36.6325  -0.2038   7.5544   8.9288  11.7590  15.9810  17.3714  19.4189

          k = 0.2367 0.2367 0.1868 (  1330 PWs)   bands (ev):

   -36.6319   0.0688   6.0960   9.3664  12.4909  15.3102  17.7330  19.6376

          k = 0.2367 0.2367-0.2801 (  1330 PWs)   bands (ev):

   -36.6316   0.2287   5.5194   9.6482  12.6169  14.4846  18.4488  20.3873

          k = 0.2367 0.3156 0.0000 (  1314 PWs)   bands (ev):

   -36.6123   0.9737   6.9213  10.2602  11.3909  15.5680  16.9673  18.0551

          k = 0.2367 0.3156 0.0934 (  1324 PWs)   bands (ev):

   -36.6124   1.1111   6.9998   8.9072  12.2902  15.1884  17.0229  18.3405

          k = 0.2367 0.3156 0.1868 (  1329 PWs)   bands (ev):

   -36.6120   1.4308   6.8633   7.8365  12.7345  13.8090  17.8660  19.0541

          k = 0.2367 0.3156-0.2801 (  1330 PWs)   bands (ev):

   -36.6117   1.6231   6.4602   7.8005  12.9292  13.0884  18.2036  18.5182

          k = 0.2367 0.3944 0.0000 (  1321 PWs)   bands (ev):

   -36.6009   2.5350   4.8372  11.8761  12.8322  14.5790  15.6029  16.0487

          k = 0.2367 0.3944 0.0934 (  1322 PWs)   bands (ev):

   -36.6007   2.7133   4.9297  10.1890  13.3025  13.6802  16.3120  17.5323

          k = 0.2367 0.3944 0.1868 (  1337 PWs)   bands (ev):

   -36.6003   3.1334   5.2039   8.2568  12.2180  14.1691  16.3655  18.8295

          k = 0.2367 0.3944-0.2801 (  1330 PWs)   bands (ev):

   -36.6000   3.3870   5.4845   7.3044  11.8195  14.3560  16.3978  18.3570

          k = 0.3156 0.3156 0.0000 (  1312 PWs)   bands (ev):

   -36.5928   2.2699   7.2276  10.0503  11.5956  15.4912  16.0197  18.5006

          k = 0.3156 0.3156 0.0934 (  1313 PWs)   bands (ev):

   -36.5927   2.4201   7.4135   9.3891  11.3090  15.4020  15.7386  17.4314

          k = 0.3156 0.3156 0.1868 (  1325 PWs)   bands (ev):

   -36.5926   2.7751   7.8698   8.1483  11.1353  13.6504  15.4748  17.1935

          k = 0.3156 0.3156-0.2801 (  1342 PWs)   bands (ev):

   -36.5925   2.9940   7.5662   8.1686  11.0822  12.8052  15.9780  16.3099

          k = 0.3156 0.3944 0.0000 (  1310 PWs)   bands (ev):

   -36.5815   3.8389   5.8658  10.6923  13.1709  13.3337  15.9604  16.5557

          k = 0.3156 0.3944 0.0934 (  1317 PWs)   bands (ev):

   -36.5813   4.0171   6.0077  10.5647  12.0399  13.1095  14.8076  17.4726

          k = 0.3156 0.3944 0.1868 (  1319 PWs)   bands (ev):

   -36.5807   4.4438   6.3742   9.4513  11.5961  12.5481  13.7225  16.3453

          k = 0.3156 0.3944-0.2801 (  1328 PWs)   bands (ev):

   -36.5806   4.7102   6.6653   8.6497  11.7824  11.9706  13.6904  15.5464

          k = 0.3944 0.3944 0.0000 (  1300 PWs)   bands (ev):

   -36.5700   5.3632   6.4668   9.0657  11.5358  14.6623  17.4886  17.6724

          k = 0.3944 0.3944 0.0934 (  1312 PWs)   bands (ev):

   -36.5698   5.5466   6.6558   9.2537  11.3927  13.2515  14.9189  15.9562

          k = 0.3944 0.3944 0.1868 (  1310 PWs)   bands (ev):

   -36.5691   5.9945   7.1217   9.7068  11.2680  11.3962  12.8179  14.2383

          k = 0.3944 0.3944-0.2801 (  1312 PWs)   bands (ev):

   -36.5688   6.2856   7.4295  10.2187  10.2856  11.4378  11.9628  13.3183

     the Fermi energy is     9.1001 ev

!    total energy              =     -22.86595109 Ry
     estimated scf accuracy    <          2.5E-10 Ry
     smearing contrib. (-TS)   =       0.00000371 Ry
     internal energy E=F+TS    =     -22.86595480 Ry

     The total energy is F=E-TS. E is the sum of the following terms:
     one-electron contribution =      -2.06405087 Ry
     hartree contribution      =       2.98582259 Ry
     xc contribution           =      -6.69985904 Ry
     ewald contribution        =     -17.08786748 Ry

     convergence has been achieved in   7 iterations

     Forces acting on atoms (cartesian axes, Ry/au):

     atom    1 type  1   force =     0.00000000    0.00000000    0.00000000
     atom    2 type  2   force =     0.00000000    0.00000000    0.00000000
     The non-local contrib.  to forces
     atom    1 type  1   force =     0.00000000    0.00000000    0.00000000
     atom    2 type  2   force =     0.00000000    0.00000000    0.00000000
     The ionic contribution  to forces
     atom    1 type  1   force =     0.00000000    0.00000000   -0.00000000
     atom    2 type  2   force =    -0.00000000   -0.00000000   -0.00000000
     The local contribution  to forces
     atom    1 type  1   force =     0.00000000    0.00000000   -0.00000000
     atom    2 type  2   force =    -0.00000000   -0.00000000    0.00000000
     The core correction contribution to forces
     atom    1 type  1   force =     0.00000000    0.00000000    0.00000000
     atom    2 type  2   force =     0.00000000    0.00000000    0.00000000
     The Hubbard contrib.    to forces
     atom    1 type  1   force =     0.00000000    0.00000000    0.00000000
     atom    2 type  2   force =     0.00000000    0.00000000    0.00000000
     The SCF correction term to forces
     atom    1 type  1   force =     0.00000000    0.00000000    0.00000000
     atom    2 type  2   force =     0.00000000   -0.00000000    0.00000000

     Total force =     0.000000     Total SCF correction =     0.000000


     Computing stress (Cartesian axis) and pressure

          total   stress  (Ry/bohr**3)                   (kbar)     P=      238.19
   0.00160477   0.00000000   0.00000000          236.07        0.00        0.00
   0.00000000   0.00160477   0.00000000            0.00      236.07        0.00
   0.00000000   0.00000000   0.00164806            0.00        0.00      242.44

     Energy error            =      4.6E-02 Ry
     Gradient error          =      0.0E+00 Ry/Bohr
     Cell gradient error     =      2.6E+02 kbar

     number of scf cycles    =   2
     number of bfgs steps    =   1

     enthalpy           old  =     -22.3237798334 Ry
     enthalpy           new  =     -22.3701168304 Ry

     CASE: enthalpy          _new < enthalpy          _old

     new trust radius        =       0.1055811346 bohr
ibrav =      6
 celldm(1) =      4.42261094
 celldm(3) =      1.52370749
Input lattice vectors:
     1.12014134     0.00000000     0.00000000
     0.00000000     1.12014134     0.00000000
     0.00000000     0.00000000     1.70676775
New lattice vectors in INITIAL alat:
     1.12014134     0.00000000     0.00000000
     0.00000000     1.12014134     0.00000000
     0.00000000     0.00000000     1.70676775
New lattice vectors in NEW alat (for information only):
     1.00000000     0.00000000     0.00000000
     0.00000000     1.00000000     0.00000000
     0.00000000     0.00000000     1.52370749
Discrepancy in bohr =     0.000000    0.000000    0.000000
     new conv_thr            =            1.0E-10 Ry

     new unit-cell volume =    131.80680 a.u.^3 (    19.53175 Ang^3 )
     density =      2.97786 g/cm^3

CELL_PARAMETERS (alat=  3.94826151)
   1.120141340   0.000000000   0.000000000
   0.000000000   1.120141340   0.000000000
   0.000000000   0.000000000   1.706767754

ATOMIC_POSITIONS (crystal)
Li            0.5000000000        0.5000000000        0.0000000000
Si            0.0000000000        0.0000000000        0.5000000000



     Writing config-only to output data dir ./output/LiSi.save/
     NEW-OLD atomic charge density approx. for the potential
     extrapolated charge    6.25318, renormalised to    7.00000

     total cpu time spent up to now is        6.3 secs

     Self-consistent Calculation

     iteration #  1     ecut=    80.00 Ry     beta= 0.70
     Davidson diagonalization with overlap
     ethr =  1.00E-06,  avg # of iterations =  7.7

     total cpu time spent up to now is        7.0 secs

     total energy              =     -22.82805640 Ry
     estimated scf accuracy    <       0.00253099 Ry

     iteration #  2     ecut=    80.00 Ry     beta= 0.70
     Davidson diagonalization with overlap
     ethr =  3.62E-05,  avg # of iterations =  2.8

     total cpu time spent up to now is        7.4 secs

     total energy              =     -22.83496323 Ry
     estimated scf accuracy    <       0.00112657 Ry

     iteration #  3     ecut=    80.00 Ry     beta= 0.70
     Davidson diagonalization with overlap
     ethr =  1.61E-05,  avg # of iterations =  1.0

     total cpu time spent up to now is        7.6 secs

     total energy              =     -22.83490952 Ry
     estimated scf accuracy    <       0.00022502 Ry

     iteration #  4     ecut=    80.00 Ry     beta= 0.70
     Davidson diagonalization with overlap
     ethr =  3.21E-06,  avg # of iterations =  1.3

     total cpu time spent up to now is        7.9 secs

     total energy              =     -22.83488864 Ry
     estimated scf accuracy    <       0.00004363 Ry

     iteration #  5     ecut=    80.00 Ry     beta= 0.70
     Davidson diagonalization with overlap
     ethr =  6.23E-07,  avg # of iterations =  2.0

     total cpu time spent up to now is        8.2 secs

     total energy              =     -22.83489465 Ry
     estimated scf accuracy    <       0.00000007 Ry

     iteration #  6     ecut=    80.00 Ry     beta= 0.70
     Davidson diagonalization with overlap
     ethr =  1.04E-09,  avg # of iterations =  3.2

     total cpu time spent up to now is        8.6 secs

     total energy              =     -22.83489475 Ry
     estimated scf accuracy    <          8.3E-09 Ry

     iteration #  7     ecut=    80.00 Ry     beta= 0.70
     Davidson diagonalization with overlap
     ethr =  1.19E-10,  avg # of iterations =  2.0

     total cpu time spent up to now is        8.9 secs

     End of self-consistent calculation

          k = 0.0000 0.0000 0.0000 (  1333 PWs)   bands (ev):

   -35.5390  -3.1265   6.4405  12.1123  18.6289  20.1820  20.1820  29.2808

          k = 0.0000 0.0000 0.0977 (  1332 PWs)   bands (ev):

   -35.5382  -3.0556   5.5675  13.7224  18.7480  20.4150  20.4150  27.8737

          k = 0.0000 0.0000 0.1953 (  1332 PWs)   bands (ev):

   -35.5363  -2.9010   4.3526  17.1282  19.0086  21.0340  21.0340  25.6538

          k = 0.0000 0.0000-0.2930 (  1348 PWs)   bands (ev):

   -35.5355  -2.8159   3.8640  19.1526  20.1215  21.5145  21.5145  23.8202

          k = 0.0000 0.0812 0.0000 (  1329 PWs)   bands (ev):

   -35.5303  -2.9275   6.6487  12.0559  16.3227  20.3670  22.2275  27.0536

          k = 0.0000 0.0812 0.0977 (  1340 PWs)   bands (ev):

   -35.5295  -2.8526   5.7413  13.6571  16.5168  20.5987  22.3387  25.2712

          k = 0.0000 0.0812 0.1953 (  1333 PWs)   bands (ev):

   -35.5277  -2.6887   4.4958  16.4165  17.5344  21.2130  22.6004  23.3186

          k = 0.0000 0.0812-0.2930 (  1332 PWs)   bands (ev):

   -35.5269  -2.5981   3.9965  16.9243  20.2560  21.6866  22.0279  22.9695

          k = 0.0000 0.1623 0.0000 (  1337 PWs)   bands (ev):

   -35.5067  -2.3332   7.2730  11.2800  14.2558  20.9215  23.3099  24.1417

          k = 0.0000 0.1623 0.0977 (  1338 PWs)   bands (ev):

   -35.5060  -2.2464   6.2461  12.3476  15.0347  21.1496  21.8987  24.1393

          k = 0.0000 0.1623 0.1953 (  1338 PWs)   bands (ev):

   -35.5044  -2.0543   4.9138  13.3253  17.6155  20.3323  21.7494  24.1219

          k = 0.0000 0.1623-0.2930 (  1330 PWs)   bands (ev):

   -35.5036  -1.9467   4.3852  13.6432  18.9607  20.8420  22.2032  24.2921

          k = 0.0000 0.2435 0.0000 (  1333 PWs)   bands (ev):

   -35.4756  -1.3527   8.3121   8.9835  14.0128  19.8330  21.8444  24.3203

          k = 0.0000 0.2435 0.0977 (  1335 PWs)   bands (ev):

   -35.4750  -1.2459   6.9510   9.7647  15.1767  18.9770  22.0663  25.2173

          k = 0.0000 0.2435 0.1953 (  1331 PWs)   bands (ev):

   -35.4737  -1.0056   5.5500  10.2542  16.4197  19.4513  22.6421  25.2194

          k = 0.0000 0.2435-0.2930 (  1318 PWs)   bands (ev):

   -35.4730  -0.8681   4.9964  10.4309  16.1981  21.7918  23.0649  25.2517

          k = 0.0000 0.3246 0.0000 (  1333 PWs)   bands (ev):

   -35.4470  -0.0076   6.4049   9.7601  14.3814  16.7360  22.7127  23.1333

          k = 0.0000 0.3246 0.0977 (  1333 PWs)   bands (ev):

   -35.4465   0.1294   6.3276   8.8510  14.8203  17.3219  23.3460  23.9159

          k = 0.0000 0.3246 0.1953 (  1339 PWs)   bands (ev):

   -35.4455   0.4430   6.0128   7.7740  14.3125  20.2367  23.8878  25.8176

          k = 0.0000 0.3246-0.2930 (  1322 PWs)   bands (ev):

   -35.4448   0.6270   5.7323   7.4682  14.0043  23.0018  24.2699  25.6688

          k = 0.0000 0.4058 0.0000 (  1328 PWs)   bands (ev):

   -35.4299   1.5958   4.1421  11.5656  14.1010  14.7116  21.8015  24.7820

          k = 0.0000 0.4058 0.0977 (  1335 PWs)   bands (ev):

   -35.4295   1.7983   4.1811   9.8497  13.3870  17.3484  22.8012  24.9807

          k = 0.0000 0.4058 0.1953 (  1337 PWs)   bands (ev):

   -35.4285   2.2608   4.4115   7.5723  12.8781  21.0952  25.1160  27.3296

          k = 0.0000 0.4058-0.2930 (  1336 PWs)   bands (ev):

   -35.4281   2.5180   4.8332   6.3255  12.6790  24.1254  25.8541  26.5900

          k = 0.0812 0.0812 0.0000 (  1332 PWs)   bands (ev):

   -35.5216  -2.7285   6.8568  12.0707  15.3742  19.4568  23.9884  26.9494

          k = 0.0812 0.0812 0.0977 (  1336 PWs)   bands (ev):

   -35.5207  -2.6497   5.9164  13.7068  15.5570  19.6129  23.7913  25.5188

          k = 0.0812 0.0812 0.1953 (  1335 PWs)   bands (ev):

   -35.5191  -2.4766   4.6418  15.9940  16.9715  20.0754  22.4782  24.4332

          k = 0.0812 0.0812-0.2930 (  1342 PWs)   bands (ev):

   -35.5184  -2.3806   4.1320  16.2678  19.0804  21.3212  21.7150  22.6604

          k = 0.0812 0.1623 0.0000 (  1329 PWs)   bands (ev):

   -35.4982  -2.1340   7.4809  11.4682  13.7934  19.3815  23.5070  25.2941

          k = 0.0812 0.1623 0.0977 (  1335 PWs)   bands (ev):

   -35.4975  -2.0436   6.4261  12.5089  14.6198  19.4628  21.9874  25.3420

          k = 0.0812 0.1623 0.1953 (  1339 PWs)   bands (ev):

   -35.4961  -1.8431   5.0686  13.3693  17.2680  19.4453  20.6579  24.4492

          k = 0.0812 0.1623-0.2930 (  1334 PWs)   bands (ev):

   -35.4953  -1.7303   4.5302  13.6815  18.9062  18.9616  21.8376  23.0566

          k = 0.0812 0.2435 0.0000 (  1334 PWs)   bands (ev):

   -35.4675  -1.1530   8.5195   9.1699  13.8269  19.9382  20.0380  24.0280

          k = 0.0812 0.2435 0.0977 (  1337 PWs)   bands (ev):

   -35.4669  -1.0433   7.1446   9.9112  15.0946  18.7103  20.4699  24.9384

          k = 0.0812 0.2435 0.1953 (  1331 PWs)   bands (ev):

   -35.4657  -0.7957   5.7211  10.3956  16.5624  18.5941  21.0463  25.0626

          k = 0.0812 0.2435-0.2930 (  1334 PWs)   bands (ev):

   -35.4650  -0.6535   5.1575  10.5874  16.2463  19.6841  22.7417  24.1185

          k = 0.0812 0.3246 0.0000 (  1338 PWs)   bands (ev):

   -35.4393   0.1932   6.5909   9.9665  14.3866  16.9440  20.7592  22.6815

          k = 0.0812 0.3246 0.0977 (  1339 PWs)   bands (ev):

   -35.4388   0.3321   6.5258   9.0153  15.0051  17.1731  21.2752  23.6070

          k = 0.0812 0.3246 0.1953 (  1328 PWs)   bands (ev):

   -35.4376   0.6510   6.2132   7.9387  14.4161  19.6497  22.0521  25.3573

          k = 0.0812 0.3246-0.2930 (  1322 PWs)   bands (ev):

   -35.4370   0.8390   5.9166   7.6571  14.0581  20.8810  23.8095  25.5997

          k = 0.0812 0.4058 0.0000 (  1331 PWs)   bands (ev):

   -35.4224   1.8021   4.3249  11.7682  14.3137  14.8421  21.0906  22.6617

          k = 0.0812 0.4058 0.0977 (  1327 PWs)   bands (ev):

   -35.4219   2.0042   4.3711  10.0426  13.5538  17.4069  22.1236  22.9101

          k = 0.0812 0.4058 0.1953 (  1338 PWs)   bands (ev):

   -35.4210   2.4668   4.6131   7.7735  12.9538  20.7666  23.3106  24.8593

          k = 0.0812 0.4058-0.2930 (  1340 PWs)   bands (ev):

   -35.4205   2.7256   5.0352   6.5344  12.7203  22.2247  24.2035  25.6444

          k = 0.1623 0.1623 0.0000 (  1340 PWs)   bands (ev):

   -35.4756  -1.5389   8.1043  11.9654  12.2114  18.1653  24.3812  24.5911

          k = 0.1623 0.1623 0.0977 (  1329 PWs)   bands (ev):

   -35.4748  -1.4380   6.9532  12.4114  13.5967  18.3072  21.4305  23.5920

          k = 0.1623 0.1623 0.1953 (  1330 PWs)   bands (ev):

   -35.4734  -1.2120   5.5226  12.9008  15.8748  19.1951  19.3048  23.0575

          k = 0.1623 0.1623-0.2930 (  1330 PWs)   bands (ev):

   -35.4728  -1.0831   4.9571  13.2198  16.5362  18.2899  21.4047  22.2958

          k = 0.1623 0.2435 0.0000 (  1337 PWs)   bands (ev):

   -35.4458  -0.5568   9.1414   9.6796  12.9331  18.0258  20.6499  23.2328

          k = 0.1623 0.2435 0.0977 (  1335 PWs)   bands (ev):

   -35.4452  -0.4384   7.7191  10.2479  14.2894  17.8686  19.6412  23.1436

          k = 0.1623 0.2435 0.1953 (  1331 PWs)   bands (ev):

   -35.4440  -0.1688   6.2259  10.7239  16.0247  16.8982  20.1144  22.8294

          k = 0.1623 0.2435-0.2930 (  1330 PWs)   bands (ev):

   -35.4434  -0.0118   5.6331  10.9737  16.2456  16.4674  21.6457  22.9308

          k = 0.1623 0.3246 0.0000 (  1326 PWs)   bands (ev):

   -35.4182   0.7923   7.1307  10.5851  14.0587  17.5665  18.3489  21.7218

          k = 0.1623 0.3246 0.0977 (  1327 PWs)   bands (ev):

   -35.4177   0.9369   7.1085   9.4811  15.3443  16.2782  19.4538  22.6523

          k = 0.1623 0.3246 0.1953 (  1329 PWs)   bands (ev):

   -35.4167   1.2719   6.8107   8.4049  14.6722  17.1851  21.1972  22.9591

          k = 0.1623 0.3246-0.2930 (  1336 PWs)   bands (ev):

   -35.4163   1.4721   6.4632   8.2056  14.1778  17.5740  22.5563  22.7454

          k = 0.1623 0.4058 0.0000 (  1327 PWs)   bands (ev):

   -35.4019   2.4160   4.8666  12.3745  14.9509  15.0522  18.8512  20.1718

          k = 0.1623 0.4058 0.0977 (  1331 PWs)   bands (ev):

   -35.4015   2.6170   4.9347  10.6110  14.0216  17.1161  19.8435  20.8062

          k = 0.1623 0.4058 0.1953 (  1337 PWs)   bands (ev):

   -35.4006   3.0808   5.2125   8.3715  13.1509  18.7209  20.9634  22.6334

          k = 0.1623 0.4058-0.2930 (  1338 PWs)   bands (ev):

   -35.4001   3.3453   5.6341   7.1593  12.8253  19.1400  21.1195  23.2220

          k = 0.2435 0.2435 0.0000 (  1330 PWs)   bands (ev):

   -35.4171   0.4270   9.8201  10.1755  11.7314  17.5006  21.5334  21.8052

          k = 0.2435 0.2435 0.0977 (  1329 PWs)   bands (ev):

   -35.4166   0.5599   8.6209  10.0309  13.1550  17.9944  18.8887  21.3569

          k = 0.2435 0.2435 0.1953 (  1330 PWs)   bands (ev):

   -35.4155   0.8670   7.0246  10.5551  14.0838  16.5896  19.4147  21.8097

          k = 0.2435 0.2435-0.2930 (  1330 PWs)   bands (ev):

   -35.4150   1.0498   6.3930  10.9069  14.2433  15.6432  20.0718  22.3295

          k = 0.2435 0.3246 0.0000 (  1314 PWs)   bands (ev):

   -35.3905   1.7787   7.9150  11.6124  12.6020  17.6264  18.5963  19.6292

          k = 0.2435 0.3246 0.0977 (  1324 PWs)   bands (ev):

   -35.3901   1.9332   7.9946  10.0898  13.7492  16.6181  19.0311  20.0161

          k = 0.2435 0.3246 0.1953 (  1329 PWs)   bands (ev):

   -35.3892   2.2963   7.7914   9.0190  14.2560  15.0929  19.3991  20.9470

          k = 0.2435 0.3246-0.2930 (  1330 PWs)   bands (ev):

   -35.3888   2.5182   7.3475   9.0080  14.2168  14.5304  19.7926  20.3015

          k = 0.2435 0.4058 0.0000 (  1321 PWs)   bands (ev):

   -35.3749   3.4199   5.7367  13.3797  14.1931  16.0083  16.9321  18.0795

          k = 0.2435 0.4058 0.0977 (  1322 PWs)   bands (ev):

   -35.3745   3.6200   5.8431  11.4859  14.5695  15.2487  17.7409  19.6699

          k = 0.2435 0.4058 0.1953 (  1337 PWs)   bands (ev):

   -35.3737   4.0884   6.1848   9.3409  13.3673  15.8700  17.8737  20.6274

          k = 0.2435 0.4058-0.2930 (  1330 PWs)   bands (ev):

   -35.3732   4.3655   6.6008   8.1936  12.9453  16.0441  18.0417  19.9271

          k = 0.3246 0.3246 0.0000 (  1312 PWs)   bands (ev):

   -35.3649   3.1293   8.2235  11.2765  13.0366  16.8699  18.0616  20.0608

          k = 0.3246 0.3246 0.0977 (  1313 PWs)   bands (ev):

   -35.3645   3.2989   8.4413  10.4848  12.8830  16.7570  17.1671  19.4415

          k = 0.3246 0.3246 0.1953 (  1325 PWs)   bands (ev):

   -35.3639   3.7047   8.9888   9.1306  12.7005  14.8366  16.9018  18.9494

          k = 0.3246 0.3246-0.2930 (  1342 PWs)   bands (ev):

   -35.3635   3.9601   8.4959   9.3642  12.6087  13.8641  17.6551  17.7968

          k = 0.3246 0.4058 0.0000 (  1310 PWs)   bands (ev):

   -35.3498   4.7719   6.8118  12.0499  14.5196  14.7679  17.4660  18.5181

          k = 0.3246 0.4058 0.0977 (  1317 PWs)   bands (ev):

   -35.3494   4.9725   6.9779  11.8127  13.6659  14.2807  16.2263  19.3663

          k = 0.3246 0.4058 0.1953 (  1319 PWs)   bands (ev):

   -35.3486   5.4545   7.4247  10.5468  13.0162  13.8690  15.0710  17.9497

          k = 0.3246 0.4058-0.2930 (  1328 PWs)   bands (ev):

   -35.3482   5.7560   7.8238   9.6131  13.0246  13.2996  15.2727  16.9235

          k = 0.4058 0.4058 0.0000 (  1300 PWs)   bands (ev):

   -35.3349   6.3343   7.4251  10.4939  12.5738  16.4306  19.1686  19.1835

          k = 0.4058 0.4058 0.0977 (  1312 PWs)   bands (ev):

   -35.3345   6.5433   7.6463  10.6841  12.4256  14.8257  16.3026  17.6803

          k = 0.4058 0.4058 0.1953 (  1310 PWs)   bands (ev):

   -35.3336   7.0611   8.2057  11.0395  12.3961  12.8372  13.9577  15.7407

          k = 0.4058 0.4058-0.2930 (  1312 PWs)   bands (ev):

   -35.3332   7.4063   8.5936  11.2683  11.6611  12.9717  13.0187  14.5524

     the Fermi energy is    10.3312 ev

!    total energy              =     -22.83489476 Ry
     estimated scf accuracy    <          5.4E-11 Ry
     smearing contrib. (-TS)   =       0.00003052 Ry
     internal energy E=F+TS    =     -22.83492528 Ry

     The total energy is F=E-TS. E is the sum of the following terms:
     one-electron contribution =      -1.27172973 Ry
     hartree contribution      =       2.90811048 Ry
     xc contribution           =      -6.79130351 Ry
     ewald contribution        =     -17.68000252 Ry

     convergence has been achieved in   7 iterations

     Forces acting on atoms (cartesian axes, Ry/au):

     atom    1 type  1   force =     0.00000000    0.00000000    0.00000000
     atom    2 type  2   force =     0.00000000    0.00000000    0.00000000
     The non-local contrib.  to forces
     atom    1 type  1   force =     0.00000000    0.00000000    0.00000000
     atom    2 type  2   force =     0.00000000    0.00000000    0.00000000
     The ionic contribution  to forces
     atom    1 type  1   force =    -0.00000000   -0.00000000   -0.00000000
     atom    2 type  2   force =    -0.00000000   -0.00000000   -0.00000000
     The local contribution  to forces
     atom    1 type  1   force =     0.00000000    0.00000000   -0.00000000
     atom    2 type  2   force =    -0.00000000   -0.00000000    0.00000000
     The core correction contribution to forces
     atom    1 type  1   force =     0.00000000    0.00000000    0.00000000
     atom    2 type  2   force =     0.00000000    0.00000000    0.00000000
     The Hubbard contrib.    to forces
     atom    1 type  1   force =     0.00000000    0.00000000    0.00000000
     atom    2 type  2   force =     0.00000000    0.00000000    0.00000000
     The SCF correction term to forces
     atom    1 type  1   force =    -0.00000000    0.00000000   -0.00000000
     atom    2 type  2   force =    -0.00000000    0.00000000    0.00000000

     Total force =     0.000000     Total SCF correction =     0.000000


     Computing stress (Cartesian axis) and pressure

          total   stress  (Ry/bohr**3)                   (kbar)     P=      423.15
   0.00287450   0.00000000   0.00000000          422.85        0.00        0.00
   0.00000000   0.00287450   0.00000000            0.00      422.85        0.00
   0.00000000   0.00000000   0.00288057            0.00        0.00      423.75

     Energy error            =      1.7E-02 Ry
     Gradient error          =      0.0E+00 Ry/Bohr
     Cell gradient error     =      7.7E+01 kbar

     number of scf cycles    =   3
     number of bfgs steps    =   2

     enthalpy           old  =     -22.3701168304 Ry
     enthalpy           new  =     -22.3868925535 Ry

     CASE: enthalpy          _new < enthalpy          _old

     new trust radius        =       0.0408984672 bohr
ibrav =      6
 celldm(1) =      4.37525207
 celldm(3) =      1.51276674
Input lattice vectors:
     1.10814647     0.00000000     0.00000000
     0.00000000     1.10814647     0.00000000
     0.00000000     0.00000000     1.67636713
New lattice vectors in INITIAL alat:
     1.10814647     0.00000000     0.00000000
     0.00000000     1.10814647     0.00000000
     0.00000000     0.00000000     1.67636713
New lattice vectors in NEW alat (for information only):
     1.00000000     0.00000000     0.00000000
     0.00000000     1.00000000     0.00000000
     0.00000000     0.00000000     1.51276674
Discrepancy in bohr =     0.000000    0.000000    0.000000
     new conv_thr            =            1.0E-10 Ry

     new unit-cell volume =    126.70134 a.u.^3 (    18.77520 Ang^3 )
     density =      3.09786 g/cm^3

CELL_PARAMETERS (alat=  3.94826151)
   1.108146475   0.000000000   0.000000000
   0.000000000   1.108146475   0.000000000
   0.000000000   0.000000000   1.676367126

ATOMIC_POSITIONS (crystal)
Li            0.5000000000        0.5000000000        0.0000000000
Si            0.0000000000        0.0000000000        0.5000000000



     Writing config-only to output data dir ./output/LiSi.save/
     NEW-OLD atomic charge density approx. for the potential
     extrapolated charge    6.71814, renormalised to    7.00000

     total cpu time spent up to now is        9.3 secs

     Self-consistent Calculation

     iteration #  1     ecut=    80.00 Ry     beta= 0.70
     Davidson diagonalization with overlap
     ethr =  1.00E-06,  avg # of iterations =  5.6

     total cpu time spent up to now is        9.9 secs

     total energy              =     -22.81771605 Ry
     estimated scf accuracy    <       0.00028399 Ry

     iteration #  2     ecut=    80.00 Ry     beta= 0.70
     Davidson diagonalization with overlap
     ethr =  4.06E-06,  avg # of iterations =  3.2

     total cpu time spent up to now is       10.3 secs

     total energy              =     -22.81872642 Ry
     estimated scf accuracy    <       0.00019089 Ry

     iteration #  3     ecut=    80.00 Ry     beta= 0.70
     Davidson diagonalization with overlap
     ethr =  2.73E-06,  avg # of iterations =  1.0

     total cpu time spent up to now is       10.5 secs

     total energy              =     -22.81871488 Ry
     estimated scf accuracy    <       0.00004515 Ry

     iteration #  4     ecut=    80.00 Ry     beta= 0.70
     Davidson diagonalization with overlap
     ethr =  6.45E-07,  avg # of iterations =  1.0

     total cpu time spent up to now is       10.8 secs

     total energy              =     -22.81870813 Ry
     estimated scf accuracy    <       0.00001183 Ry

     iteration #  5     ecut=    80.00 Ry     beta= 0.70
     Davidson diagonalization with overlap
     ethr =  1.69E-07,  avg # of iterations =  2.0

     total cpu time spent up to now is       11.1 secs

     total energy              =     -22.81870965 Ry
     estimated scf accuracy    <       0.00000001 Ry

     iteration #  6     ecut=    80.00 Ry     beta= 0.70
     Davidson diagonalization with overlap
     ethr =  2.11E-10,  avg # of iterations =  3.3

     total cpu time spent up to now is       11.5 secs

     total energy              =     -22.81870967 Ry
     estimated scf accuracy    <          2.2E-09 Ry

     iteration #  7     ecut=    80.00 Ry     beta= 0.70
     Davidson diagonalization with overlap
     ethr =  3.14E-11,  avg # of iterations =  2.0

     total cpu time spent up to now is       11.7 secs

     End of self-consistent calculation

          k = 0.0000 0.0000 0.0000 (  1333 PWs)   bands (ev):

   -35.0670  -2.8617   6.9000  12.6789  19.1532  20.9029  20.9029  30.4760

          k = 0.0000 0.0000 0.0994 (  1332 PWs)   bands (ev):

   -35.0659  -2.7908   5.9922  14.3519  19.2798  21.1508  21.1508  28.7172

          k = 0.0000 0.0000 0.1988 (  1332 PWs)   bands (ev):

   -35.0636  -2.6361   4.7370  17.8766  19.5576  21.8194  21.8194  26.3987

          k = 0.0000 0.0000-0.2983 (  1348 PWs)   bands (ev):

   -35.0625  -2.5508   4.2339  19.7118  20.9490  22.3599  22.3599  24.8797

          k = 0.0000 0.0820 0.0000 (  1329 PWs)   bands (ev):

   -35.0573  -2.6600   7.1123  12.6045  16.8912  21.0912  22.9529  27.9137

          k = 0.0000 0.0820 0.0994 (  1340 PWs)   bands (ev):

   -35.0562  -2.5847   6.1672  14.2644  17.1007  21.3379  23.0723  26.0627

          k = 0.0000 0.0820 0.1988 (  1333 PWs)   bands (ev):

   -35.0540  -2.4197   4.8793  17.0299  18.2511  22.0016  23.3428  24.0432

          k = 0.0000 0.0820-0.2983 (  1332 PWs)   bands (ev):

   -35.0529  -2.3284   4.3647  17.5353  21.0623  22.5341  22.6902  23.7949

          k = 0.0000 0.1641 0.0000 (  1337 PWs)   bands (ev):

   -35.0310  -2.0578   7.7489  11.7452  14.8816  21.6557  24.0896  24.9614

          k = 0.0000 0.1641 0.0994 (  1338 PWs)   bands (ev):

   -35.0300  -1.9693   6.6741  12.8537  15.6987  21.8988  22.6149  24.9654

          k = 0.0000 0.1641 0.1988 (  1338 PWs)   bands (ev):

   -35.0280  -1.7734   5.2942  13.8808  18.3322  21.0008  22.5476  24.9573

          k = 0.0000 0.1641-0.2983 (  1330 PWs)   bands (ev):

   -35.0270  -1.6634   4.7486  14.2239  19.5385  21.6535  23.0573  25.1583

          k = 0.0000 0.2461 0.0000 (  1333 PWs)   bands (ev):

   -34.9963  -1.0642   8.8092   9.3931  14.6666  20.5393  22.5953  25.2054

          k = 0.0000 0.2461 0.0994 (  1335 PWs)   bands (ev):

   -34.9955  -0.9539   7.3660  10.2509  15.8412  19.6600  22.8323  26.1127

          k = 0.0000 0.2461 0.1988 (  1331 PWs)   bands (ev):

   -34.9938  -0.7054   5.9213  10.7730  16.9938  20.2425  23.4564  26.1034

          k = 0.0000 0.2461-0.2983 (  1318 PWs)   bands (ev):

   -34.9929  -0.5628   5.3508  10.9625  16.7340  22.6170  23.9308  26.4187

          k = 0.0000 0.3281 0.0000 (  1333 PWs)   bands (ev):

   -34.9643   0.2987   6.7822  10.2890  15.0408  17.3758  23.5815  23.9074

          k = 0.0000 0.3281 0.0994 (  1333 PWs)   bands (ev):

   -34.9636   0.4415   6.6927   9.3716  15.4012  18.0564  24.1358  24.8345

          k = 0.0000 0.3281 0.1988 (  1339 PWs)   bands (ev):

   -34.9623   0.7688   6.3574   8.2730  14.8411  21.0761  24.7261  26.7660

          k = 0.0000 0.3281-0.2983 (  1322 PWs)   bands (ev):

   -34.9615   0.9613   6.0729   7.9493  14.5220  23.8384  25.1558  26.8793

          k = 0.0000 0.4102 0.0000 (  1328 PWs)   bands (ev):

   -34.9453   1.9261   4.4884  12.1497  14.6683  15.3731  22.6628  25.5856

          k = 0.0000 0.4102 0.0994 (  1335 PWs)   bands (ev):

   -34.9446   2.1381   4.5264  10.3841  13.9053  18.1152  23.7000  25.8040

          k = 0.0000 0.4102 0.1988 (  1337 PWs)   bands (ev):

   -34.9434   2.6185   4.7766   8.0038  13.3939  21.9653  26.1105  26.3510

          k = 0.0000 0.4102-0.2983 (  1336 PWs)   bands (ev):

   -34.9428   2.8793   5.2759   6.6502  13.1968  24.9518  27.0741  27.6267

          k = 0.0820 0.0820 0.0000 (  1332 PWs)   bands (ev):

   -35.0476  -2.4582   7.3245  12.6114  15.9044  20.2468  24.7030  27.8446

          k = 0.0820 0.0820 0.0994 (  1336 PWs)   bands (ev):

   -35.0465  -2.3787   6.3438  14.3107  16.0982  20.4180  24.4826  26.3391

          k = 0.0820 0.0820 0.1988 (  1335 PWs)   bands (ev):

   -35.0444  -2.2036   5.0248  16.5647  17.6756  20.9285  23.1126  25.1668

          k = 0.0820 0.0820-0.2983 (  1342 PWs)   bands (ev):

   -35.0434  -2.1064   4.4990  16.8602  19.8433  22.2265  22.3149  23.4274

          k = 0.0820 0.1641 0.0000 (  1329 PWs)   bands (ev):

   -35.0215  -1.8557   7.9610  11.9387  14.3644  20.1895  24.2925  26.0839

          k = 0.0820 0.1641 0.0994 (  1335 PWs)   bands (ev):

   -35.0206  -1.7634   6.8562  13.0161  15.2336  20.2713  22.7057  26.1304

          k = 0.0820 0.1641 0.1988 (  1339 PWs)   bands (ev):

   -35.0187  -1.5582   5.4494  13.9191  17.9521  20.1374  21.4497  25.1805

          k = 0.0820 0.1641-0.2983 (  1334 PWs)   bands (ev):

   -35.0177  -1.4425   4.8933  14.2567  19.5266  19.6462  22.7536  23.7921

          k = 0.0820 0.2461 0.0000 (  1334 PWs)   bands (ev):

   -34.9872  -0.8617   9.0209   9.5839  14.4419  20.7335  20.7486  24.8989

          k = 0.0820 0.2461 0.0994 (  1337 PWs)   bands (ev):

   -34.9865  -0.7482   7.5635  10.3971  15.7342  19.3642  21.3052  25.8040

          k = 0.0820 0.2461 0.1988 (  1331 PWs)   bands (ev):

   -34.9849  -0.4917   6.0944  10.9136  17.1342  19.2950  21.9382  25.8213

          k = 0.0820 0.2461-0.2983 (  1334 PWs)   bands (ev):

   -34.9840  -0.3438   5.5131  11.1202  16.7748  20.4308  23.6633  24.8703

          k = 0.0820 0.3281 0.0000 (  1338 PWs)   bands (ev):

   -34.9557   0.5026   6.9717  10.4997  15.0255  17.5878  21.5164  23.5746

          k = 0.0820 0.3281 0.0994 (  1339 PWs)   bands (ev):

   -34.9550   0.6474   6.8954   9.5359  15.5885  17.8688  22.0978  24.4995

          k = 0.0820 0.3281 0.1988 (  1328 PWs)   bands (ev):

   -34.9536   0.9805   6.5617   8.4385  14.9415  20.4041  22.9579  26.2229

          k = 0.0820 0.3281-0.2983 (  1322 PWs)   bands (ev):

   -34.9529   1.1774   6.2601   8.1413  14.5690  21.6530  24.7084  26.3831

          k = 0.0820 0.4102 0.0000 (  1331 PWs)   bands (ev):

   -34.9369   2.1360   4.6740  12.3568  14.8847  15.4970  21.8304  23.5618

          k = 0.0820 0.4102 0.0994 (  1327 PWs)   bands (ev):

   -34.9362   2.3475   4.7199  10.5792  14.0736  18.1596  22.8878  23.8330

          k = 0.0820 0.4102 0.1988 (  1338 PWs)   bands (ev):

   -34.9350   2.8281   4.9828   8.2080  13.4649  21.5853  24.1864  25.7378

          k = 0.0820 0.4102-0.2983 (  1340 PWs)   bands (ev):

   -34.9344   3.0909   5.4816   6.8633  13.2311  23.0499  24.9747  26.7646

          k = 0.1641 0.1641 0.0000 (  1340 PWs)   bands (ev):

   -34.9963  -1.2524   8.5969  12.4525  12.6883  19.0381  25.1232  25.4211

          k = 0.1641 0.1641 0.0994 (  1329 PWs)   bands (ev):

   -34.9954  -1.1486   7.3884  12.9010  14.1555  19.1757  22.1012  24.4134

          k = 0.1641 0.1641 0.1988 (  1330 PWs)   bands (ev):

   -34.9936  -0.9154   5.9041  13.4260  16.5341  19.7681  20.1413  23.8626

          k = 0.1641 0.1641-0.2983 (  1330 PWs)   bands (ev):

   -34.9927  -0.7821   5.3189  13.7735  17.2498  18.8134  22.0923  23.2151

          k = 0.1641 0.2461 0.0000 (  1337 PWs)   bands (ev):

   -34.9631  -0.2568   9.6555  10.1061  13.4470  18.8915  21.3741  24.0661

          k = 0.1641 0.2461 0.0994 (  1335 PWs)   bands (ev):

   -34.9623  -0.1340   8.1493  10.7265  14.8570  18.6215  20.4094  23.9507

          k = 0.1641 0.2461 0.1988 (  1331 PWs)   bands (ev):

   -34.9608   0.1467   6.6050  11.2341  16.6814  17.4491  20.9277  23.6521

          k = 0.1641 0.2461-0.2983 (  1330 PWs)   bands (ev):

   -34.9600   0.3108   5.9920  11.5061  16.7472  17.1615  22.3173  23.8260

          k = 0.1641 0.3281 0.0000 (  1326 PWs)   bands (ev):

   -34.9323   1.1108   7.5215  11.1313  14.6170  18.2226  19.1528  22.5184

          k = 0.1641 0.3281 0.0994 (  1327 PWs)   bands (ev):

   -34.9317   1.2618   7.4914   9.9979  15.9339  16.8770  20.3354  23.4583

          k = 0.1641 0.3281 0.1988 (  1329 PWs)   bands (ev):

   -34.9304   1.6125   7.1713   8.9050  15.1859  17.8625  22.0325  23.7609

          k = 0.1641 0.3281-0.2983 (  1336 PWs)   bands (ev):

   -34.9298   1.8231   6.8152   8.6979  14.6676  18.2805  23.2370  23.5434

          k = 0.1641 0.4102 0.0000 (  1327 PWs)   bands (ev):

   -34.9141   2.7601   5.2243  12.9769  15.5334  15.6695  19.5023  20.9710

          k = 0.1641 0.4102 0.0994 (  1331 PWs)   bands (ev):

   -34.9136   2.9704   5.2941  11.1523  14.5437  17.7952  20.5808  21.5968

          k = 0.1641 0.4102 0.1988 (  1337 PWs)   bands (ev):

   -34.9124   3.4525   5.5955   8.8143  13.6470  19.4529  21.6407  23.5722

          k = 0.1641 0.4102-0.2983 (  1338 PWs)   bands (ev):

   -34.9118   3.7223   6.0912   7.5008  13.3155  19.8899  21.8401  23.9568

          k = 0.2461 0.2461 0.0000 (  1330 PWs)   bands (ev):

   -34.9312   0.7409  10.2538  10.7113  12.1929  18.3868  22.3305  22.4904

          k = 0.2461 0.2461 0.0994 (  1329 PWs)   bands (ev):

   -34.9305   0.8795   9.0651  10.4780  13.7287  18.8188  19.5107  22.1628

          k = 0.2461 0.2461 0.1988 (  1330 PWs)   bands (ev):

   -34.9292   1.2010   7.4106  11.0411  14.7343  17.1091  20.0986  22.7076

          k = 0.2461 0.2461-0.2983 (  1330 PWs)   bands (ev):

   -34.9285   1.3934   6.7558  11.4259  14.9061  16.1081  20.7339  23.1301

          k = 0.2461 0.3281 0.0000 (  1314 PWs)   bands (ev):

   -34.9016   2.1118   8.3191  12.1810  13.0912  18.4644  19.2734  20.2823

          k = 0.2461 0.3281 0.0994 (  1324 PWs)   bands (ev):

   -34.9011   2.2734   8.3994  10.5799  14.3446  17.2045  19.8243  20.7391

          k = 0.2461 0.3281 0.1988 (  1329 PWs)   bands (ev):

   -34.9000   2.6548   8.1722   9.5078  14.8565  15.6338  20.0205  21.7230

          k = 0.2461 0.3281-0.2983 (  1330 PWs)   bands (ev):

   -34.8994   2.8894   7.7127   9.5083  14.6722  15.1789  20.4330  21.0421

          k = 0.2461 0.4102 0.0000 (  1321 PWs)   bands (ev):

   -34.8842   3.7796   6.1080  14.0056  14.7404  16.6104  17.4600  18.9341

          k = 0.2461 0.4102 0.0994 (  1322 PWs)   bands (ev):

   -34.8837   3.9888   6.2198  12.0241  15.0835  15.8885  18.3297  20.5587

          k = 0.2461 0.4102 0.1988 (  1337 PWs)   bands (ev):

   -34.8826   4.4768   6.5894   9.7936  13.8360  16.5484  18.5009  21.3548

          k = 0.2461 0.4102-0.2983 (  1330 PWs)   bands (ev):

   -34.8821   4.7623   7.0726   8.5558  13.4041  16.7041  18.7498  20.5518

          k = 0.3281 0.3281 0.0000 (  1312 PWs)   bands (ev):

   -34.8732   3.4818   8.6281  11.7664  13.6387  17.4244  18.9200  20.7078

          k = 0.3281 0.3281 0.0994 (  1313 PWs)   bands (ev):

   -34.8728   3.6595   8.8596  10.9306  13.5286  17.3067  17.7548  20.2584

          k = 0.3281 0.3281 0.1988 (  1325 PWs)   bands (ev):

   -34.8718   4.0869   9.4480   9.5326  13.3339  15.3200  17.4837  19.6796

          k = 0.3281 0.3281-0.2983 (  1342 PWs)   bands (ev):

   -34.8713   4.3582   8.8760   9.8597  13.2217  14.2896  18.3622  18.3956

          k = 0.3281 0.4102 0.0000 (  1310 PWs)   bands (ev):

   -34.8564   5.1497   7.1987  12.5872  15.0074  15.4291  18.0967  19.3382

          k = 0.3281 0.4102 0.0994 (  1317 PWs)   bands (ev):

   -34.8560   5.3597   7.3750  12.3103  14.3288  14.7696  16.8133  20.1472

          k = 0.3281 0.4102 0.1988 (  1319 PWs)   bands (ev):

   -34.8549   5.8647   7.8563  10.9969  13.5314  14.4511  15.6392  18.6163

          k = 0.3281 0.4102-0.2983 (  1328 PWs)   bands (ev):

   -34.8544   6.1806   8.3079  10.0036  13.4502  13.8784  15.9757  17.4762

          k = 0.4102 0.4102 0.0000 (  1300 PWs)   bands (ev):

   -34.8399   6.7263   7.8151  11.0606  13.0049  17.1563  19.8111  19.8809

          k = 0.4102 0.4102 0.0994 (  1312 PWs)   bands (ev):

   -34.8394   6.9463   8.0503  11.2446  12.8574  15.4728  16.8730  18.4098

          k = 0.4102 0.4102 0.1988 (  1310 PWs)   bands (ev):

   -34.8384   7.4944   8.6515  11.5291  12.8563  13.4648  14.4231  16.3807

          k = 0.4102 0.4102-0.2983 (  1312 PWs)   bands (ev):

   -34.8379   7.8637   9.0775  11.6904  12.1322  13.3776  13.7731  15.0512

     the Fermi energy is    10.8331 ev

!    total energy              =     -22.81870967 Ry
     estimated scf accuracy    <          2.4E-11 Ry
     smearing contrib. (-TS)   =       0.00000121 Ry
     internal energy E=F+TS    =     -22.81871088 Ry

     The total energy is F=E-TS. E is the sum of the following terms:
     one-electron contribution =      -0.95363117 Ry
     hartree contribution      =       2.87942851 Ry
     xc contribution           =      -6.82833713 Ry
     ewald contribution        =     -17.91617108 Ry

     convergence has been achieved in   7 iterations

     Forces acting on atoms (cartesian axes, Ry/au):

     atom    1 type  1   force =     0.00000000    0.00000000    0.00000000
     atom    2 type  2   force =     0.00000000    0.00000000    0.00000000
     The non-local contrib.  to forces
[...]
        k(   76) = (   0.3276109   0.3276109  -0.2977606), wk =   0.0110193
        k(   77) = (   0.3276109   0.4095136   0.0000000), wk =   0.0220386
        k(   78) = (   0.3276109   0.4095136   0.0992535), wk =   0.0440771
        k(   79) = (   0.3276109   0.4095136   0.1985070), wk =   0.0440771
        k(   80) = (   0.3276109   0.4095136  -0.2977606), wk =   0.0220386
        k(   81) = (   0.4095136   0.4095136   0.0000000), wk =   0.0110193
        k(   82) = (   0.4095136   0.4095136   0.0992535), wk =   0.0220386
        k(   83) = (   0.4095136   0.4095136   0.1985070), wk =   0.0220386
        k(   84) = (   0.4095136   0.4095136  -0.2977606), wk =   0.0110193

     Dense  grid:    12293 G-vectors     FFT dimensions: (  25,  25,  40)

     Estimated max dynamical RAM per process >      14.59 MB

     Estimated total dynamical RAM >     116.70 MB

     Initial potential from superposition of free atoms

     starting charge       6.9948, renormalised to       7.0000
     Starting wfcs are    6 randomized atomic wfcs +    2 random wfcs

     total cpu time spent up to now is       17.1 secs

     Self-consistent Calculation

     iteration #  1     ecut=    80.00 Ry     beta= 0.70
     Davidson diagonalization with overlap
     c_bands:  1 eigenvalues not converged
     c_bands:  1 eigenvalues not converged
     c_bands:  1 eigenvalues not converged
     c_bands:  1 eigenvalues not converged
     c_bands:  1 eigenvalues not converged
     c_bands:  1 eigenvalues not converged
     c_bands:  1 eigenvalues not converged
     c_bands:  1 eigenvalues not converged
     c_bands:  1 eigenvalues not converged
     c_bands:  1 eigenvalues not converged
     c_bands:  1 eigenvalues not converged
     c_bands:  1 eigenvalues not converged
     c_bands:  1 eigenvalues not converged
     c_bands:  1 eigenvalues not converged
     c_bands:  1 eigenvalues not converged
     c_bands:  2 eigenvalues not converged
     ethr =  1.00E-06,  avg # of iterations = 16.3

     total cpu time spent up to now is       18.1 secs

     total energy              =     -22.82099465 Ry
     estimated scf accuracy    <       0.00674541 Ry

     iteration #  2     ecut=    80.00 Ry     beta= 0.70
     Davidson diagonalization with overlap
     ethr =  9.64E-05,  avg # of iterations =  1.0

     total cpu time spent up to now is       18.3 secs

     total energy              =     -22.82099185 Ry
     estimated scf accuracy    <       0.00052650 Ry

     iteration #  3     ecut=    80.00 Ry     beta= 0.70
     Davidson diagonalization with overlap
     ethr =  7.52E-06,  avg # of iterations =  1.2

     total cpu time spent up to now is       18.6 secs

     total energy              =     -22.82100445 Ry
     estimated scf accuracy    <       0.00000505 Ry

     iteration #  4     ecut=    80.00 Ry     beta= 0.70
     Davidson diagonalization with overlap
     ethr =  7.21E-08,  avg # of iterations =  2.0

     total cpu time spent up to now is       18.9 secs

     total energy              =     -22.82100541 Ry
     estimated scf accuracy    <       0.00000039 Ry

     iteration #  5     ecut=    80.00 Ry     beta= 0.70
     Davidson diagonalization with overlap
     ethr =  5.59E-09,  avg # of iterations =  1.3

     total cpu time spent up to now is       19.1 secs

     total energy              =     -22.82100546 Ry
     estimated scf accuracy    <          2.6E-09 Ry

     iteration #  6     ecut=    80.00 Ry     beta= 0.70
     Davidson diagonalization with overlap
     ethr =  3.69E-11,  avg # of iterations =  2.7

     total cpu time spent up to now is       19.4 secs

     End of self-consistent calculation

          k = 0.0000 0.0000 0.0000 (  1539 PWs)   bands (ev):

   -35.1234  -2.8927   6.8518  12.6135  19.0806  20.7969  20.7969  30.3175

          k = 0.0000 0.0000 0.0993 (  1527 PWs)   bands (ev):

   -35.1223  -2.8214   5.9448  14.2828  19.2068  21.0433  21.0433  28.6020

          k = 0.0000 0.0000 0.1985 (  1535 PWs)   bands (ev):

   -35.1201  -2.6656   4.6905  17.7987  19.4837  21.7071  21.7071  26.2925

          k = 0.0000 0.0000-0.2978 (  1538 PWs)   bands (ev):

   -35.1190  -2.5797   4.1877  19.6373  20.8662  22.2414  22.2414  24.7697

          k = 0.0000 0.0819 0.0000 (  1539 PWs)   bands (ev):

   -35.1138  -2.6916   7.0634  12.5406  16.8121  20.9847  22.8499  27.8017

          k = 0.0000 0.0819 0.0993 (  1532 PWs)   bands (ev):

   -35.1127  -2.6159   6.1195  14.1967  17.0208  21.2300  22.9689  25.9563

          k = 0.0000 0.0819 0.1985 (  1533 PWs)   bands (ev):

   -35.1106  -2.4499   4.8328  16.9516  18.1715  21.8888  23.2403  23.9422

          k = 0.0000 0.0819-0.2978 (  1538 PWs)   bands (ev):

   -35.1095  -2.3580   4.3185  17.4534  20.9794  22.4153  22.6016  23.6842

          k = 0.0000 0.1638 0.0000 (  1533 PWs)   bands (ev):

   -35.0879  -2.0908   7.6981  11.6862  14.8023  21.5478  23.9902  24.8490

          k = 0.0000 0.1638 0.0993 (  1542 PWs)   bands (ev):

   -35.0869  -2.0021   6.6254  12.7882  15.6207  21.7895  22.5207  24.8525

          k = 0.0000 0.1638 0.1985 (  1531 PWs)   bands (ev):

   -35.0850  -1.8055   5.2476  13.8064  18.2544  20.9123  22.4335  24.8447

          k = 0.0000 0.1638-0.2978 (  1536 PWs)   bands (ev):

   -35.0840  -1.6951   4.7025  14.1466  19.4598  21.5688  22.9374  25.0451

          k = 0.0000 0.2457 0.0000 (  1546 PWs)   bands (ev):

   -35.0538  -1.0998   8.7550   9.3377  14.5892  20.4514  22.4851  25.0964

          k = 0.0000 0.2457 0.0993 (  1547 PWs)   bands (ev):

   -35.0530  -0.9894   7.3171  10.1873  15.7663  19.5727  22.7206  25.9973

          k = 0.0000 0.2457 0.1985 (  1532 PWs)   bands (ev):

   -35.0514  -0.7407   5.8748  10.7046  16.9221  20.1526  23.3401  25.9865

          k = 0.0000 0.2457-0.2978 (  1530 PWs)   bands (ev):

   -35.0506  -0.5979   5.3050  10.8926  16.6621  22.5290  23.8093  26.1654

          k = 0.0000 0.3276 0.0000 (  1550 PWs)   bands (ev):

   -35.0224   0.2597   6.7317  10.2298  14.9643  17.2983  23.4751  23.7940

          k = 0.0000 0.3276 0.0993 (  1547 PWs)   bands (ev):

   -35.0217   0.4024   6.6444   9.3096  15.3334  17.9693  24.0209  24.7253

          k = 0.0000 0.3276 0.1985 (  1543 PWs)   bands (ev):

   -35.0203   0.7293   6.3123   8.2095  14.7740  20.9830  24.6065  26.6498

          k = 0.0000 0.3276-0.2978 (  1552 PWs)   bands (ev):

   -35.0197   0.9218   6.0277   7.8872  14.4543  23.7462  25.0314  26.7476

          k = 0.0000 0.4095 0.0000 (  1562 PWs)   bands (ev):

   -35.0036   1.8820   4.4441  12.0823  14.6018  15.2971  22.5573  25.4688

          k = 0.0000 0.4095 0.0993 (  1552 PWs)   bands (ev):

   -35.0030   2.0935   4.4822  10.3194  13.8439  18.0282  23.5934  25.6853

          k = 0.0000 0.4095 0.1985 (  1530 PWs)   bands (ev):

   -35.0018   2.5738   4.7296   7.9485  13.3294  21.8684  25.9981  26.2260

          k = 0.0000 0.4095-0.2978 (  1532 PWs)   bands (ev):

   -35.0012   2.8357   5.2196   6.6059  13.1306  24.8558  26.5928  26.9398

          k = 0.0819 0.0819 0.0000 (  1533 PWs)   bands (ev):

   -35.1043  -2.4903   7.2750  12.5482  15.8294  20.1357  24.6005  27.7276

          k = 0.0819 0.0819 0.0993 (  1541 PWs)   bands (ev):

   -35.1032  -2.4104   6.2957  14.2434  16.0224  20.3060  24.3853  26.2267

          k = 0.0819 0.0819 0.1985 (  1540 PWs)   bands (ev):

   -35.1012  -2.2345   4.9782  16.4867  17.5979  20.8154  23.0229  25.0665

          k = 0.0819 0.0819-0.2978 (  1540 PWs)   bands (ev):

   -35.1001  -2.1367   4.4528  16.7808  19.7458  22.1256  22.2278  23.3356

          k = 0.0819 0.1638 0.0000 (  1542 PWs)   bands (ev):

   -35.0787  -1.8893   7.9095  11.8791  14.2903  20.0774  24.1923  25.9805

          k = 0.0819 0.1638 0.0993 (  1541 PWs)   bands (ev):

   -35.0777  -1.7968   6.8071  12.9497  15.1604  20.1605  22.6112  26.0240

          k = 0.0819 0.1638 0.1985 (  1538 PWs)   bands (ev):

   -35.0759  -1.5909   5.4026  13.8451  17.8738  20.0440  21.3470  25.0796

          k = 0.0819 0.1638-0.2978 (  1530 PWs)   bands (ev):

   -35.0749  -1.4749   4.8471  14.1802  19.4482  19.5485  22.6546  23.6996

          k = 0.0819 0.2457 0.0000 (  1539 PWs)   bands (ev):

   -35.0450  -0.8977   8.9660   9.5278  14.3682  20.6228  20.6601  24.7916

          k = 0.0819 0.2457 0.0993 (  1541 PWs)   bands (ev):

   -35.0442  -0.7842   7.5140  10.3332  15.6612  19.2777  21.1929  25.6961

          k = 0.0819 0.2457 0.1985 (  1542 PWs)   bands (ev):

   -35.0426  -0.5276   6.0476  10.8451  17.0621  19.2072  21.8265  25.7169

          k = 0.0819 0.2457-0.2978 (  1528 PWs)   bands (ev):

   -35.0418  -0.3795   5.4671  11.0501  16.7032  20.3315  23.5628  24.7745

          k = 0.0819 0.3276 0.0000 (  1539 PWs)   bands (ev):

   -35.0139   0.4631   6.9206  10.4399  14.9507  17.5097  21.4111  23.4631

          k = 0.0819 0.3276 0.0993 (  1541 PWs)   bands (ev):

   -35.0132   0.6077   6.8464   9.4737  15.5203  17.7844  21.9849  24.3921

          k = 0.0819 0.3276 0.1985 (  1538 PWs)   bands (ev):

   -35.0119   0.9404   6.5160   8.3748  14.8742  20.3129  22.8434  26.1132

          k = 0.0819 0.3276-0.2978 (  1542 PWs)   bands (ev):

   -35.0112   1.1373   6.2145   8.0787  14.5017  21.5500  24.6068  26.2825

          k = 0.0819 0.4095 0.0000 (  1541 PWs)   bands (ev):

   -34.9953   2.0913   4.6292  12.2887  14.8177  15.4214  21.7358  23.4374

          k = 0.0819 0.4095 0.0993 (  1550 PWs)   bands (ev):

   -34.9947   2.3023   4.6751  10.5141  14.0117  18.0734  22.7899  23.7107

          k = 0.0819 0.4095 0.1985 (  1536 PWs)   bands (ev):

   -34.9935   2.7828   4.9351   8.1522  13.4006  21.4886  24.0728  25.6215

          k = 0.0819 0.4095-0.2978 (  1534 PWs)   bands (ev):

   -34.9929   3.0467   5.4248   6.8183  13.1655  22.9411  24.8748  26.6336

          k = 0.1638 0.1638 0.0000 (  1543 PWs)   bands (ev):

   -35.0538  -1.2875   8.5435  12.3932  12.6210  18.9231  24.6126  25.0294

          k = 0.1638 0.1638 0.0993 (  1549 PWs)   bands (ev):

   -35.0529  -1.1836   7.3381  12.8326  14.0892  19.0640  22.0132  24.3052

          k = 0.1638 0.1638 0.1985 (  1535 PWs)   bands (ev):

   -35.0512  -0.9500   5.8567  13.3547  16.4494  19.6887  20.0439  23.7563

          k = 0.1638 0.1638-0.2978 (  1528 PWs)   bands (ev):

   -35.0504  -0.8165   5.2724  13.7000  17.1537  18.7382  22.0049  23.1180

          k = 0.1638 0.2457 0.0000 (  1536 PWs)   bands (ev):

   -35.0211  -0.2944   9.5987  10.0476  13.3821  18.7791  21.2835  23.9637

          k = 0.1638 0.2457 0.0993 (  1539 PWs)   bands (ev):

   -35.0204  -0.1716   8.0981  10.6623  14.7871  18.5262  20.3110  23.8461

          k = 0.1638 0.2457 0.1985 (  1542 PWs)   bands (ev):

   -35.0189   0.1090   6.5571  11.1661  16.5944  17.3759  20.8332  23.5437

          k = 0.1638 0.2457-0.2978 (  1534 PWs)   bands (ev):

   -35.0182   0.2731   5.9451  11.4360  16.6774  17.0679  22.2279  23.7279

          k = 0.1638 0.3276 0.0000 (  1542 PWs)   bands (ev):

   -34.9909   1.0697   7.4686  11.0695  14.5480  18.1426  19.0475  22.4158

          k = 0.1638 0.3276 0.0993 (  1538 PWs)   bands (ev):

   -34.9903   1.2204   7.4402   9.9355  15.8636  16.7977  20.2253  23.3576

          k = 0.1638 0.3276 0.1985 (  1537 PWs)   bands (ev):

   -34.9890   1.5707   7.1238   8.8407  15.1185  17.7720  21.9358  23.6536

          k = 0.1638 0.3276-0.2978 (  1528 PWs)   bands (ev):

   -34.9884   1.7810   6.7682   8.6340  14.6017  18.1850  23.1418  23.4431

          k = 0.1638 0.4095 0.0000 (  1543 PWs)   bands (ev):

   -34.9729   2.7138   5.1777  12.9067  15.4645  15.5957  19.4157  20.8592

          k = 0.1638 0.4095 0.0993 (  1539 PWs)   bands (ev):

   -34.9724   2.9236   5.2474  11.0862  14.4804  17.7108  20.4883  21.4867

          k = 0.1638 0.4095 0.1985 (  1536 PWs)   bands (ev):

   -34.9712   3.4055   5.5458   8.7571  13.5834  19.3548  21.5498  23.4555

          k = 0.1638 0.4095-0.2978 (  1540 PWs)   bands (ev):

   -34.9707   3.6763   6.0327   7.4539  13.2513  19.7890  21.7421  23.8535

          k = 0.2457 0.2457 0.0000 (  1535 PWs)   bands (ev):

   -34.9897   0.7008  10.1929  10.6510  12.1328  18.2765  22.2288  22.4053

          k = 0.2457 0.2457 0.0993 (  1534 PWs)   bands (ev):

   -34.9891   0.8392   9.0117  10.4160  13.6553  18.7203  19.4306  22.0564

          k = 0.2457 0.2457 0.1985 (  1541 PWs)   bands (ev):

   -34.9878   1.1603   7.3612  10.9757  14.6477  17.0381  20.0155  22.5968

          k = 0.2457 0.2457-0.2978 (  1540 PWs)   bands (ev):

   -34.9871   1.3524   6.7078  11.3577  14.8170  16.0420  20.6451  23.0300

          k = 0.2457 0.3276 0.0000 (  1539 PWs)   bands (ev):

   -34.9608   2.0682   8.2635  12.1156  13.0256  18.3624  19.1901  20.1888

          k = 0.2457 0.3276 0.0993 (  1528 PWs)   bands (ev):

   -34.9602   2.2295   8.3444  10.5194  14.2661  17.1311  19.7306  20.6373

          k = 0.2457 0.3276 0.1985 (  1538 PWs)   bands (ev):

   -34.9591   2.6101   8.1217   9.4440  14.7756  15.5617  19.9362  21.6200

          k = 0.2457 0.3276-0.2978 (  1538 PWs)   bands (ev):

   -34.9585   2.8442   7.6633   9.4431  14.6090  15.0919  20.3438  20.9423

          k = 0.2457 0.4095 0.0000 (  1539 PWs)   bands (ev):

   -34.9435   3.7309   6.0586  13.9316  14.6665  16.5385  17.3890  18.8245

          k = 0.2457 0.4095 0.0993 (  1534 PWs)   bands (ev):

   -34.9430   3.9396   6.1699  11.9573  15.0180  15.8025  18.2502  20.4514

          k = 0.2457 0.4095 0.1985 (  1536 PWs)   bands (ev):

   -34.9419   4.4272   6.5364   9.7345  13.7740  16.4569  18.4145  21.2563

          k = 0.2457 0.4095-0.2978 (  1532 PWs)   bands (ev):

   -34.9414   4.7132   7.0119   8.5057  13.3424  16.6160  18.6526  20.4622

          k = 0.3276 0.3276 0.0000 (  1533 PWs)   bands (ev):

   -34.9329   3.4348   8.5715  11.6999  13.5681  17.3466  18.8154  20.6252

          k = 0.3276 0.3276 0.0993 (  1538 PWs)   bands (ev):

   -34.9324   3.6121   8.8018  10.8725  13.4461  17.2300  17.6801  20.1611

          k = 0.3276 0.3276 0.1985 (  1549 PWs)   bands (ev):

   -34.9314   4.0383   9.3866   9.4792  13.2501  15.2548  17.4021  19.5819

          k = 0.3276 0.3276-0.2978 (  1536 PWs)   bands (ev):

   -34.9309   4.3089   8.8239   9.7951  13.1403  14.2295  18.2658  18.3115

          k = 0.3276 0.4095 0.0000 (  1537 PWs)   bands (ev):

   -34.9163   5.0981   7.1458  12.5121  14.9404  15.3496  18.0203  19.2394

          k = 0.3276 0.4095 0.0993 (  1544 PWs)   bands (ev):

   -34.9159   5.3076   7.3212  12.2430  14.2441  14.7015  16.7396  20.0481

          k = 0.3276 0.4095 0.1985 (  1536 PWs)   bands (ev):

   -34.9149   5.8115   7.7991  10.9369  13.4634  14.3718  15.5612  18.5252

          k = 0.3276 0.4095-0.2978 (  1540 PWs)   bands (ev):

   -34.9144   6.1272   8.2452   9.9491  13.3912  13.8024  15.8792  17.3969

          k = 0.4095 0.4095 0.0000 (  1540 PWs)   bands (ev):

   -34.9002   6.6721   7.7606  10.9800  12.9487  17.0671  19.7353  19.7927

          k = 0.4095 0.4095 0.0993 (  1540 PWs)   bands (ev):

   -34.8997   6.8913   7.9946  11.1660  12.7998  15.3912  16.8011  18.3152

          k = 0.4095 0.4095 0.1985 (  1545 PWs)   bands (ev):

   -34.8988   7.4373   8.5921  11.4632  12.7939  13.3802  14.3607  16.2934

          k = 0.4095 0.4095-0.2978 (  1548 PWs)   bands (ev):

   -34.8983   7.8051   9.0147  11.6309  12.0720  13.3205  13.6694  14.9798

     the Fermi energy is    10.7685 ev

!    total energy              =     -22.82100546 Ry
     estimated scf accuracy    <          3.0E-11 Ry
     smearing contrib. (-TS)   =      -0.00000416 Ry
     internal energy E=F+TS    =     -22.82100130 Ry

     The total energy is F=E-TS. E is the sum of the following terms:
     one-electron contribution =      -0.99436362 Ry
     hartree contribution      =       2.88351529 Ry
     xc contribution           =      -6.82363441 Ry
     ewald contribution        =     -17.88651856 Ry

     convergence has been achieved in   6 iterations

     Forces acting on atoms (cartesian axes, Ry/au):

     atom    1 type  1   force =     0.00000000    0.00000000    0.00000000
     atom    2 type  2   force =     0.00000000    0.00000000    0.00000000
     The non-local contrib.  to forces
     atom    1 type  1   force =     0.00000000    0.00000000    0.00000000
     atom    2 type  2   force =     0.00000000    0.00000000    0.00000000
     The ionic contribution  to forces
     atom    1 type  1   force =     0.00000000    0.00000000   -0.00000000
     atom    2 type  2   force =    -0.00000000   -0.00000000    0.00000000
     The local contribution  to forces
     atom    1 type  1   force =     0.00000000    0.00000000   -0.00000000
     atom    2 type  2   force =     0.00000000    0.00000000    0.00000000
     The core correction contribution to forces
     atom    1 type  1   force =     0.00000000    0.00000000    0.00000000
     atom    2 type  2   force =    -0.00000000    0.00000000   -0.00000000
     The Hubbard contrib.    to forces
     atom    1 type  1   force =     0.00000000    0.00000000    0.00000000
     atom    2 type  2   force =     0.00000000    0.00000000    0.00000000
     The SCF correction term to forces
     atom    1 type  1   force =    -0.00000000   -0.00000000   -0.00000000
     atom    2 type  2   force =     0.00000000    0.00000000    0.00000000

     Total force =     0.000000     Total SCF correction =     0.000000


     Computing stress (Cartesian axis) and pressure

          total   stress  (Ry/bohr**3)                   (kbar)     P=      501.82
   0.00341784   0.00000000   0.00000000          502.78        0.00        0.00
   0.00000000   0.00341784   0.00000000            0.00      502.78        0.00
   0.00000000   0.00000000   0.00339813            0.00        0.00      499.88


     Writing all to output data dir ./output/LiSi.save/

     init_run     :      0.60s CPU      0.62s WALL (       2 calls)
     electrons    :     12.13s CPU     15.72s WALL (       7 calls)
     update_pot   :      0.58s CPU      0.60s WALL (       5 calls)
     forces       :      0.53s CPU      0.56s WALL (       7 calls)
     stress       :      1.91s CPU      1.98s WALL (       7 calls)

     Called by init_run:
     wfcinit      :      0.15s CPU      0.15s WALL (       2 calls)
     potinit      :      0.10s CPU      0.10s WALL (       2 calls)
     hinit0       :      0.34s CPU      0.35s WALL (       2 calls)

     Called by electrons:
     c_bands      :     10.55s CPU     14.00s WALL (      46 calls)
     sum_band     :      1.46s CPU      1.53s WALL (      46 calls)
     v_of_rho     :      0.10s CPU      0.10s WALL (      50 calls)
     mix_rho      :      0.01s CPU      0.01s WALL (      46 calls)

     Called by c_bands:
     init_us_2    :      0.36s CPU      0.40s WALL (    9072 calls)
     init_us_2:cp :      0.35s CPU      0.39s WALL (    9072 calls)
     cegterg      :      9.67s CPU     10.61s WALL (    3864 calls)

     Called by *egterg:
     cdiaghg      :      1.17s CPU      1.23s WALL (   14142 calls)
     h_psi        :      7.55s CPU      8.36s WALL (   14982 calls)
     g_psi        :      0.04s CPU      0.05s WALL (   10950 calls)

     Called by h_psi:
     h_psi:calbec :      0.45s CPU      0.49s WALL (   14982 calls)
     vloc_psi     :      6.80s CPU      7.53s WALL (   14982 calls)
     add_vuspsi   :      0.24s CPU      0.26s WALL (   14982 calls)

     General routines
     calbec       :      0.63s CPU      0.70s WALL (   17922 calls)
     fft          :      0.29s CPU      0.30s WALL (     676 calls)
     ffts         :      0.00s CPU      0.00s WALL (      46 calls)
     fftw         :      7.07s CPU      7.76s WALL (  206528 calls)

     Parallel routines

     PWSCF        :     16.03s CPU     20.13s WALL


   This run was terminated on:  22: 5:55  11Feb2025            

=------------------------------------------------------------------------------=
   JOB DONE.
=------------------------------------------------------------------------------=
