
     Program PWSCF v.7.2 starts on 28Nov2024 at 16:24:31 

     This program is part of the open-source Quantum ESPRESSO suite
     for quantum simulation of materials; please cite
         "P. Giannozzi et al., J. Phys.:Condens. Matter 21 395502 (2009);
         "P. Giannozzi et al., J. Phys.:Condens. Matter 29 465901 (2017);
         "P. Giannozzi et al., J. Chem. Phys. 152 154105 (2020);
          URL http://www.quantum-espresso.org", 
     in publications or presentations arising from this work. More details at
     http://www.quantum-espresso.org/quote

     Parallel version (MPI & OpenMP), running on       8 processor cores
     Number of MPI processes:                 8
     Threads/MPI process:                     1

     MPI processes distributed on     1 nodes
     482082 MiB available memory on the printing compute node when the environment starts

     Waiting for input...
     Reading input from standard input

     Current dimensions of program PWSCF are:
     Max number of different atomic species (ntypx) = 10
     Max number of k-points (npk) =  40000
     Max angular momentum in pseudopotentials (lmaxx) =  4

     R & G space division:  proc/nbgrp/npool/nimage =       8
     Subspace diagonalization in iterative solution of the eigenvalue problem:
     a serial algorithm will be used


     Parallelization info
     --------------------
     sticks:   dense  smooth     PW     G-vecs:    dense   smooth      PW
     Min         342     342    102                 8073     8073    1309
     Max         343     343    103                 8074     8074    1310
     Sum        2741    2741    821                64589    64589   10473

     Using Slab Decomposition



     bravais-lattice index     =            5
     lattice parameter (alat)  =      15.2939  a.u.
     unit-cell volume          =     667.1222 (a.u.)^3
     number of atoms/cell      =            4
     number of atomic types    =            2
     number of electrons       =        14.00
     number of Kohn-Sham states=           11
     kinetic-energy cutoff     =      80.0000  Ry
     charge density cutoff     =     320.0000  Ry
     scf convergence threshold =      1.0E-08
     mixing beta               =       0.7000
     number of iterations used =            8  plain     mixing
     energy convergence thresh.=      1.0E-04
     force convergence thresh. =      1.0E-03
     press convergence thresh. =      1.0E+00
     Exchange-correlation= PBE
                           (   1   4   3   4   0   0   0)
     nstep                     =           50


     celldm(1)=  15.293898  celldm(2)=   0.000000  celldm(3)=   0.000000
     celldm(4)=   0.888074  celldm(5)=   0.000000  celldm(6)=   0.000000

     crystal axes: (cart. coord. in units of alat)
               a(1) = (   0.236565  -0.136581   0.961968 )  
               a(2) = (   0.000000   0.273161   0.961968 )  
               a(3) = (  -0.236565  -0.136581   0.961968 )  

     reciprocal axes: (cart. coord. in units 2 pi/alat)
               b(1) = (  2.113588 -1.220280  0.346512 )  
               b(2) = (  0.000000  2.440561  0.346512 )  
               b(3) = ( -2.113588 -1.220280  0.346512 )  


     PseudoPot. # 1 for Li read from file:
     ../pseudo/Li_ONCV_PBE_sr.upf
     MD5 check sum: 50ff420e78310ffa21704f3361e624a4
     Pseudo is Norm-conserving, Zval =  3.0
     Generated using ONCVPSP code by D. R. Hamann
     Using radial grid of 1944 points,  4 beta functions with: 
                l(1) =   0
                l(2) =   0
                l(3) =   1
                l(4) =   1

     PseudoPot. # 2 for Si read from file:
     ../pseudo/Si_ONCV_PBE_sr.upf
     MD5 check sum: e543d271109d17c80368dfa7c482276d
     Pseudo is Norm-conserving + core correction, Zval =  4.0
     Generated using ONCVPSP code by D. R. Hamann
     Using radial grid of 1510 points,  6 beta functions with: 
                l(1) =   0
                l(2) =   0
                l(3) =   1
                l(4) =   1
                l(5) =   2
                l(6) =   2

     atomic species   valence    mass     pseudopotential
        Li             3.00     6.94100     Li( 1.00)
        Si             4.00    28.08550     Si( 1.00)

     12 Sym. Ops., with inversion, found



   Cartesian axes

     site n.     atom                  positions (alat units)
         1           Li  tau(   1) = (   0.0000000   0.0000000   0.0000000  )
         2           Li  tau(   2) = (   0.0000000  -0.0000000   1.4429524  )
         3           Si  tau(   3) = (   0.0000000  -0.0000000   0.3131452  )
         4           Si  tau(   4) = (   0.0000000  -0.0000000   2.5727596  )

     number of k points=    19  Marzari-Vanderbilt smearing, width (Ry)=  0.0200
                       cart. coord. in units 2pi/alat
        k(    1) = (   0.0000000   0.0000000   0.0000000), wk =   0.0160000
        k(    2) = (  -0.4227175  -0.2440561   0.0693024), wk =   0.0960000
        k(    3) = (  -0.8454351  -0.4881122   0.1386047), wk =   0.0960000
        k(    4) = (  -0.4227175   0.2440561   0.1386047), wk =   0.0960000
        k(    5) = (  -0.8454351   0.0000000   0.2079071), wk =   0.1920000
        k(    6) = (   0.8454351   0.9762243  -0.0693024), wk =   0.1920000
        k(    7) = (   0.4227175   0.7321682   0.0000000), wk =   0.0960000
        k(    8) = (  -0.8454351   0.4881122   0.2772094), wk =   0.0960000
        k(    9) = (   0.8454351   1.4643365   0.0000000), wk =   0.0960000
        k(   10) = (   0.0000000   0.0000000   0.2079071), wk =   0.0320000
        k(   11) = (  -0.4227175  -0.2440561   0.2772094), wk =   0.0960000
        k(   12) = (   1.2681526   0.7321682   0.0000000), wk =   0.0960000
        k(   13) = (   0.8454351   0.4881122   0.0693024), wk =   0.0960000
        k(   14) = (  -0.4227175   0.2440561   0.3465118), wk =   0.0960000
        k(   15) = (   1.2681526   1.2202804   0.0693024), wk =   0.1920000
        k(   16) = (   0.8454351   0.9762243   0.1386047), wk =   0.1920000
        k(   17) = (   1.2681526  -0.7321682  -0.2079071), wk =   0.0960000
        k(   18) = (   0.0000000   0.0000000   0.4158141), wk =   0.0320000
        k(   19) = (   1.6908701   0.9762243   0.1386047), wk =   0.0960000

     Dense  grid:    64589 G-vectors     FFT dimensions: (  90,  90,  90)

     Estimated max dynamical RAM per process >      26.65 MB

     Estimated total dynamical RAM >     213.23 MB

     Initial potential from superposition of free atoms

     starting charge      13.9897, renormalised to      14.0000
     Starting wfcs are   12 randomized atomic wfcs

     total cpu time spent up to now is        2.5 secs

     Self-consistent Calculation

     iteration #  1     ecut=    80.00 Ry     beta= 0.70
     Davidson diagonalization with overlap
     ethr =  1.00E-02,  avg # of iterations =  4.5

     Threshold (ethr) on eigenvalues was too large:
     Diagonalizing with lowered threshold

     Davidson diagonalization with overlap
     ethr =  7.36E-04,  avg # of iterations =  1.7

     total cpu time spent up to now is        5.5 secs

     total energy              =     -45.47345738 Ry
     estimated scf accuracy    <       0.11101460 Ry

     iteration #  2     ecut=    80.00 Ry     beta= 0.70
     Davidson diagonalization with overlap
     ethr =  7.93E-04,  avg # of iterations =  2.9

     total cpu time spent up to now is        6.8 secs

     total energy              =     -45.45070865 Ry
     estimated scf accuracy    <       0.42898776 Ry

     iteration #  3     ecut=    80.00 Ry     beta= 0.70
     Davidson diagonalization with overlap
     ethr =  7.93E-04,  avg # of iterations =  2.1

     total cpu time spent up to now is        8.0 secs

     total energy              =     -45.52492422 Ry
     estimated scf accuracy    <       0.00318977 Ry

     iteration #  4     ecut=    80.00 Ry     beta= 0.70
     Davidson diagonalization with overlap
     ethr =  2.28E-05,  avg # of iterations =  3.9

     total cpu time spent up to now is        9.3 secs

     total energy              =     -45.52548440 Ry
     estimated scf accuracy    <       0.00041276 Ry

     iteration #  5     ecut=    80.00 Ry     beta= 0.70
     Davidson diagonalization with overlap
     ethr =  2.95E-06,  avg # of iterations =  2.2

     total cpu time spent up to now is       10.5 secs

     total energy              =     -45.52551534 Ry
     estimated scf accuracy    <       0.00004331 Ry

     iteration #  6     ecut=    80.00 Ry     beta= 0.70
     Davidson diagonalization with overlap
     ethr =  3.09E-07,  avg # of iterations =  2.6

     total cpu time spent up to now is       11.6 secs

     total energy              =     -45.52552900 Ry
     estimated scf accuracy    <       0.00000788 Ry

     iteration #  7     ecut=    80.00 Ry     beta= 0.70
     Davidson diagonalization with overlap
     ethr =  5.63E-08,  avg # of iterations =  2.1

     total cpu time spent up to now is       12.7 secs

     total energy              =     -45.52553050 Ry
     estimated scf accuracy    <       0.00000004 Ry

     iteration #  8     ecut=    80.00 Ry     beta= 0.70
     Davidson diagonalization with overlap
     ethr =  2.75E-10,  avg # of iterations =  4.1

     total cpu time spent up to now is       14.1 secs

     total energy              =     -45.52553055 Ry
     estimated scf accuracy    <       0.00000004 Ry

     iteration #  9     ecut=    80.00 Ry     beta= 0.70
     Davidson diagonalization with overlap
     ethr =  2.75E-10,  avg # of iterations =  1.9

     total cpu time spent up to now is       15.2 secs

     End of self-consistent calculation

          k = 0.0000 0.0000 0.0000 (  8051 PWs)   bands (ev):

   -44.8763 -43.2553  -6.3672  -4.9138  -0.6026   2.8668   4.3956   4.3956
     4.6539   4.6539   5.0423

          k =-0.4227-0.2441 0.0693 (  8056 PWs)   bands (ev):

   -44.8761 -43.2549  -5.9797  -4.5684  -0.2101   1.8575   3.0177   3.2026
     3.3426   4.6859   5.2410

          k =-0.8454-0.4881 0.1386 (  8065 PWs)   bands (ev):

   -44.8757 -43.2543  -5.0032  -3.9489  -0.3305   0.3121   1.4488   2.5423
     3.0086   4.2024   4.6195

          k =-0.4227 0.2441 0.1386 (  8053 PWs)   bands (ev):

   -44.8761 -43.2549  -5.9774  -4.5761  -0.1502   1.8558   2.8042   3.1736
     3.3119   4.7706   5.5696

          k =-0.8454 0.0000 0.2079 (  8062 PWs)   bands (ev):

   -44.8758 -43.2544  -5.2681  -4.0622   0.3558   0.5858   1.2252   2.6307
     2.6945   3.5464   5.2339

          k = 0.8454 0.9762-0.0693 (  8050 PWs)   bands (ev):

   -44.8756 -43.2541  -4.4441  -3.9124  -0.1837   0.1493   1.0304   1.7485
     2.7136   2.9839   4.8222

          k = 0.4227 0.7322 0.0000 (  8070 PWs)   bands (ev):

   -44.8758 -43.2544  -5.2709  -4.0546   0.4347   0.5069   1.1668   2.6077
     2.6773   3.5770   5.6166

          k =-0.8454 0.4881 0.2772 (  8064 PWs)   bands (ev):

   -44.8757 -43.2543  -5.0027  -3.9540  -0.2533   0.3038   1.3375   2.4940
     2.8764   4.3804   4.9870

          k = 0.8454 1.4643 0.0000 (  8064 PWs)   bands (ev):

   -44.8756 -43.2541  -4.4531  -3.8996  -0.0640   0.0298   0.9424   1.6146
     3.0030   3.1721   5.0321

          k = 0.0000 0.0000 0.2079 (  8049 PWs)   bands (ev):

   -44.8763 -43.2553  -6.3598  -4.9382  -0.4429   2.3383   4.3674   4.3674
     4.6861   4.6861   5.6789

          k =-0.4227-0.2441 0.2772 (  8066 PWs)   bands (ev):

   -44.8761 -43.2549  -5.9707  -4.5969  -0.0027   1.6763   2.6697   3.3299
     3.3436   4.6811   5.4358

          k = 1.2682 0.7322 0.0000 (  8064 PWs)   bands (ev):

   -44.8757 -43.2543  -5.0017  -3.9511  -0.4058   0.3319   1.7267   2.5299
     2.9760   4.0847   4.2444

          k = 0.8454 0.4881 0.0693 (  8068 PWs)   bands (ev):

   -44.8757 -43.2543  -5.0038  -3.9506  -0.2237   0.2951   1.2144   2.5191
     2.9824   4.2838   5.1663

          k =-0.4227 0.2441 0.3465 (  8075 PWs)   bands (ev):

   -44.8761 -43.2549  -5.9669  -4.6093   0.1308   1.5928   2.4750   3.2416
     3.2951   4.8185   5.8990

          k = 1.2682 1.2203 0.0693 (  8064 PWs)   bands (ev):

   -44.8758 -43.2544  -5.2635  -4.0744   0.2986   0.6407   1.3171   2.6857
     2.8311   3.3115   4.9157

          k = 0.8454 0.9762 0.1386 (  8062 PWs)   bands (ev):

   -44.8756 -43.2541  -4.4497  -3.9044  -0.1272   0.0937   0.9723   1.6622
     2.8676   3.1353   4.9067

          k = 1.2682-0.7322-0.2079 (  8063 PWs)   bands (ev):

   -44.8757 -43.2543  -5.0014  -3.9543  -0.3666   0.3296   1.6619   2.5002
     2.8488   4.3225   4.3547

          k = 0.0000 0.0000 0.4158 (  8094 PWs)   bands (ev):

   -44.8763 -43.2553  -6.3474  -4.9773  -0.0949   1.6097   4.3313   4.3313
     4.7287   4.7287   6.6324

          k = 1.6909 0.9762 0.1386 (  8063 PWs)   bands (ev):

   -44.8761 -43.2549  -5.9626  -4.6221   0.2692   1.4159   2.4376   3.3134
     3.3219   4.7625   5.7742

     the Fermi energy is     2.3385 ev

!    total energy              =     -45.52553055 Ry
     estimated scf accuracy    <          4.2E-10 Ry
     smearing contrib. (-TS)   =      -0.00061984 Ry
     internal energy E=F+TS    =     -45.52491071 Ry

     The total energy is F=E-TS. E is the sum of the following terms:
     one-electron contribution =     -20.32126034 Ry
     hartree contribution      =      10.39820393 Ry
     xc contribution           =     -12.43993119 Ry
     ewald contribution        =     -23.16192311 Ry

     convergence has been achieved in   9 iterations

     Forces acting on atoms (cartesian axes, Ry/au):

     atom    1 type  1   force =     0.00000000    0.00000000    0.00000000
     atom    2 type  1   force =    -0.00000000    0.00000000    0.00000000
     atom    3 type  2   force =     0.00000000   -0.00000000    0.03500612
     atom    4 type  2   force =    -0.00000000    0.00000000   -0.03500612
     The non-local contrib.  to forces
     atom    1 type  1   force =     0.00000000   -0.00000000    0.00000000
     atom    2 type  1   force =    -0.00000000   -0.00000000   -0.00000000
     atom    3 type  2   force =     0.00000000    0.00000000    0.08368310
     atom    4 type  2   force =    -0.00000000    0.00000000   -0.08368310
     The ionic contribution  to forces
     atom    1 type  1   force =     0.00000000   -0.00000000    0.00000000
     atom    2 type  1   force =    -0.00000000    0.00000000    0.00000000
     atom    3 type  2   force =     0.00000000    0.00000000   -1.49727523
     atom    4 type  2   force =    -0.00000000   -0.00000000    1.49727523
     The local contribution  to forces
     atom    1 type  1   force =     0.00000000    0.00000000   -0.00000000
     atom    2 type  1   force =     0.00000000   -0.00000000    0.00000000
     atom    3 type  2   force =     0.00000000   -0.00000000    1.45350015
     atom    4 type  2   force =    -0.00000000    0.00000000   -1.45350015
     The core correction contribution to forces
     atom    1 type  1   force =     0.00000000    0.00000000    0.00000000
     atom    2 type  1   force =     0.00000000    0.00000000    0.00000000
     atom    3 type  2   force =    -0.00000000   -0.00000000   -0.00491292
     atom    4 type  2   force =     0.00000000    0.00000000    0.00491292
     The Hubbard contrib.    to forces
     atom    1 type  1   force =     0.00000000    0.00000000    0.00000000
     atom    2 type  1   force =     0.00000000    0.00000000    0.00000000
     atom    3 type  2   force =     0.00000000    0.00000000    0.00000000
     atom    4 type  2   force =     0.00000000    0.00000000    0.00000000
     The SCF correction term to forces
     atom    1 type  1   force =    -0.00000000   -0.00000000   -0.00000000
     atom    2 type  1   force =     0.00000000   -0.00000000    0.00000000
     atom    3 type  2   force =    -0.00000000    0.00000000    0.00001101
     atom    4 type  2   force =     0.00000000   -0.00000000   -0.00001101

     Total force =     0.049506     Total SCF correction =     0.000016


     Computing stress (Cartesian axis) and pressure

          total   stress  (Ry/bohr**3)                   (kbar)     P=      -37.49
  -0.00027686   0.00000000   0.00000000          -40.73        0.00        0.00
   0.00000000  -0.00027686  -0.00000000            0.00      -40.73       -0.00
  -0.00000000  -0.00000000  -0.00021091           -0.00       -0.00      -31.03


     BFGS Geometry Optimization
     Energy error            =      0.0E+00 Ry
     Gradient error          =      3.5E-02 Ry/Bohr
     Cell gradient error     =      5.4E+02 kbar

     number of scf cycles    =   1
     number of bfgs steps    =   0

     enthalpy           new  =     -43.2580281435 Ry

     new trust radius        =       0.4747048543 bohr
ibrav =      5
 celldm(1) =     13.91180349
 celldm(4) =      0.88844955
Input lattice vectors:
     0.21482554    -0.12402958     0.87515437
    -0.00000000     0.24805916     0.87515437
    -0.21482554    -0.12402958     0.87515437
New lattice vectors in INITIAL alat:
     0.21482554    -0.12402958     0.87515437
     0.00000000     0.24805916     0.87515437
    -0.21482554    -0.12402958     0.87515437
New lattice vectors in NEW alat (for information only):
     0.23616779    -0.13635153     0.96209825
     0.00000000     0.27270307     0.96209825
    -0.23616779    -0.13635153     0.96209825
Discrepancy in bohr =     0.000000    0.000000    0.000000
     new conv_thr            =       0.0000000100 Ry

     new unit-cell volume =    500.49721 a.u.^3 (    74.16604 Ang^3 )
     density =      1.56845 g/cm^3

CELL_PARAMETERS (alat= 15.29389801)
   0.214825535  -0.124029581   0.875154374
   0.000000000   0.248059161   0.875154374
  -0.214825535  -0.124029581   0.875154374

ATOMIC_POSITIONS (crystal)
Li            0.0000000000        0.0000000000        0.0000000000
Li            0.5000000000        0.5000000000        0.5000000000
Si            0.1093016290        0.1093016290        0.1093016290
Si            0.8906983710        0.8906983710        0.8906983710



     Writing config-only to output data dir ./output/LiSi.save/
     NEW-OLD atomic charge density approx. for the potential
     extrapolated charge    9.34258, renormalised to   14.00000

     total cpu time spent up to now is       17.7 secs

     Self-consistent Calculation

     iteration #  1     ecut=    80.00 Ry     beta= 0.70
     Davidson diagonalization with overlap
     c_bands:  1 eigenvalues not converged
     c_bands:  1 eigenvalues not converged
     ethr =  1.00E-06,  avg # of iterations = 18.2

     total cpu time spent up to now is       21.8 secs

     total energy              =     -43.30027929 Ry
     estimated scf accuracy    <       1.92581076 Ry

     iteration #  2     ecut=    80.00 Ry     beta= 0.70
     Davidson diagonalization with overlap
     ethr =  1.00E-02,  avg # of iterations =  5.5

     total cpu time spent up to now is       23.7 secs

     total energy              =     -44.37819243 Ry
     estimated scf accuracy    <      18.57175164 Ry

     iteration #  3     ecut=    80.00 Ry     beta= 0.70
     Davidson diagonalization with overlap
     ethr =  1.00E-02,  avg # of iterations =  2.9

     total cpu time spent up to now is       25.0 secs

     total energy              =     -45.56241762 Ry
     estimated scf accuracy    <       1.52841918 Ry

     iteration #  4     ecut=    80.00 Ry     beta= 0.70
     Davidson diagonalization with overlap
     ethr =  1.00E-02,  avg # of iterations =  1.2

     total cpu time spent up to now is       26.0 secs

     total energy              =     -45.48396557 Ry
     estimated scf accuracy    <       0.48591869 Ry

     iteration #  5     ecut=    80.00 Ry     beta= 0.70
     Davidson diagonalization with overlap
     ethr =  3.47E-03,  avg # of iterations =  1.9

     total cpu time spent up to now is       27.0 secs

     total energy              =     -45.52507127 Ry
     estimated scf accuracy    <       0.03052590 Ry

     iteration #  6     ecut=    80.00 Ry     beta= 0.70
     Davidson diagonalization with overlap
     ethr =  2.18E-04,  avg # of iterations =  4.5

     total cpu time spent up to now is       28.4 secs

     total energy              =     -45.53610250 Ry
     estimated scf accuracy    <       0.00218713 Ry

     iteration #  7     ecut=    80.00 Ry     beta= 0.70
     Davidson diagonalization with overlap
     ethr =  1.56E-05,  avg # of iterations =  3.1

     total cpu time spent up to now is       29.6 secs

     total energy              =     -45.53653423 Ry
     estimated scf accuracy    <       0.00003164 Ry

     iteration #  8     ecut=    80.00 Ry     beta= 0.70
     Davidson diagonalization with overlap
     ethr =  2.26E-07,  avg # of iterations =  3.8

     total cpu time spent up to now is       30.9 secs

     total energy              =     -45.53653795 Ry
     estimated scf accuracy    <       0.00003902 Ry

     iteration #  9     ecut=    80.00 Ry     beta= 0.70
     Davidson diagonalization with overlap
     ethr =  2.26E-07,  avg # of iterations =  2.0

     total cpu time spent up to now is       32.0 secs

     total energy              =     -45.53654634 Ry
     estimated scf accuracy    <       0.00000212 Ry

     iteration # 10     ecut=    80.00 Ry     beta= 0.70
     Davidson diagonalization with overlap
     ethr =  1.51E-08,  avg # of iterations =  1.8

     total cpu time spent up to now is       33.0 secs

     total energy              =     -45.53654682 Ry
     estimated scf accuracy    <       0.00000016 Ry

     iteration # 11     ecut=    80.00 Ry     beta= 0.70
     Davidson diagonalization with overlap
     ethr =  1.16E-09,  avg # of iterations =  2.8

     total cpu time spent up to now is       34.1 secs

     total energy              =     -45.53654686 Ry
     estimated scf accuracy    <       0.00000003 Ry

     iteration # 12     ecut=    80.00 Ry     beta= 0.70
     Davidson diagonalization with overlap
     ethr =  1.86E-10,  avg # of iterations =  1.9

     total cpu time spent up to now is       35.2 secs

     End of self-consistent calculation

          k = 0.0000 0.0000 0.0000 (  8051 PWs)   bands (ev):

   -42.6854 -41.2985  -5.6684  -3.6677   0.5922   5.1377   7.1404   7.1404
     7.4024   7.4024   7.7131

          k =-0.4655-0.2688 0.0762 (  8056 PWs)   bands (ev):

   -42.6845 -41.2969  -5.1691  -3.1448   1.0653   3.7523   5.2219   5.4890
     5.8167   7.5910   7.7301

          k =-0.9310-0.5375 0.1524 (  8065 PWs)   bands (ev):

   -42.6832 -41.2943  -3.8349  -2.0331   0.6680   1.9672   3.0556   4.4104
     5.2147   6.8530   6.8956

          k =-0.4655 0.2688 0.1524 (  8053 PWs)   bands (ev):

   -42.6845 -41.2969  -5.1663  -3.1588   1.1447   3.7314   5.1349   5.4535
     5.5470   7.7350   8.1577

          k =-0.9310-0.0000 0.2285 (  8062 PWs)   bands (ev):

   -42.6834 -41.2948  -4.2151  -2.2783   1.6384   2.0565   3.0594   4.6008
     4.7023   6.0370   7.5404

          k = 0.9310 1.0750-0.0762 (  8050 PWs)   bands (ev):

   -42.6828 -41.2935  -2.9721  -1.9977   1.0465   1.4753   2.4437   3.5282
     4.6992   5.0182   7.1494

          k = 0.4655 0.8063 0.0000 (  8070 PWs)   bands (ev):

   -42.6834 -41.2948  -4.2188  -2.2613   1.7604   1.8631   3.0575   4.5810
     4.6374   6.0670   8.1812

          k =-0.9310 0.5375 0.3047 (  8064 PWs)   bands (ev):

   -42.6832 -41.2943  -3.8368  -2.0442   0.7692   1.9500   2.9036   4.3553
     5.1810   7.0965   7.1508

          k = 0.9310 1.6125 0.0000 (  8064 PWs)   bands (ev):

   -42.6828 -41.2935  -2.9912  -1.9614   1.2229   1.2673   2.3616   3.2888
     5.0589   5.5879   7.2101

          k = 0.0000 0.0000 0.2285 (  8049 PWs)   bands (ev):

   -42.6854 -41.2985  -5.6593  -3.7078   0.7923   4.4746   7.1019   7.1019
     7.4425   7.4425   8.5378

          k =-0.4655-0.2688 0.3047 (  8066 PWs)   bands (ev):

   -42.6845 -41.2969  -5.1577  -3.1962   1.3352   3.6444   4.6544   5.4904
     5.9355   7.5812   8.0266

          k = 1.3965 0.8063 0.0000 (  8064 PWs)   bands (ev):

   -42.6832 -41.2943  -3.8334  -2.0341   0.5780   1.9711   3.4589   4.3962
     5.2752   6.0045   6.9204

          k = 0.9310 0.5375 0.0762 (  8068 PWs)   bands (ev):

   -42.6832 -41.2943  -3.8370  -2.0394   0.8011   1.9505   2.7455   4.3840
     5.2216   6.9845   7.5809

          k =-0.4655 0.2688 0.3809 (  8075 PWs)   bands (ev):

   -42.6845 -41.2969  -5.1531  -3.2180   1.5047   3.5358   4.4799   5.4341
     5.7041   7.8182   8.5195

          k = 1.3965 1.3438 0.0762 (  8064 PWs)   bands (ev):

   -42.6834 -41.2948  -4.2089  -2.3055   1.5748   2.2228   3.0711   4.7625
     4.8824   5.5705   7.2330

          k = 0.9310 1.0750 0.1524 (  8062 PWs)   bands (ev):

   -42.6828 -41.2935  -2.9840  -1.9753   1.1270   1.3735   2.3880   3.3816
     4.8815   5.3964   7.1554

          k = 1.3965-0.8063-0.2285 (  8063 PWs)   bands (ev):

   -42.6832 -41.2943  -3.8345  -2.0411   0.6315   1.9641   3.3485   4.3624
     5.2336   6.1504   7.1057

          k = 0.0000 0.0000 0.4571 (  8094 PWs)   bands (ev):

   -42.6854 -41.2985  -5.6442  -3.7709   1.2087   3.5946   7.0545   7.0545
     7.4921   7.4921   9.8359

          k = 1.8620 1.0750 0.1524 (  8063 PWs)   bands (ev):

   -42.6845 -41.2969  -5.1477  -3.2405   1.6694   3.4008   4.3172   5.4557
     5.8530   7.7173   8.4197

     the Fermi energy is     4.2588 ev

!    total energy              =     -45.53654686 Ry
     estimated scf accuracy    <          1.5E-09 Ry
     smearing contrib. (-TS)   =      -0.00110350 Ry
     internal energy E=F+TS    =     -45.53544336 Ry

     The total energy is F=E-TS. E is the sum of the following terms:
     one-electron contribution =     -17.39424366 Ry
     hartree contribution      =       9.98945522 Ry
     xc contribution           =     -12.76090586 Ry
     ewald contribution        =     -25.36974906 Ry

     convergence has been achieved in  12 iterations

     Forces acting on atoms (cartesian axes, Ry/au):

     atom    1 type  1   force =    -0.00000000    0.00000000    0.00000000
     atom    2 type  1   force =     0.00000000   -0.00000000   -0.00000000
     atom    3 type  2   force =     0.00000000    0.00000000    0.03915527
     atom    4 type  2   force =     0.00000000   -0.00000000   -0.03915527
     The non-local contrib.  to forces
     atom    1 type  1   force =    -0.00000000    0.00000000    0.00000000
     atom    2 type  1   force =     0.00000000    0.00000000    0.00000000
     atom    3 type  2   force =    -0.00000000    0.00000000    0.10625072
     atom    4 type  2   force =     0.00000000    0.00000000   -0.10625072
     The ionic contribution  to forces
     atom    1 type  1   force =    -0.00000000   -0.00000000    0.00000000
     atom    2 type  1   force =     0.00000000    0.00000000    0.00000000
     atom    3 type  2   force =     0.00000000    0.00000000   -1.89004974
     atom    4 type  2   force =    -0.00000000   -0.00000000    1.89004974
     The local contribution  to forces
     atom    1 type  1   force =     0.00000000    0.00000000   -0.00000000
     atom    2 type  1   force =     0.00000000   -0.00000000    0.00000000
     atom    3 type  2   force =    -0.00000000   -0.00000000    1.82870044
     atom    4 type  2   force =     0.00000000    0.00000000   -1.82870044
     The core correction contribution to forces
     atom    1 type  1   force =     0.00000000    0.00000000    0.00000000
     atom    2 type  1   force =     0.00000000    0.00000000    0.00000000
     atom    3 type  2   force =     0.00000000   -0.00000000   -0.00579168
     atom    4 type  2   force =    -0.00000000    0.00000000    0.00579168
     The Hubbard contrib.    to forces
     atom    1 type  1   force =     0.00000000    0.00000000    0.00000000
     atom    2 type  1   force =     0.00000000    0.00000000    0.00000000
     atom    3 type  2   force =     0.00000000    0.00000000    0.00000000
     atom    4 type  2   force =     0.00000000    0.00000000    0.00000000
     The SCF correction term to forces
     atom    1 type  1   force =     0.00000000    0.00000000   -0.00000000
     atom    2 type  1   force =    -0.00000000    0.00000000   -0.00000000
     atom    3 type  2   force =     0.00000000    0.00000000    0.00004553
     atom    4 type  2   force =    -0.00000000   -0.00000000   -0.00004553

     Total force =     0.055374     Total SCF correction =     0.000064


     Computing stress (Cartesian axis) and pressure

          total   stress  (Ry/bohr**3)                   (kbar)     P=       41.40
   0.00021143   0.00000000  -0.00000000           31.10        0.00       -0.00
  -0.00000000   0.00021143   0.00000000           -0.00       31.10        0.00
   0.00000000   0.00000000   0.00042150            0.00        0.00       62.00

     Energy error            =      5.8E-01 Ry
     Gradient error          =      3.9E-02 Ry/Bohr
     Cell gradient error     =      4.7E+02 kbar

     number of scf cycles    =   2
     number of bfgs steps    =   1

     enthalpy           old  =     -43.2580281435 Ry
     enthalpy           new  =     -43.8353914048 Ry

     CASE: enthalpy          _new < enthalpy          _old

     new trust radius        =       0.6791674998 bohr
ibrav =      5
 celldm(1) =     11.93531069
 celldm(4) =      0.89096236
Input lattice vectors:
     0.18221695    -0.10520300     0.75149760
     0.00000000     0.21040601     0.75149760
    -0.18221695    -0.10520300     0.75149760
New lattice vectors in INITIAL alat:
     0.18221695    -0.10520300     0.75149760
     0.00000000     0.21040601     0.75149760
    -0.18221695    -0.10520300     0.75149760
New lattice vectors in NEW alat (for information only):
     0.23349266    -0.13480705     0.96296845
     0.00000000     0.26961410     0.96296845
    -0.23349266    -0.13480705     0.96296845
Discrepancy in bohr =     0.000000    0.000000    0.000000
     new conv_thr            =       0.0000000039 Ry

     new unit-cell volume =    309.20772 a.u.^3 (    45.81986 Ang^3 )
     density =      2.53876 g/cm^3

CELL_PARAMETERS (alat= 15.29389801)
   0.182216949  -0.105203005   0.751497600
   0.000000000   0.210406009   0.751497600
  -0.182216949  -0.105203005   0.751497600

ATOMIC_POSITIONS (crystal)
Li           -0.0000000000        0.0000000000       -0.0000000000
Li            0.5000000000        0.5000000000        0.5000000000
Si            0.1109899481        0.1109899481        0.1109899481
Si            0.8890100519        0.8890100519        0.8890100519



     Writing config-only to output data dir ./output/LiSi.save/
     NEW-OLD atomic charge density approx. for the potential

     negative rho (up, down):  1.145E-01 0.000E+00
     extrapolated charge    5.34539, renormalised to   14.00000

     total cpu time spent up to now is       37.7 secs

     Self-consistent Calculation

     iteration #  1     ecut=    80.00 Ry     beta= 0.70
     Davidson diagonalization with overlap
     c_bands:  1 eigenvalues not converged
     c_bands:  1 eigenvalues not converged
     c_bands:  1 eigenvalues not converged
     c_bands:  1 eigenvalues not converged
     c_bands:  1 eigenvalues not converged
     c_bands:  1 eigenvalues not converged
     c_bands:  1 eigenvalues not converged
     c_bands:  1 eigenvalues not converged
     c_bands:  1 eigenvalues not converged
     ethr =  1.00E-06,  avg # of iterations = 18.2

     negative rho (up, down):  4.550E-06 0.000E+00

     total cpu time spent up to now is       42.5 secs

     total energy              =     -36.83404281 Ry
     estimated scf accuracy    <       7.62628335 Ry

     iteration #  2     ecut=    80.00 Ry     beta= 0.70
     Davidson diagonalization with overlap
     ethr =  1.00E-02,  avg # of iterations =  7.1

     negative rho (up, down):  8.761E-07 0.000E+00

     total cpu time spent up to now is       44.7 secs

     total energy              =     -44.26844071 Ry
     estimated scf accuracy    <      40.03939803 Ry

     iteration #  3     ecut=    80.00 Ry     beta= 0.70
     Davidson diagonalization with overlap
     ethr =  1.00E-02,  avg # of iterations =  3.4

     total cpu time spent up to now is       46.0 secs

     total energy              =     -45.41363014 Ry
     estimated scf accuracy    <       6.15158966 Ry

     iteration #  4     ecut=    80.00 Ry     beta= 0.70
     Davidson diagonalization with overlap
     ethr =  1.00E-02,  avg # of iterations =  2.1

     total cpu time spent up to now is       47.0 secs

     total energy              =     -44.83977532 Ry
     estimated scf accuracy    <       1.84851596 Ry

     iteration #  5     ecut=    80.00 Ry     beta= 0.70
     Davidson diagonalization with overlap
     ethr =  1.00E-02,  avg # of iterations =  2.3

     total cpu time spent up to now is       48.1 secs

     total energy              =     -45.21247208 Ry
     estimated scf accuracy    <       0.14786618 Ry

     iteration #  6     ecut=    80.00 Ry     beta= 0.70
     Davidson diagonalization with overlap
     ethr =  1.06E-03,  avg # of iterations =  2.5

     total cpu time spent up to now is       49.2 secs

     total energy              =     -45.25550597 Ry
     estimated scf accuracy    <       0.02554213 Ry

     iteration #  7     ecut=    80.00 Ry     beta= 0.70
     Davidson diagonalization with overlap
     ethr =  1.82E-04,  avg # of iterations =  2.8

     total cpu time spent up to now is       50.2 secs

     total energy              =     -45.25574661 Ry
     estimated scf accuracy    <       0.00359225 Ry

     iteration #  8     ecut=    80.00 Ry     beta= 0.70
     Davidson diagonalization with overlap
     ethr =  2.57E-05,  avg # of iterations =  3.4

     total cpu time spent up to now is       51.4 secs

     total energy              =     -45.25666952 Ry
     estimated scf accuracy    <       0.00084230 Ry

     iteration #  9     ecut=    80.00 Ry     beta= 0.70
     Davidson diagonalization with overlap
     ethr =  6.02E-06,  avg # of iterations =  2.6

     total cpu time spent up to now is       52.5 secs

     total energy              =     -45.25684529 Ry
     estimated scf accuracy    <       0.00010444 Ry

     iteration # 10     ecut=    80.00 Ry     beta= 0.70
     Davidson diagonalization with overlap
     ethr =  7.46E-07,  avg # of iterations =  2.5

     total cpu time spent up to now is       53.5 secs

     total energy              =     -45.25687090 Ry
     estimated scf accuracy    <       0.00012866 Ry

     iteration # 11     ecut=    80.00 Ry     beta= 0.70
     Davidson diagonalization with overlap
     ethr =  7.46E-07,  avg # of iterations =  1.7

     total cpu time spent up to now is       54.5 secs

     total energy              =     -45.25688701 Ry
     estimated scf accuracy    <       0.00000086 Ry

     iteration # 12     ecut=    80.00 Ry     beta= 0.70
     Davidson diagonalization with overlap
     ethr =  6.13E-09,  avg # of iterations =  3.7

     total cpu time spent up to now is       55.7 secs

     total energy              =     -45.25688769 Ry
     estimated scf accuracy    <       0.00000035 Ry

     iteration # 13     ecut=    80.00 Ry     beta= 0.70
     Davidson diagonalization with overlap
     ethr =  2.50E-09,  avg # of iterations =  1.0

     total cpu time spent up to now is       56.6 secs

     total energy              =     -45.25688769 Ry
     estimated scf accuracy    <       0.00000005 Ry

     iteration # 14     ecut=    80.00 Ry     beta= 0.70
     Davidson diagonalization with overlap
     ethr =  3.37E-10,  avg # of iterations =  2.1

     total cpu time spent up to now is       57.6 secs

     total energy              =     -45.25688770 Ry
     estimated scf accuracy    <          9.2E-09 Ry

     iteration # 15     ecut=    80.00 Ry     beta= 0.70
     Davidson diagonalization with overlap
     ethr =  6.56E-11,  avg # of iterations =  1.0

     total cpu time spent up to now is       58.5 secs

     End of self-consistent calculation

          k = 0.0000 0.0000 0.0000 (  8051 PWs)   bands (ev):

   -38.1021 -38.0440  -3.8182  -1.1249   3.6438   9.9574  13.2240  13.2240
    13.4182  13.5864  13.5864

          k =-0.5488-0.3168 0.0887 (  8056 PWs)   bands (ev):

   -38.0953 -38.0310  -3.1829  -0.2708   4.1945   8.2127  10.1807  10.2950
    12.2615  13.3017  14.4865

          k =-1.0976-0.6337 0.1774 (  8065 PWs)   bands (ev):

   -38.0844 -38.0099  -1.4424   2.1570   3.2175   6.2328   6.8401   8.6823
    10.1265  12.6189  13.0868

          k =-0.5488 0.3168 0.1774 (  8053 PWs)   bands (ev):

   -38.0953 -38.0311  -3.1803  -0.2943   4.2983   8.1988  10.0449  10.2613
    11.5893  13.9363  14.8134

          k =-1.0976 0.0000 0.2661 (  8062 PWs)   bands (ev):

   -38.0864 -38.0140  -1.9341   1.3499   4.9062   5.3545   7.8518   9.3052
     9.4917  11.8061  12.7898

          k = 1.0976 1.2674-0.0887 (  8050 PWs)   bands (ev):

   -38.0810 -38.0034  -0.1784   1.9083   4.6116   4.8794   5.9032   8.1870
     9.1504   9.5522  12.8553

          k = 0.5488 0.9505 0.0000 (  8070 PWs)   bands (ev):

   -38.0865 -38.0139  -1.9397   1.4149   4.9593   5.0874   7.9201   9.1665
     9.5545  11.7725  13.9889

          k =-1.0976 0.6337 0.3548 (  8064 PWs)   bands (ev):

   -38.0844 -38.0099  -1.4518   2.0582   3.4394   6.2217   6.6862   8.6282
    10.4465  11.7475  13.7329

          k = 1.0976 1.9011 0.0000 (  8064 PWs)   bands (ev):

   -38.0810 -38.0034  -0.2089   2.0051   4.4481   4.9154   5.9800   7.5510
     9.5841  11.1245  12.3675

          k = 0.0000-0.0000 0.2661 (  8049 PWs)   bands (ev):

   -38.1020 -38.0442  -3.8094  -1.1812   3.8950   9.1141  13.2345  13.2345
    13.5531  13.5531  14.5344

          k =-0.5488-0.3168 0.3548 (  8066 PWs)   bands (ev):

   -38.0952 -38.0311  -3.1703  -0.3605   4.5667   8.2294   9.2253  10.2963
    12.2890  14.1103  14.4666

          k = 1.6464 0.9505 0.0000 (  8064 PWs)   bands (ev):

   -38.0843 -38.0099  -1.4382   2.0919   3.1975   6.1694   7.5589   8.6684
     9.7490  11.4324  13.2174

          k = 1.0976 0.6337 0.0887 (  8068 PWs)   bands (ev):

   -38.0844 -38.0099  -1.4507   2.1269   3.3899   6.2185   6.4609   8.6567
    10.3215  13.1436  13.3437

          k =-0.5488 0.3168 0.4436 (  8075 PWs)   bands (ev):

   -38.0952 -38.0312  -3.1661  -0.3958   4.7735   8.1764   8.9463  10.2424
    11.7430  14.2334  15.0387

          k = 1.6464 1.5842 0.0887 (  8064 PWs)   bands (ev):

   -38.0864 -38.0140  -1.9248   1.2514   4.9197   5.6954   7.7604   9.4787
     9.7310  10.6576  13.0028

          k = 1.0976 1.2674 0.1774 (  8062 PWs)   bands (ev):

   -38.0810 -38.0034  -0.1974   1.9664   4.5565   4.8504   5.9324   7.8112
     9.3469  10.4046  12.7195

          k = 1.6464-0.9505-0.2661 (  8063 PWs)   bands (ev):

   -38.0843 -38.0099  -1.4440   2.0341   3.3231   6.1648   7.4216   8.6352
    10.1638  10.8701  13.6205

          k = 0.0000-0.0000 0.5323 (  8094 PWs)   bands (ev):

   -38.1018 -38.0443  -3.7947  -1.2682   4.3910   8.0226  13.2597  13.2597
    13.4914  13.4914  16.5633

          k = 2.1952 1.2674 0.1774 (  8063 PWs)   bands (ev):

   -38.0951 -38.0312  -3.1598  -0.4344   4.9848   8.2024   8.5114  10.2633
    12.0133  14.3380  14.7693

     the Fermi energy is     8.4921 ev

!    total energy              =     -45.25688770 Ry
     estimated scf accuracy    <          7.0E-10 Ry
     smearing contrib. (-TS)   =       0.00104782 Ry
     internal energy E=F+TS    =     -45.25793552 Ry

     The total energy is F=E-TS. E is the sum of the following terms:
     one-electron contribution =     -11.86954789 Ry
     hartree contribution      =       9.55002885 Ry
     xc contribution           =     -13.50002190 Ry
     ewald contribution        =     -29.43839457 Ry

     convergence has been achieved in  15 iterations

     Forces acting on atoms (cartesian axes, Ry/au):

     atom    1 type  1   force =    -0.00000000   -0.00000000   -0.00000000
     atom    2 type  1   force =    -0.00000000    0.00000000    0.00000000
     atom    3 type  2   force =     0.00000000   -0.00000000   -0.01572450
     atom    4 type  2   force =    -0.00000000   -0.00000000    0.01572450
     The non-local contrib.  to forces
     atom    1 type  1   force =    -0.00000000    0.00000000    0.00000000
     atom    2 type  1   force =     0.00000000   -0.00000000    0.00000000
     atom    3 type  2   force =     0.00000000    0.00000000    0.07790104
     atom    4 type  2   force =    -0.00000000   -0.00000000   -0.07790104
     The ionic contribution  to forces
     atom    1 type  1   force =     0.00000000   -0.00000000    0.00000000
     atom    2 type  1   force =    -0.00000000   -0.00000000   -0.00000000
     atom    3 type  2   force =    -0.00000000    0.00000000   -2.87717391
     atom    4 type  2   force =    -0.00000000   -0.00000000    2.87717391
     The local contribution  to forces
     atom    1 type  1   force =    -0.00000000   -0.00000000    0.00000000
     atom    2 type  1   force =     0.00000000    0.00000000   -0.00000000
     atom    3 type  2   force =     0.00000000   -0.00000000    2.78511151
     atom    4 type  2   force =     0.00000000    0.00000000   -2.78511151
     The core correction contribution to forces
     atom    1 type  1   force =     0.00000000    0.00000000    0.00000000
     atom    2 type  1   force =     0.00000000    0.00000000    0.00000000
     atom    3 type  2   force =     0.00000000    0.00000000   -0.00152913
     atom    4 type  2   force =    -0.00000000   -0.00000000    0.00152913
     The Hubbard contrib.    to forces
     atom    1 type  1   force =     0.00000000    0.00000000    0.00000000
     atom    2 type  1   force =     0.00000000    0.00000000    0.00000000
     atom    3 type  2   force =     0.00000000    0.00000000    0.00000000
     atom    4 type  2   force =     0.00000000    0.00000000    0.00000000
     The SCF correction term to forces
     atom    1 type  1   force =     0.00000000    0.00000000   -0.00000000
     atom    2 type  1   force =     0.00000000   -0.00000000   -0.00000000
     atom    3 type  2   force =     0.00000000   -0.00000000   -0.00003402
     atom    4 type  2   force =    -0.00000000    0.00000000    0.00003402

     Total force =     0.022238     Total SCF correction =     0.000048


     Computing stress (Cartesian axis) and pressure

          total   stress  (Ry/bohr**3)                   (kbar)     P=      553.12
   0.00343566   0.00000000   0.00000000          505.40        0.00        0.00
   0.00000000   0.00343566   0.00000000            0.00      505.40        0.00
  -0.00000000   0.00000000   0.00440869           -0.00        0.00      648.54

     Energy error            =      3.7E-01 Ry
     Gradient error          =      1.6E-02 Ry/Bohr
     Cell gradient error     =      1.5E+02 kbar

     number of scf cycles    =   3
     number of bfgs steps    =   2

     enthalpy           old  =     -43.8353914048 Ry
     enthalpy           new  =     -44.2059120168 Ry

     CASE: enthalpy          _new < enthalpy          _old

     new trust radius        =       0.0822723432 bohr
ibrav =      5
 celldm(1) =     12.20027556
 celldm(4) =      0.89421266
Input lattice vectors:
     0.18346503    -0.10592358     0.76907790
    -0.00000000     0.21184717     0.76907790
    -0.18346503    -0.10592358     0.76907790
New lattice vectors in INITIAL alat:
     0.18346503    -0.10592358     0.76907790
     0.00000000     0.21184717     0.76907790
    -0.18346503    -0.10592358     0.76907790
New lattice vectors in NEW alat (for information only):
     0.22998624    -0.13278261     0.96409289
     0.00000000     0.26556523     0.96409289
    -0.22998624    -0.13278261     0.96409289
Discrepancy in bohr =     0.000000    0.000000    0.000000
     new conv_thr            =       0.0000000016 Ry

     new unit-cell volume =    320.79095 a.u.^3 (    47.53631 Ang^3 )
     density =      2.44709 g/cm^3

CELL_PARAMETERS (alat= 15.29389801)
   0.183465029  -0.105923584   0.769077901
   0.000000000   0.211847168   0.769077901
  -0.183465029  -0.105923584   0.769077901

ATOMIC_POSITIONS (crystal)
Li           -0.0000000000       -0.0000000000        0.0000000000
Li            0.5000000000        0.5000000000        0.5000000000
Si            0.1106733334        0.1106733334        0.1106733334
Si            0.8893266666        0.8893266666        0.8893266666



     Writing config-only to output data dir ./output/LiSi.save/
     NEW-OLD atomic charge density approx. for the potential
     extrapolated charge   14.50514, renormalised to   14.00000

     total cpu time spent up to now is       60.9 secs

     Self-consistent Calculation

     iteration #  1     ecut=    80.00 Ry     beta= 0.70
     Davidson diagonalization with overlap
     ethr =  1.00E-06,  avg # of iterations =  8.3

     total cpu time spent up to now is       63.3 secs

     total energy              =     -45.22398790 Ry
     estimated scf accuracy    <       0.07401960 Ry

     iteration #  2     ecut=    80.00 Ry     beta= 0.70
     Davidson diagonalization with overlap
     ethr =  5.29E-04,  avg # of iterations =  3.4

     total cpu time spent up to now is       64.6 secs

     total energy              =     -45.25218928 Ry
     estimated scf accuracy    <       0.76021906 Ry

     iteration #  3     ecut=    80.00 Ry     beta= 0.70
     Davidson diagonalization with overlap
     ethr =  5.29E-04,  avg # of iterations =  2.5

     total cpu time spent up to now is       65.7 secs

     total energy              =     -45.30135248 Ry
     estimated scf accuracy    <       0.05275747 Ry

     iteration #  4     ecut=    80.00 Ry     beta= 0.70
     Davidson diagonalization with overlap
     ethr =  3.77E-04,  avg # of iterations =  1.1

     total cpu time spent up to now is       66.6 secs

     total energy              =     -45.30168496 Ry
     estimated scf accuracy    <       0.01712061 Ry

     iteration #  5     ecut=    80.00 Ry     beta= 0.70
     Davidson diagonalization with overlap
     ethr =  1.22E-04,  avg # of iterations =  1.5

     total cpu time spent up to now is       67.6 secs

     total energy              =     -45.30192227 Ry
     estimated scf accuracy    <       0.00817340 Ry

     iteration #  6     ecut=    80.00 Ry     beta= 0.70
     Davidson diagonalization with overlap
     ethr =  5.84E-05,  avg # of iterations =  1.3

     total cpu time spent up to now is       68.5 secs

     total energy              =     -45.30118763 Ry
     estimated scf accuracy    <       0.00576976 Ry

     iteration #  7     ecut=    80.00 Ry     beta= 0.70
     Davidson diagonalization with overlap
     ethr =  4.12E-05,  avg # of iterations =  1.2

     total cpu time spent up to now is       69.4 secs

     total energy              =     -45.30094562 Ry
     estimated scf accuracy    <       0.00165052 Ry

     iteration #  8     ecut=    80.00 Ry     beta= 0.70
     Davidson diagonalization with overlap
     ethr =  1.18E-05,  avg # of iterations =  2.9

     total cpu time spent up to now is       70.5 secs

     total energy              =     -45.30122962 Ry
     estimated scf accuracy    <       0.00001016 Ry

     iteration #  9     ecut=    80.00 Ry     beta= 0.70
     Davidson diagonalization with overlap
     ethr =  7.26E-08,  avg # of iterations =  4.2

     total cpu time spent up to now is       71.8 secs

     total energy              =     -45.30124609 Ry
     estimated scf accuracy    <       0.00000134 Ry

     iteration # 10     ecut=    80.00 Ry     beta= 0.70
     Davidson diagonalization with overlap
     ethr =  9.55E-09,  avg # of iterations =  1.0

     total cpu time spent up to now is       72.7 secs

     total energy              =     -45.30124926 Ry
     estimated scf accuracy    <       0.00000144 Ry

     iteration # 11     ecut=    80.00 Ry     beta= 0.70
     Davidson diagonalization with overlap
     ethr =  9.55E-09,  avg # of iterations =  3.4

     total cpu time spent up to now is       73.9 secs

     total energy              =     -45.30125944 Ry
     estimated scf accuracy    <       0.00004316 Ry

     iteration # 12     ecut=    80.00 Ry     beta= 0.70
     Davidson diagonalization with overlap
     ethr =  9.55E-09,  avg # of iterations =  1.9

     total cpu time spent up to now is       74.9 secs

     total energy              =     -45.30125244 Ry
     estimated scf accuracy    <       0.00007173 Ry

     iteration # 13     ecut=    80.00 Ry     beta= 0.70
     Davidson diagonalization with overlap
     ethr =  9.55E-09,  avg # of iterations =  2.0

     total cpu time spent up to now is       75.9 secs

     total energy              =     -45.30124816 Ry
     estimated scf accuracy    <       0.00003876 Ry

     iteration # 14     ecut=    80.00 Ry     beta= 0.70
     Davidson diagonalization with overlap
     ethr =  9.55E-09,  avg # of iterations =  2.1

     total cpu time spent up to now is       77.0 secs

     total energy              =     -45.30124593 Ry
     estimated scf accuracy    <       0.00001664 Ry

     iteration # 15     ecut=    80.00 Ry     beta= 0.70
     Davidson diagonalization with overlap
     ethr =  9.55E-09,  avg # of iterations =  2.1

     total cpu time spent up to now is       78.0 secs

     total energy              =     -45.30124568 Ry
     estimated scf accuracy    <       0.00000443 Ry

     iteration # 16     ecut=    80.00 Ry     beta= 0.70
     Davidson diagonalization with overlap
     ethr =  9.55E-09,  avg # of iterations =  1.9

     total cpu time spent up to now is       79.0 secs

     total energy              =     -45.30124582 Ry
     estimated scf accuracy    <       0.00000088 Ry

     iteration # 17     ecut=    80.00 Ry     beta= 0.70
     Davidson diagonalization with overlap
     ethr =  6.29E-09,  avg # of iterations =  1.0

     total cpu time spent up to now is       79.9 secs

     total energy              =     -45.30124569 Ry
     estimated scf accuracy    <       0.00000043 Ry

     iteration # 18     ecut=    80.00 Ry     beta= 0.70
     Davidson diagonalization with overlap
     ethr =  3.06E-09,  avg # of iterations =  1.9

     total cpu time spent up to now is       80.9 secs

     End of self-consistent calculation

          k = 0.0000 0.0000 0.0000 (  8051 PWs)   bands (ev):

   -38.4124 -38.3043  -4.0330  -1.4630   3.2891   9.2967  12.6665  12.9133
    12.9133  13.2097  13.2097

          k =-0.5451-0.3147 0.0867 (  8056 PWs)   bands (ev):

   -38.4062 -38.2923  -3.3937  -0.6212   3.8488   7.9191   9.5819  10.0237
    11.6883  12.6530  13.9854

          k =-1.0901-0.6294 0.1734 (  8065 PWs)   bands (ev):

   -38.3962 -38.2730  -1.6385   1.7571   2.9808   5.8286   6.4508   8.4343
     9.6803  11.8961  12.6210

          k =-0.5451 0.3147 0.1734 (  8053 PWs)   bands (ev):

   -38.4062 -38.2923  -3.3911  -0.6423   3.9460   7.9051   9.4128   9.9925
    11.1161  13.3035  14.2687

          k =-1.0901 0.0000 0.2601 (  8062 PWs)   bands (ev):

   -38.3981 -38.2767  -2.1385   0.9781   4.6704   5.0323   7.4706   8.8587
     9.0591  11.1476  12.2984

          k = 1.0901 1.2588-0.0867 (  8050 PWs)   bands (ev):

   -38.3931 -38.2670  -0.3708   1.6455   4.2365   4.5012   5.6132   7.7260
     8.7455   9.1417  12.2040

          k = 0.5451 0.9441 0.0000 (  8070 PWs)   bands (ev):

   -38.3981 -38.2767  -2.1439   1.0344   4.7353   4.7696   7.5312   8.7513
     9.1150  11.1823  13.3081

          k =-1.0901 0.6294 0.3467 (  8064 PWs)   bands (ev):

   -38.3962 -38.2729  -1.6459   1.6739   3.1817   5.8194   6.3082   8.3844
     9.8795  11.2710  13.1781

          k = 1.0901 1.8882 0.0000 (  8064 PWs)   bands (ev):

   -38.3931 -38.2670  -0.3983   1.7320   4.1199   4.5141   5.6651   7.1600
     9.1285  10.5788  11.7532

          k = 0.0000-0.0000 0.2601 (  8049 PWs)   bands (ev):

   -38.4124 -38.3043  -4.0244  -1.5142   3.5278   8.4858  12.9237  12.9237
    13.1796  13.1796  13.7548

          k =-0.5451-0.3147 0.3467 (  8066 PWs)   bands (ev):

   -38.4062 -38.2924  -3.3816  -0.7017   4.2022   7.9336   8.6326  10.0249
    11.7193  13.5262  13.9677

          k = 1.6352 0.9441 0.0000 (  8064 PWs)   bands (ev):

   -38.3962 -38.2730  -1.6344   1.7044   2.9546   5.7766   7.0987   8.4216
     9.3840  10.7481  12.7366

          k = 1.0901 0.6294 0.0867 (  8068 PWs)   bands (ev):

   -38.3962 -38.2729  -1.6456   1.7323   3.1388   5.8224   6.0907   8.4107
     9.8113  12.6149  12.8476

          k =-0.5451 0.3147 0.4334 (  8075 PWs)   bands (ev):

   -38.4062 -38.2924  -3.3774  -0.7337   4.3974   7.8624   8.3699   9.9750
    11.2574  13.7513  14.4566

          k = 1.6352 1.5735 0.0867 (  8064 PWs)   bands (ev):

   -38.3981 -38.2767  -2.1296   0.8921   4.6875   5.3468   7.3869   8.9636
     9.2940  10.1218  12.4581

          k = 1.0901 1.2588 0.1734 (  8062 PWs)   bands (ev):

   -38.3931 -38.2670  -0.3879   1.6976   4.2091   4.4598   5.6311   7.3892
     8.9223   9.9262  12.0583

          k = 1.6352-0.9441-0.2601 (  8063 PWs)   bands (ev):

   -38.3962 -38.2730  -1.6390   1.6550   3.0689   5.7728   6.9827   8.3908
     9.6997  10.3138  13.0846

          k = 0.0000-0.0000 0.5201 (  8094 PWs)   bands (ev):

   -38.4123 -38.3044  -4.0102  -1.5937   4.0022   7.4338  12.9499  12.9499
    13.1217  13.1217  15.7557

          k = 2.1803 1.2588 0.1734 (  8063 PWs)   bands (ev):

   -38.4062 -38.2924  -3.3714  -0.7685   4.6013   7.8298   8.0072   9.9944
    11.4917  13.8991  14.2311

     the Fermi energy is     8.1570 ev

!    total energy              =     -45.30124576 Ry
     estimated scf accuracy    <          1.4E-11 Ry
     smearing contrib. (-TS)   =       0.00112198 Ry
     internal energy E=F+TS    =     -45.30236774 Ry

     The total energy is F=E-TS. E is the sum of the following terms:
     one-electron contribution =     -12.38364312 Ry
     hartree contribution      =       9.60097143 Ry
     xc contribution           =     -13.42722578 Ry
     ewald contribution        =     -29.09247028 Ry

     convergence has been achieved in  18 iterations

     Forces acting on atoms (cartesian axes, Ry/au):

     atom    1 type  1   force =     0.00000000   -0.00000000   -0.00000000
     atom    2 type  1   force =     0.00000000    0.00000000   -0.00000000
     atom    3 type  2   force =    -0.00000000   -0.00000000   -0.02310577
     atom    4 type  2   force =     0.00000000   -0.00000000    0.02310577
     The non-local contrib.  to forces
     atom    1 type  1   force =    -0.00000000    0.00000000    0.00000000
     atom    2 type  1   force =    -0.00000000    0.00000000    0.00000000
     atom    3 type  2   force =     0.00000000   -0.00000000    0.07257088
     atom    4 type  2   force =     0.00000000   -0.00000000   -0.07257088
     The ionic contribution  to forces
     atom    1 type  1   force =     0.00000000   -0.00000000    0.00000000
     atom    2 type  1   force =    -0.00000000    0.00000000    0.00000000
     atom    3 type  2   force =    -0.00000000    0.00000000   -2.86819124
     atom    4 type  2   force =    -0.00000000   -0.00000000    2.86819124
     The local contribution  to forces
     atom    1 type  1   force =    -0.00000000   -0.00000000   -0.00000000
     atom    2 type  1   force =     0.00000000    0.00000000   -0.00000000
     atom    3 type  2   force =    -0.00000000   -0.00000000    2.77413268
     atom    4 type  2   force =     0.00000000    0.00000000   -2.77413268
     The core correction contribution to forces
     atom    1 type  1   force =     0.00000000    0.00000000    0.00000000
     atom    2 type  1   force =     0.00000000    0.00000000    0.00000000
     atom    3 type  2   force =     0.00000000   -0.00000000   -0.00161642
     atom    4 type  2   force =    -0.00000000    0.00000000    0.00161642
     The Hubbard contrib.    to forces
     atom    1 type  1   force =     0.00000000    0.00000000    0.00000000
     atom    2 type  1   force =     0.00000000    0.00000000    0.00000000
     atom    3 type  2   force =     0.00000000    0.00000000    0.00000000
     atom    4 type  2   force =     0.00000000    0.00000000    0.00000000
     The SCF correction term to forces
     atom    1 type  1   force =    -0.00000000   -0.00000000    0.00000000
     atom    2 type  1   force =     0.00000000   -0.00000000   -0.00000000
     atom    3 type  2   force =    -0.00000000   -0.00000000   -0.00000167
     atom    4 type  2   force =     0.00000000    0.00000000    0.00000167

     Total force =     0.032676     Total SCF correction =     0.000002


     Computing stress (Cartesian axis) and pressure

          total   stress  (Ry/bohr**3)                   (kbar)     P=      477.88
   0.00291542  -0.00000000  -0.00000000          428.87       -0.00       -0.00
   0.00000000   0.00291542   0.00000000            0.00      428.87        0.00
  -0.00000000   0.00000000   0.00391490           -0.00        0.00      575.90

     Energy error            =      5.0E-03 Ry
     Gradient error          =      2.3E-02 Ry/Bohr
     Cell gradient error     =      7.6E+01 kbar

     number of scf cycles    =   4
     number of bfgs steps    =   3

     enthalpy           old  =     -44.2059120168 Ry
     enthalpy           new  =     -44.2108994692 Ry

     CASE: enthalpy          _new < enthalpy          _old

     new trust radius        =       0.1418613511 bohr
ibrav =      5
 celldm(1) =     12.64157798
 celldm(4) =      0.90346114
Input lattice vectors:
     0.18160140    -0.10484762     0.79953534
    -0.00000000     0.20969523     0.79953534
    -0.18160140    -0.10484762     0.79953534
New lattice vectors in INITIAL alat:
     0.18160140    -0.10484762     0.79953534
     0.00000000     0.20969523     0.79953534
    -0.18160140    -0.10484762     0.79953534
New lattice vectors in NEW alat (for information only):
     0.21970305    -0.12684562     0.96728525
     0.00000000     0.25369124     0.96728525
    -0.21970305    -0.12684562     0.96728525
Discrepancy in bohr =     0.000000    0.000000    0.000000
     new conv_thr            =       0.0000000023 Ry

     new unit-cell volume =    326.75425 a.u.^3 (    48.41998 Ang^3 )
     density =      2.40243 g/cm^3

CELL_PARAMETERS (alat= 15.29389801)
   0.181601400  -0.104847617   0.799535339
   0.000000000   0.209695235   0.799535339
  -0.181601400  -0.104847617   0.799535339

ATOMIC_POSITIONS (crystal)
Li            0.0000000000       -0.0000000000        0.0000000000
Li            0.5000000000        0.5000000000        0.5000000000
Si            0.1097098453        0.1097098453        0.1097098453
Si            0.8902901547        0.8902901547        0.8902901547



     Writing config-only to output data dir ./output/LiSi.save/
     NEW-OLD atomic charge density approx. for the potential
     extrapolated charge   14.25531, renormalised to   14.00000

     total cpu time spent up to now is       83.2 secs

     Self-consistent Calculation

     iteration #  1     ecut=    80.00 Ry     beta= 0.70
     Davidson diagonalization with overlap
     ethr =  1.00E-06,  avg # of iterations =  8.6

     total cpu time spent up to now is       85.7 secs

     total energy              =     -45.29220289 Ry
     estimated scf accuracy    <       0.04993517 Ry

     iteration #  2     ecut=    80.00 Ry     beta= 0.70
     Davidson diagonalization with overlap
     ethr =  3.57E-04,  avg # of iterations =  3.3

     total cpu time spent up to now is       86.9 secs

     total energy              =     -45.27714870 Ry
     estimated scf accuracy    <       0.57973348 Ry

     iteration #  3     ecut=    80.00 Ry     beta= 0.70
     Davidson diagonalization with overlap
     ethr =  3.57E-04,  avg # of iterations =  2.3

     total cpu time spent up to now is       88.0 secs

     total energy              =     -45.33541575 Ry
     estimated scf accuracy    <       0.01248374 Ry

     iteration #  4     ecut=    80.00 Ry     beta= 0.70
     Davidson diagonalization with overlap
     ethr =  8.92E-05,  avg # of iterations =  2.1

     total cpu time spent up to now is       89.0 secs

     total energy              =     -45.33613434 Ry
     estimated scf accuracy    <       0.00171977 Ry

     iteration #  5     ecut=    80.00 Ry     beta= 0.70
     Davidson diagonalization with overlap
     ethr =  1.23E-05,  avg # of iterations =  3.9

     total cpu time spent up to now is       90.1 secs

     total energy              =     -45.33651008 Ry
     estimated scf accuracy    <       0.00000225 Ry

     iteration #  6     ecut=    80.00 Ry     beta= 0.70
     Davidson diagonalization with overlap
     ethr =  1.61E-08,  avg # of iterations =  4.7

     total cpu time spent up to now is       91.4 secs

     total energy              =     -45.33652111 Ry
     estimated scf accuracy    <       0.00000466 Ry

     iteration #  7     ecut=    80.00 Ry     beta= 0.70
     Davidson diagonalization with overlap
     ethr =  1.61E-08,  avg # of iterations =  2.0

     total cpu time spent up to now is       92.4 secs

     total energy              =     -45.33652227 Ry
     estimated scf accuracy    <       0.00000055 Ry

     iteration #  8     ecut=    80.00 Ry     beta= 0.70
     Davidson diagonalization with overlap
     ethr =  3.94E-09,  avg # of iterations =  1.0

     total cpu time spent up to now is       93.3 secs

     total energy              =     -45.33652226 Ry
     estimated scf accuracy    <       0.00000011 Ry

     iteration #  9     ecut=    80.00 Ry     beta= 0.70
     Davidson diagonalization with overlap
     ethr =  7.63E-10,  avg # of iterations =  2.0

     total cpu time spent up to now is       94.3 secs

     total energy              =     -45.33652229 Ry
     estimated scf accuracy    <          5.9E-09 Ry

     iteration # 10     ecut=    80.00 Ry     beta= 0.70
     Davidson diagonalization with overlap
     ethr =  4.21E-11,  avg # of iterations =  2.0

     total cpu time spent up to now is       95.3 secs

     End of self-consistent calculation

          k = 0.0000 0.0000 0.0000 (  8051 PWs)   bands (ev):

   -38.4404 -38.3747  -4.1804  -1.9261   2.9868   8.3743  11.7857  13.2318
    13.2318  13.5518  13.5518

          k =-0.5507-0.3179 0.0834 (  8056 PWs)   bands (ev):

   -38.4275 -38.3679  -3.5107  -1.0598   3.5712   8.0668   8.8556  10.3189
    11.4630  11.9904  13.9978

          k =-1.1013-0.6358 0.1668 (  8065 PWs)   bands (ev):

   -38.4066 -38.3569  -1.6627   1.4242   2.9387   5.6092   6.1742   8.6996
     9.4500  11.1071  12.5902

          k =-0.5507 0.3179 0.1668 (  8053 PWs)   bands (ev):

   -38.4275 -38.3679  -3.5084  -1.0757   3.6540   8.0688   8.6142  10.2935
    11.0445  12.6286  14.2116

          k =-1.1013 0.0000 0.2501 (  8062 PWs)   bands (ev):

   -38.4106 -38.3590  -2.1965   0.6031   4.6896   4.9354   7.4500   8.5312
     8.9249  10.4879  12.0149

          k = 1.1013 1.2717-0.0834 (  8050 PWs)   bands (ev):

   -38.4002 -38.3534  -0.3298   1.6638   4.0081   4.1653   5.5730   7.4985
     8.5022   8.9580  11.5786

          k = 0.5507 0.9538 0.0000 (  8070 PWs)   bands (ev):

   -38.4106 -38.3590  -2.2016   0.6475   4.5654   4.8803   7.4988   8.5112
     8.9845  10.6304  12.6132

          k =-1.1013 0.6358 0.3335 (  8064 PWs)   bands (ev):

   -38.4066 -38.3568  -1.6672   1.3570   3.1162   5.6091   6.0660   8.6589
     9.3548  10.9336  13.0026

          k = 1.1013 1.9075 0.0000 (  8064 PWs)   bands (ev):

   -38.4002 -38.3534  -0.3521   1.7370   3.8594   4.2464   5.6136   7.0162
     8.7733  10.1850  11.1585

          k =-0.0000-0.0000 0.2501 (  8049 PWs)   bands (ev):

   -38.4404 -38.3748  -4.1729  -1.9644   3.1959   7.6565  12.7959  13.2417
    13.2417  13.5256  13.5256

          k =-0.5507-0.3179 0.3335 (  8066 PWs)   bands (ev):

   -38.4275 -38.3679  -3.5000  -1.1211   3.8859   7.8727   8.1500  10.3199
    11.4602  13.1010  13.9848

          k = 1.6520 0.9538 0.0000 (  8064 PWs)   bands (ev):

   -38.4066 -38.3569  -1.6583   1.3732   2.9330   5.5757   6.6925   8.6893
     9.2427  10.0612  12.6797

          k = 1.1013 0.6358 0.0834 (  8068 PWs)   bands (ev):

   -38.4066 -38.3568  -1.6681   1.4112   3.0619   5.6007   5.8856   8.6804
     9.4297  12.1493  12.7641

          k =-0.5507 0.3179 0.4169 (  8075 PWs)   bands (ev):

   -38.4275 -38.3680  -3.4961  -1.1456   4.0541   7.5828   8.1035  10.2793
    11.1576  13.4486  14.3474

          k = 1.6520 1.5896 0.0834 (  8064 PWs)   bands (ev):

   -38.4106 -38.3590  -2.1881   0.5344   4.8311   5.1049   7.3814   8.4527
     9.1084   9.7131  12.1616

          k = 1.1013 1.2717 0.1668 (  8062 PWs)   bands (ev):

   -38.4002 -38.3534  -0.3437   1.7080   3.9360   4.1930   5.5879   7.2073
     8.6374   9.6176  11.4218

          k = 1.6520-0.9538-0.2501 (  8063 PWs)   bands (ev):

   -38.4066 -38.3569  -1.6612   1.3337   3.0342   5.5759   6.6259   8.6642
     9.1891  10.0117  12.9375

          k =-0.0000-0.0000 0.5003 (  8094 PWs)   bands (ev):

   -38.4404 -38.3748  -4.1604  -2.0247   3.6161   6.7040  13.2637  13.2637
    13.4775  13.4775  14.7409

          k = 2.2026 1.2717 0.1668 (  8063 PWs)   bands (ev):

   -38.4275 -38.3680  -3.4908  -1.1726   4.2418   7.2240   8.1003  10.2951
    11.3172  13.8041  14.1858

     the Fermi energy is     8.1536 ev

!    total energy              =     -45.33652229 Ry
     estimated scf accuracy    <          2.9E-10 Ry
     smearing contrib. (-TS)   =      -0.00092354 Ry
     internal energy E=F+TS    =     -45.33559874 Ry

     The total energy is F=E-TS. E is the sum of the following terms:
     one-electron contribution =     -12.62294654 Ry
     hartree contribution      =       9.61980087 Ry
     xc contribution           =     -13.37272119 Ry
     ewald contribution        =     -28.95973188 Ry

     convergence has been achieved in  10 iterations

     Forces acting on atoms (cartesian axes, Ry/au):

     atom    1 type  1   force =     0.00000000    0.00000000   -0.00000000
     atom    2 type  1   force =     0.00000000    0.00000000    0.00000000
     atom    3 type  2   force =     0.00000000   -0.00000000   -0.06268875
     atom    4 type  2   force =    -0.00000000   -0.00000000    0.06268875
     The non-local contrib.  to forces
     atom    1 type  1   force =     0.00000000    0.00000000   -0.00000000
     atom    2 type  1   force =     0.00000000    0.00000000    0.00000000
     atom    3 type  2   force =    -0.00000000    0.00000000    0.04747101
     atom    4 type  2   force =     0.00000000   -0.00000000   -0.04747101
     The ionic contribution  to forces
     atom    1 type  1   force =     0.00000000    0.00000000    0.00000000
     atom    2 type  1   force =    -0.00000000   -0.00000000    0.00000000
     atom    3 type  2   force =     0.00000000    0.00000000   -2.99944107
     atom    4 type  2   force =     0.00000000   -0.00000000    2.99944107
     The local contribution  to forces
     atom    1 type  1   force =    -0.00000000    0.00000000    0.00000000
     atom    2 type  1   force =     0.00000000    0.00000000   -0.00000000
     atom    3 type  2   force =    -0.00000000   -0.00000000    2.88986908
     atom    4 type  2   force =     0.00000000    0.00000000   -2.88986908
     The core correction contribution to forces
     atom    1 type  1   force =     0.00000000    0.00000000    0.00000000
     atom    2 type  1   force =     0.00000000    0.00000000    0.00000000
     atom    3 type  2   force =     0.00000000   -0.00000000   -0.00061077
     atom    4 type  2   force =    -0.00000000    0.00000000    0.00061077
     The Hubbard contrib.    to forces
     atom    1 type  1   force =     0.00000000    0.00000000    0.00000000
     atom    2 type  1   force =     0.00000000    0.00000000    0.00000000
     atom    3 type  2   force =     0.00000000    0.00000000    0.00000000
     atom    4 type  2   force =     0.00000000    0.00000000    0.00000000
     The SCF correction term to forces
     atom    1 type  1   force =     0.00000000    0.00000000   -0.00000000
     atom    2 type  1   force =     0.00000000   -0.00000000   -0.00000000
     atom    3 type  2   force =    -0.00000000    0.00000000    0.00002301
     atom    4 type  2   force =     0.00000000   -0.00000000   -0.00002301

     Total force =     0.088655     Total SCF correction =     0.000033


     Computing stress (Cartesian axis) and pressure

          total   stress  (Ry/bohr**3)                   (kbar)     P=      420.18
   0.00231106  -0.00000000  -0.00000000          339.97       -0.00       -0.00
   0.00000000   0.00231106   0.00000000            0.00      339.97        0.00
  -0.00000000   0.00000000   0.00394691           -0.00        0.00      580.61

     Energy error            =      1.5E-02 Ry
     Gradient error          =      6.3E-02 Ry/Bohr
     Cell gradient error     =      1.6E+02 kbar

     number of scf cycles    =   5
     number of bfgs steps    =   4

     enthalpy           old  =     -44.2108994692 Ry
     enthalpy           new  =     -44.2259071709 Ry

     CASE: enthalpy          _new < enthalpy          _old


     WARNING: bfgs curvature condition failed, Theta= 0.486
     new trust radius        =       0.0515612752 bohr
ibrav =      5
 celldm(1) =     12.80856948
 celldm(4) =      0.90637809
Input lattice vectors:
     0.18119916    -0.10461539     0.81093838
    -0.00000000     0.20923077     0.81093838
    -0.18119916    -0.10461539     0.81093838
New lattice vectors in INITIAL alat:
     0.18119916    -0.10461539     0.81093838
     0.00000000     0.20923077     0.81093838
    -0.18119916    -0.10461539     0.81093838
New lattice vectors in NEW alat (for information only):
     0.21635839    -0.12491458     0.96828993
     0.00000000     0.24982915     0.96828993
    -0.21635839    -0.12491458     0.96828993
Discrepancy in bohr =     0.000000    0.000000    0.000000
     new conv_thr            =       0.0000000063 Ry

     new unit-cell volume =    329.94794 a.u.^3 (    48.89324 Ang^3 )
     density =      2.37918 g/cm^3

CELL_PARAMETERS (alat= 15.29389801)
   0.181199163  -0.104615386   0.810938381
   0.000000000   0.209230771   0.810938381
  -0.181199163  -0.104615386   0.810938381

ATOMIC_POSITIONS (crystal)
Li            0.0000000000       -0.0000000000        0.0000000000
Li            0.5000000000        0.5000000000        0.5000000000
Si            0.1094783485        0.1094783485        0.1094783485
Si            0.8905216515        0.8905216515        0.8905216515



     Writing config-only to output data dir ./output/LiSi.save/
     NEW-OLD atomic charge density approx. for the potential
     extrapolated charge   14.13541, renormalised to   14.00000

     total cpu time spent up to now is       97.7 secs

     Self-consistent Calculation

     iteration #  1     ecut=    80.00 Ry     beta= 0.70
     Davidson diagonalization with overlap
     ethr =  1.00E-06,  avg # of iterations =  6.4

     total cpu time spent up to now is       99.5 secs

     total energy              =     -45.34392959 Ry
     estimated scf accuracy    <       0.00870087 Ry

     iteration #  2     ecut=    80.00 Ry     beta= 0.70
     Davidson diagonalization with overlap
     ethr =  6.21E-05,  avg # of iterations =  3.4

     total cpu time spent up to now is      100.7 secs

     total energy              =     -45.34426812 Ry
     estimated scf accuracy    <       0.09512672 Ry

     iteration #  3     ecut=    80.00 Ry     beta= 0.70
     Davidson diagonalization with overlap
     ethr =  6.21E-05,  avg # of iterations =  2.6

     total cpu time spent up to now is      101.8 secs

     total energy              =     -45.35197179 Ry
     estimated scf accuracy    <       0.00509349 Ry

     iteration #  4     ecut=    80.00 Ry     beta= 0.70
     Davidson diagonalization with overlap
     ethr =  3.64E-05,  avg # of iterations =  2.0

     total cpu time spent up to now is      102.7 secs

     total energy              =     -45.35238816 Ry
     estimated scf accuracy    <       0.00041313 Ry

     iteration #  5     ecut=    80.00 Ry     beta= 0.70
     Davidson diagonalization with overlap
     ethr =  2.95E-06,  avg # of iterations =  3.6

     total cpu time spent up to now is      103.7 secs

     total energy              =     -45.35241186 Ry
     estimated scf accuracy    <       0.00009371 Ry

     iteration #  6     ecut=    80.00 Ry     beta= 0.70
     Davidson diagonalization with overlap
     ethr =  6.69E-07,  avg # of iterations =  2.1

     total cpu time spent up to now is      104.6 secs

     total energy              =     -45.35241763 Ry
     estimated scf accuracy    <       0.00001118 Ry

     iteration #  7     ecut=    80.00 Ry     beta= 0.70
     Davidson diagonalization with overlap
     ethr =  7.98E-08,  avg # of iterations =  2.8

     total cpu time spent up to now is      105.6 secs

     total energy              =     -45.35242090 Ry
     estimated scf accuracy    <       0.00000080 Ry

     iteration #  8     ecut=    80.00 Ry     beta= 0.70
     Davidson diagonalization with overlap
     ethr =  5.71E-09,  avg # of iterations =  2.0

     total cpu time spent up to now is      106.5 secs

     total energy              =     -45.35242094 Ry
     estimated scf accuracy    <       0.00000010 Ry

     iteration #  9     ecut=    80.00 Ry     beta= 0.70
     Davidson diagonalization with overlap
     ethr =  7.27E-10,  avg # of iterations =  2.3

     total cpu time spent up to now is      107.5 secs

     total energy              =     -45.35242098 Ry
     estimated scf accuracy    <       0.00000006 Ry

     iteration # 10     ecut=    80.00 Ry     beta= 0.70
     Davidson diagonalization with overlap
     ethr =  4.20E-10,  avg # of iterations =  1.0

     total cpu time spent up to now is      108.3 secs

     total energy              =     -45.35242098 Ry
     estimated scf accuracy    <       0.00000001 Ry

     iteration # 11     ecut=    80.00 Ry     beta= 0.70
     Davidson diagonalization with overlap
     ethr =  7.40E-11,  avg # of iterations =  2.1

     total cpu time spent up to now is      109.3 secs

     End of self-consistent calculation

          k = 0.0000 0.0000 0.0000 (  8051 PWs)   bands (ev):

   -38.4922 -38.4491  -4.2375  -2.0853   2.8674   8.0517  11.4508  13.3023
    13.3023  13.6183  13.6183

          k =-0.5519-0.3186 0.0822 (  8056 PWs)   bands (ev):

   -38.4791 -38.4421  -3.5582  -1.2136   3.4596   8.0744   8.5915  10.3864
    11.3575  11.7163  13.9535

          k =-1.1038-0.6373 0.1644 (  8065 PWs)   bands (ev):

   -38.4579 -38.4309  -1.6799   1.2935   2.9105   5.5107   6.0593   8.7613
     9.3387  10.8225  12.5363

          k =-0.5519 0.3186 0.1644 (  8053 PWs)   bands (ev):

   -38.4791 -38.4422  -3.5559  -1.2281   3.5385   8.0916   8.3277  10.3628
    10.9745  12.3388  14.1469

          k =-1.1038 0.0000 0.2466 (  8062 PWs)   bands (ev):

   -38.4620 -38.4330  -2.2253   0.4642   4.6212   4.9392   7.4099   8.3884
     8.8458  10.2517  11.8723

          k = 1.1038 1.2745-0.0822 (  8050 PWs)   bands (ev):

   -38.4514 -38.4274  -0.3260   1.6488   3.9072   4.0403   5.5400   7.3930
     8.3906   8.8665  11.3407

          k = 0.5519 0.9559 0.0000 (  8070 PWs)   bands (ev):

   -38.4620 -38.4330  -2.2304   0.5053   4.4770   4.9100   7.4545   8.4011
     8.9039  10.4121  12.3409

          k =-1.1038 0.6373 0.3288 (  8064 PWs)   bands (ev):

   -38.4580 -38.4309  -1.6836   1.2315   3.0798   5.5125   5.9616   8.7232
     9.1479  10.7958  12.9077

          k = 1.1038 1.9118 0.0000 (  8064 PWs)   bands (ev):

   -38.4514 -38.4274  -0.3466   1.7174   3.7559   4.1331   5.5760   6.9406
     8.6338  10.0238  10.9335

          k =-0.0000-0.0000 0.2466 (  8049 PWs)   bands (ev):

   -38.4921 -38.4492  -4.2302  -2.1204   3.0683   7.3612  12.4346  13.3120
    13.3120  13.5935  13.5935

          k =-0.5519-0.3186 0.3288 (  8066 PWs)   bands (ev):

   -38.4791 -38.4422  -3.5477  -1.2697   3.7634   7.6284   8.1567  10.3874
    11.3379  12.8831  13.9418

          k = 1.6556 0.9559 0.0000 (  8064 PWs)   bands (ev):

   -38.4579 -38.4309  -1.6754   1.2445   2.9086   5.4834   6.5412   8.7516
     9.1470   9.8203  12.6180

          k = 1.1038 0.6373 0.0822 (  8068 PWs)   bands (ev):

   -38.4580 -38.4309  -1.6849   1.2832   3.0244   5.5012   5.7913   8.7433
     9.2700  11.9310  12.6946

          k =-0.5519 0.3186 0.4110 (  8075 PWs)   bands (ev):

   -38.4790 -38.4422  -3.5439  -1.2923   3.9244   7.3315   8.1193  10.3495
    11.0839  13.2568  14.2682

          k = 1.6556 1.5931 0.0822 (  8064 PWs)   bands (ev):

   -38.4620 -38.4331  -2.2169   0.4006   4.8472   5.0171   7.3470   8.2480
     9.0149   9.5588  12.0274

          k = 1.1038 1.2745 0.1644 (  8062 PWs)   bands (ev):

   -38.4514 -38.4274  -0.3388   1.6902   3.8272   4.0821   5.5532   7.1188
     8.5151   9.4863  11.1820

          k = 1.6556-0.9559-0.2466 (  8063 PWs)   bands (ev):

   -38.4579 -38.4309  -1.6777   1.2080   3.0054   5.4845   6.4871   8.7282
     8.9727   9.9005  12.8500

          k =-0.0000-0.0000 0.4933 (  8094 PWs)   bands (ev):

   -38.4920 -38.4492  -4.2181  -2.1757   3.4739   6.4386  13.3329  13.3329
    13.5483  13.5483  14.3522

          k = 2.2075 1.2745 0.1644 (  8063 PWs)   bands (ev):

   -38.4790 -38.4422  -3.5388  -1.3172   4.1076   6.9728   8.1261  10.3643
    11.2207  13.6996  14.1243

     the Fermi energy is     8.1299 ev

!    total energy              =     -45.35242098 Ry
     estimated scf accuracy    <          1.2E-10 Ry
     smearing contrib. (-TS)   =      -0.00222171 Ry
     internal energy E=F+TS    =     -45.35019927 Ry

     The total energy is F=E-TS. E is the sum of the following terms:
     one-electron contribution =     -12.78872067 Ry
     hartree contribution      =       9.65202597 Ry
     xc contribution           =     -13.35104261 Ry
     ewald contribution        =     -28.86246196 Ry

     convergence has been achieved in  11 iterations

     Forces acting on atoms (cartesian axes, Ry/au):

     atom    1 type  1   force =    -0.00000000   -0.00000000   -0.00000000
     atom    2 type  1   force =    -0.00000000    0.00000000    0.00000000
     atom    3 type  2   force =    -0.00000000    0.00000000   -0.07352958
     atom    4 type  2   force =    -0.00000000    0.00000000    0.07352958
     The non-local contrib.  to forces
     atom    1 type  1   force =     0.00000000   -0.00000000   -0.00000000
     atom    2 type  1   force =    -0.00000000    0.00000000   -0.00000000
     atom    3 type  2   force =     0.00000000   -0.00000000    0.03933493
     atom    4 type  2   force =    -0.00000000    0.00000000   -0.03933493
     The ionic contribution  to forces
     atom    1 type  1   force =     0.00000000    0.00000000    0.00000000
     atom    2 type  1   force =     0.00000000   -0.00000000    0.00000000
     atom    3 type  2   force =     0.00000000    0.00000000   -3.04195804
     atom    4 type  2   force =     0.00000000   -0.00000000    3.04195804
     The local contribution  to forces
     atom    1 type  1   force =     0.00000000    0.00000000    0.00000000
     atom    2 type  1   force =     0.00000000    0.00000000   -0.00000000
     atom    3 type  2   force =    -0.00000000   -0.00000000    2.92935767
     atom    4 type  2   force =     0.00000000    0.00000000   -2.92935767
     The core correction contribution to forces
     atom    1 type  1   force =     0.00000000    0.00000000    0.00000000
     atom    2 type  1   force =     0.00000000    0.00000000    0.00000000
     atom    3 type  2   force =     0.00000000   -0.00000000   -0.00027858
     atom    4 type  2   force =    -0.00000000    0.00000000    0.00027858
     The Hubbard contrib.    to forces
     atom    1 type  1   force =     0.00000000    0.00000000    0.00000000
     atom    2 type  1   force =     0.00000000    0.00000000    0.00000000
     atom    3 type  2   force =     0.00000000    0.00000000    0.00000000
[...]
   0.00000000   0.00000000   0.00339493            0.00        0.00      499.41

     Energy error            =      1.5E-06 Ry
     Gradient error          =      1.6E-04 Ry/Bohr
     Cell gradient error     =      6.1E-01 kbar
ibrav =      5
 celldm(1) =     15.66431960
 celldm(4) =      0.95992021
Input lattice vectors:
     0.14499101    -0.08371060     1.01044406
     0.00000000     0.16742119     1.01044406
    -0.14499101    -0.08371060     1.01044406
New lattice vectors in INITIAL alat:
     0.14499101    -0.08371060     1.01044406
     0.00000000     0.16742119     1.01044406
    -0.14499101    -0.08371060     1.01044406
New lattice vectors in NEW alat (for information only):
     0.14156233    -0.08173105     0.98654961
     0.00000000     0.16346210     0.98654961
    -0.14156233    -0.08173105     0.98654961
Discrepancy in bohr =     0.000000    0.000000    0.000000

     bfgs converged in  23 scf cycles and  21 bfgs steps
     (criteria: energy <  1.0E-04 Ry, force <  1.0E-03 Ry/Bohr, cell <  1.0E+00 kbar)

     End of BFGS Geometry Optimization

     Final enthalpy           =     -44.6029457635 Ry

     File ./output/LiSi.bfgs deleted, as requested
Begin final coordinates
     new unit-cell volume =    263.23255 a.u.^3 (    39.00704 Ang^3 )
     density =      2.98217 g/cm^3

CELL_PARAMETERS (alat= 15.29389801)
   0.144991005  -0.083710596   1.010444064
   0.000000000   0.167421192   1.010444064
  -0.144991005  -0.083710596   1.010444064

ATOMIC_POSITIONS (crystal)
Li            0.0000000000       -0.0000000000       -0.0000000000
Li            0.5000000000        0.5000000000        0.5000000000
Si            0.0886710781        0.0886710781        0.0886710781
Si            0.9113289219        0.9113289219        0.9113289219
End final coordinates



     Writing config-only to output data dir ./output/LiSi.save/

     Final scf calculation at the relaxed structure.
     The G-vectors are recalculated for the final unit cell
     Results may differ from those at the preceding step.

     Parallelization info
     --------------------
     sticks:   dense  smooth     PW     G-vecs:    dense   smooth      PW
     Min         219     219     72                 3182     3182     604
     Max         220     220     73                 3183     3183     605
     Sum        1753    1753    581                25461    25461    4839

     Using Slab Decomposition



     bravais-lattice index     =            5
     lattice parameter (alat)  =      15.2939  a.u.
     unit-cell volume          =     263.2326 (a.u.)^3
     number of atoms/cell      =            4
     number of atomic types    =            2
     number of electrons       =        14.00
     number of Kohn-Sham states=           11
     kinetic-energy cutoff     =      80.0000  Ry
     charge density cutoff     =     320.0000  Ry
     scf convergence threshold =      1.0E-10
     mixing beta               =       0.7000
     number of iterations used =            8  plain     mixing
     press convergence thresh. =      1.0E+00
     Exchange-correlation= PBE
                           (   1   4   3   4   0   0   0)

     celldm(1)=  15.293898  celldm(2)=   0.000000  celldm(3)=   0.000000
     celldm(4)=   0.888074  celldm(5)=   0.000000  celldm(6)=   0.000000

     crystal axes: (cart. coord. in units of alat)
               a(1) = (   0.144991  -0.083711   1.010444 )  
               a(2) = (   0.000000   0.167421   1.010444 )  
               a(3) = (  -0.144991  -0.083711   1.010444 )  

     reciprocal axes: (cart. coord. in units 2 pi/alat)
               b(1) = (  3.448490 -1.990987  0.329888 )  
               b(2) = ( -0.000000  3.981973  0.329888 )  
               b(3) = ( -3.448490 -1.990987  0.329888 )  


     PseudoPot. # 1 for Li read from file:
     ../pseudo/Li_ONCV_PBE_sr.upf
     MD5 check sum: 50ff420e78310ffa21704f3361e624a4
     Pseudo is Norm-conserving, Zval =  3.0
     Generated using ONCVPSP code by D. R. Hamann
     Using radial grid of 1944 points,  4 beta functions with: 
                l(1) =   0
                l(2) =   0
                l(3) =   1
                l(4) =   1

     PseudoPot. # 2 for Si read from file:
     ../pseudo/Si_ONCV_PBE_sr.upf
     MD5 check sum: e543d271109d17c80368dfa7c482276d
     Pseudo is Norm-conserving + core correction, Zval =  4.0
     Generated using ONCVPSP code by D. R. Hamann
     Using radial grid of 1510 points,  6 beta functions with: 
                l(1) =   0
                l(2) =   0
                l(3) =   1
                l(4) =   1
                l(5) =   2
                l(6) =   2

     atomic species   valence    mass     pseudopotential
        Li             3.00     6.94100     Li( 1.00)
        Si             4.00    28.08550     Si( 1.00)

     12 Sym. Ops., with inversion, found



   Cartesian axes

     site n.     atom                  positions (alat units)
         1           Li  tau(   1) = (   0.0000000  -0.0000000  -0.0000000  )
         2           Li  tau(   2) = (  -0.0000000  -0.0000000   1.5156661  )
         3           Si  tau(   3) = (   0.0000000  -0.0000000   0.2687915  )
         4           Si  tau(   4) = (  -0.0000000  -0.0000000   2.7625407  )

     number of k points=    19  Marzari-Vanderbilt smearing, width (Ry)=  0.0200
                       cart. coord. in units 2pi/alat
        k(    1) = (   0.0000000   0.0000000   0.0000000), wk =   0.0160000
        k(    2) = (  -0.6896980  -0.3981973   0.0659776), wk =   0.0960000
        k(    3) = (  -1.3793959  -0.7963946   0.1319552), wk =   0.0960000
        k(    4) = (  -0.6896980   0.3981973   0.1319552), wk =   0.0960000
        k(    5) = (  -1.3793959  -0.0000000   0.1979328), wk =   0.1920000
        k(    6) = (   1.3793959   1.5927892  -0.0659776), wk =   0.1920000
        k(    7) = (   0.6896980   1.1945919   0.0000000), wk =   0.0960000
        k(    8) = (  -1.3793959   0.7963946   0.2639104), wk =   0.0960000
        k(    9) = (   1.3793959   2.3891838   0.0000000), wk =   0.0960000
        k(   10) = (  -0.0000000   0.0000000   0.1979328), wk =   0.0320000
        k(   11) = (  -0.6896980  -0.3981973   0.2639104), wk =   0.0960000
        k(   12) = (   2.0690939   1.1945919   0.0000000), wk =   0.0960000
        k(   13) = (   1.3793959   0.7963946   0.0659776), wk =   0.0960000
        k(   14) = (  -0.6896980   0.3981973   0.3298880), wk =   0.0960000
        k(   15) = (   2.0690939   1.9909865   0.0659776), wk =   0.1920000
        k(   16) = (   1.3793959   1.5927892   0.1319552), wk =   0.1920000
        k(   17) = (   2.0690939  -1.1945919  -0.1979328), wk =   0.0960000
        k(   18) = (  -0.0000000   0.0000000   0.3958656), wk =   0.0320000
        k(   19) = (   2.7587918   1.5927892   0.1319552), wk =   0.0960000

     Dense  grid:    25461 G-vectors     FFT dimensions: (  90,  90,  90)

     Estimated max dynamical RAM per process >      21.65 MB

     Estimated total dynamical RAM >     173.22 MB

     Initial potential from superposition of free atoms

     starting charge      13.9897, renormalised to      14.0000
     Starting wfcs are   12 randomized atomic wfcs

     total cpu time spent up to now is      374.8 secs

     Self-consistent Calculation

     iteration #  1     ecut=    80.00 Ry     beta= 0.70
     Davidson diagonalization with overlap
     c_bands:  2 eigenvalues not converged
     c_bands:  1 eigenvalues not converged
     c_bands:  2 eigenvalues not converged
     c_bands:  1 eigenvalues not converged
     c_bands:  2 eigenvalues not converged
     c_bands:  1 eigenvalues not converged
     c_bands:  1 eigenvalues not converged
     c_bands:  1 eigenvalues not converged
     c_bands:  3 eigenvalues not converged
     c_bands:  1 eigenvalues not converged
     ethr =  1.00E-06,  avg # of iterations = 17.9

     total cpu time spent up to now is      378.0 secs

     total energy              =     -45.38155631 Ry
     estimated scf accuracy    <       0.17173797 Ry

     iteration #  2     ecut=    80.00 Ry     beta= 0.70
     Davidson diagonalization with overlap
     ethr =  1.23E-03,  avg # of iterations =  3.2

     total cpu time spent up to now is      379.0 secs

     total energy              =     -45.15769956 Ry
     estimated scf accuracy    <       3.75276871 Ry

     iteration #  3     ecut=    80.00 Ry     beta= 0.70
     Davidson diagonalization with overlap
     ethr =  1.23E-03,  avg # of iterations =  2.8

     total cpu time spent up to now is      380.0 secs

     total energy              =     -45.49557549 Ry
     estimated scf accuracy    <       0.00472846 Ry

     iteration #  4     ecut=    80.00 Ry     beta= 0.70
     Davidson diagonalization with overlap
     ethr =  3.38E-05,  avg # of iterations =  4.1

     total cpu time spent up to now is      381.0 secs

     total energy              =     -45.49726329 Ry
     estimated scf accuracy    <       0.00165434 Ry

     iteration #  5     ecut=    80.00 Ry     beta= 0.70
     Davidson diagonalization with overlap
     ethr =  1.18E-05,  avg # of iterations =  1.8

     total cpu time spent up to now is      381.8 secs

     total energy              =     -45.49753196 Ry
     estimated scf accuracy    <       0.00041765 Ry

     iteration #  6     ecut=    80.00 Ry     beta= 0.70
     Davidson diagonalization with overlap
     ethr =  2.98E-06,  avg # of iterations =  2.6

     total cpu time spent up to now is      382.6 secs

     total energy              =     -45.49757514 Ry
     estimated scf accuracy    <       0.00000354 Ry

     iteration #  7     ecut=    80.00 Ry     beta= 0.70
     Davidson diagonalization with overlap
     ethr =  2.53E-08,  avg # of iterations =  3.1

     total cpu time spent up to now is      383.5 secs

     total energy              =     -45.49757604 Ry
     estimated scf accuracy    <       0.00000322 Ry

     iteration #  8     ecut=    80.00 Ry     beta= 0.70
     Davidson diagonalization with overlap
     ethr =  2.30E-08,  avg # of iterations =  1.2

     total cpu time spent up to now is      384.3 secs

     total energy              =     -45.49757629 Ry
     estimated scf accuracy    <       0.00000002 Ry

     iteration #  9     ecut=    80.00 Ry     beta= 0.70
     Davidson diagonalization with overlap
     ethr =  1.40E-10,  avg # of iterations =  3.3

     total cpu time spent up to now is      385.2 secs

     total energy              =     -45.49757631 Ry
     estimated scf accuracy    <          1.8E-09 Ry

     iteration # 10     ecut=    80.00 Ry     beta= 0.70
     Davidson diagonalization with overlap
     ethr =  1.26E-11,  avg # of iterations =  2.0

     total cpu time spent up to now is      386.0 secs

     total energy              =     -45.49757631 Ry
     estimated scf accuracy    <          1.9E-10 Ry

     iteration # 11     ecut=    80.00 Ry     beta= 0.70
     Davidson diagonalization with overlap
     ethr =  1.34E-12,  avg # of iterations =  2.3

     total cpu time spent up to now is      386.9 secs

     End of self-consistent calculation

          k = 0.0000 0.0000 0.0000 (  3163 PWs)   bands (ev):

   -35.9286 -34.9346  -4.2060  -4.1946   3.6050   4.3735  10.7841  14.8857
    18.5375  25.5096  25.5097

          k =-0.6897-0.3982 0.0660 (  3182 PWs)   bands (ev):

   -35.8637 -34.8642  -2.8588  -2.8193   4.6543   5.6951  11.2743  15.3382
    16.3436  17.3673  19.3282

          k =-1.3794-0.7964 0.1320 (  3183 PWs)   bands (ev):

   -35.7579 -34.7494   1.0477   1.2117   7.0301   7.9319   8.4285   9.6470
    12.0670  15.7448  16.8423

          k =-0.6897 0.3982 0.1320 (  3188 PWs)   bands (ev):

   -35.8637 -34.8642  -2.8584  -2.8198   4.6807   5.6507  11.3938  14.8746
    16.5964  17.6811  19.0871

          k =-1.3794-0.0000 0.1979 (  3183 PWs)   bands (ev):

   -35.7783 -34.7715  -0.2247  -0.1094   6.8168   8.1332  11.7448  12.0749
    12.6502  13.4114  14.3674

          k = 1.3794 1.5928-0.0660 (  3172 PWs)   bands (ev):

   -35.7253 -34.7140   4.3183   4.4150   5.5242   6.0198  10.5570  11.2702
    11.7616  12.1877  12.6588

          k = 0.6897 1.1946 0.0000 (  3186 PWs)   bands (ev):

   -35.7783 -34.7715  -0.2340  -0.0988   6.7116   8.3487  11.6308  12.0245
    12.6084  13.3632  14.3533

          k =-1.3794 0.7964 0.2639 (  3185 PWs)   bands (ev):

   -35.7579 -34.7494   1.0584   1.1975   7.2350   7.9603   8.2820   9.1437
    13.4046  14.6667  16.5605

          k = 1.3794 2.3892 0.0000 (  3172 PWs)   bands (ev):

   -35.7253 -34.7140   4.2190   4.5297   5.4978   6.0506  10.4141  11.4499
    11.6484  11.9838  12.8858

          k =-0.0000 0.0000 0.1979 (  3209 PWs)   bands (ev):

   -35.9286 -34.9346  -4.2063  -4.1943   3.6605   4.2900  11.0598  14.1743
    19.4471  25.4957  25.4958

          k =-0.6897-0.3982 0.2639 (  3180 PWs)   bands (ev):

   -35.8637 -34.8642  -2.8568  -2.8215   4.7748   5.5040  11.7507  14.4638
    16.3361  17.1987  20.6368

          k = 2.0691 1.1946 0.0000 (  3195 PWs)   bands (ev):

   -35.7579 -34.7494   1.0775   1.1776   7.1465   7.9463   8.5450   9.0723
    12.6484  15.9929  17.1195

          k = 1.3794 0.7964 0.0660 (  3196 PWs)   bands (ev):

   -35.7579 -34.7494   1.0395   1.2203   7.0700   7.9377   8.3325   9.6121
    12.3890  15.2311  16.7137

          k =-0.6897 0.3982 0.3299 (  3196 PWs)   bands (ev):

   -35.8637 -34.8642  -2.8560  -2.8224   4.8444   5.4070  12.0801  13.8204
    16.5915  17.4070  20.3966

          k = 2.0691 1.9910 0.0660 (  3180 PWs)   bands (ev):

   -35.7783 -34.7715  -0.2043  -0.1318   7.0894   7.7054  11.8652  12.1353
    12.7726  13.4993  14.4640

          k = 1.3794 1.5928 0.1320 (  3167 PWs)   bands (ev):

   -35.7253 -34.7140   4.2459   4.4969   5.5077   6.0391  10.4572  11.4339
    11.6773  11.9972  12.8172

          k = 2.0691-1.1946-0.1979 (  3184 PWs)   bands (ev):

   -35.7579 -34.7494   1.0897   1.1632   7.2901   7.9739   8.4732   8.7728
    13.4529  15.2174  16.4570

          k =-0.0000 0.0000 0.3959 (  3191 PWs)   bands (ev):

   -35.9286 -34.9346  -4.2067  -4.1938   3.8016   4.1052  11.8243  12.9363
    21.2246  23.7744  25.4772

          k = 2.7588 1.5928 0.1320 (  3193 PWs)   bands (ev):

   -35.8637 -34.8642  -2.8550  -2.8235   4.9702   5.2507  12.6514  13.2021
    16.4866  17.2417  21.4647

     the Fermi energy is    11.4723 ev

!    total energy              =     -45.49757631 Ry
     estimated scf accuracy    <          8.3E-12 Ry
     smearing contrib. (-TS)   =      -0.00202735 Ry
     internal energy E=F+TS    =     -45.49554895 Ry

     The total energy is F=E-TS. E is the sum of the following terms:
     one-electron contribution =      -3.21164193 Ry
     hartree contribution      =       6.18937326 Ry
     xc contribution           =     -13.64080391 Ry
     ewald contribution        =     -34.83247637 Ry

     convergence has been achieved in  11 iterations

     Forces acting on atoms (cartesian axes, Ry/au):

     atom    1 type  1   force =    -0.00000000   -0.00000000    0.00000000
     atom    2 type  1   force =    -0.00000000   -0.00000000   -0.00000000
     atom    3 type  2   force =    -0.00000000    0.00000000    0.00016380
     atom    4 type  2   force =     0.00000000   -0.00000000   -0.00016380
     The non-local contrib.  to forces
     atom    1 type  1   force =    -0.00000000    0.00000000   -0.00000000
     atom    2 type  1   force =    -0.00000000    0.00000000    0.00000000
     atom    3 type  2   force =     0.00000000    0.00000000   -0.05038919
     atom    4 type  2   force =    -0.00000000   -0.00000000    0.05038919
     The ionic contribution  to forces
     atom    1 type  1   force =     0.00000000   -0.00000000    0.00000000
     atom    2 type  1   force =     0.00000000    0.00000000   -0.00000000
     atom    3 type  2   force =     0.00000000    0.00000000   -1.18848612
     atom    4 type  2   force =    -0.00000000   -0.00000000    1.18848612
     The local contribution  to forces
     atom    1 type  1   force =     0.00000000   -0.00000000   -0.00000000
     atom    2 type  1   force =     0.00000000   -0.00000000   -0.00000000
     atom    3 type  2   force =    -0.00000000   -0.00000000    1.23579925
     atom    4 type  2   force =     0.00000000    0.00000000   -1.23579925
     The core correction contribution to forces
     atom    1 type  1   force =     0.00000000    0.00000000    0.00000000
     atom    2 type  1   force =     0.00000000    0.00000000    0.00000000
     atom    3 type  2   force =     0.00000000   -0.00000000    0.00324535
     atom    4 type  2   force =    -0.00000000    0.00000000   -0.00324535
     The Hubbard contrib.    to forces
     atom    1 type  1   force =     0.00000000    0.00000000    0.00000000
     atom    2 type  1   force =     0.00000000    0.00000000    0.00000000
     atom    3 type  2   force =     0.00000000    0.00000000    0.00000000
     atom    4 type  2   force =     0.00000000    0.00000000    0.00000000
     The SCF correction term to forces
     atom    1 type  1   force =    -0.00000000    0.00000000   -0.00000000
     atom    2 type  1   force =    -0.00000000   -0.00000000   -0.00000000
     atom    3 type  2   force =    -0.00000000   -0.00000000   -0.00000548
     atom    4 type  2   force =    -0.00000000    0.00000000    0.00000548

     Total force =     0.000232     Total SCF correction =     0.000008


     Computing stress (Cartesian axis) and pressure

          total   stress  (Ry/bohr**3)                   (kbar)     P=      500.21
   0.00340296   0.00000000  -0.00000000          500.59        0.00       -0.00
  -0.00000000   0.00340296   0.00000000           -0.00      500.59        0.00
  -0.00000000   0.00000000   0.00339516           -0.00        0.00      499.44


     Writing all to output data dir ./output/LiSi.save/

     init_run     :      1.90s CPU      2.88s WALL (       2 calls)
     electrons    :    306.10s CPU    332.52s WALL (      24 calls)
     update_pot   :     14.61s CPU     14.80s WALL (      22 calls)
     forces       :      8.87s CPU      9.09s WALL (      24 calls)
     stress       :     25.70s CPU     27.47s WALL (      24 calls)

     Called by init_run:
     wfcinit      :      0.85s CPU      1.24s WALL (       2 calls)
     potinit      :      0.49s CPU      0.82s WALL (       2 calls)
     hinit0       :      0.48s CPU      0.71s WALL (       2 calls)

     Called by electrons:
     c_bands      :    248.98s CPU    270.00s WALL (     299 calls)
     sum_band     :     43.23s CPU     46.87s WALL (     299 calls)
     v_of_rho     :     14.10s CPU     15.55s WALL (     321 calls)
     mix_rho      :      0.66s CPU      0.81s WALL (     299 calls)

     Called by c_bands:
     init_us_2    :      2.93s CPU      3.25s WALL (   12312 calls)
     init_us_2:cp :      2.92s CPU      3.24s WALL (   12312 calls)
     cegterg      :    242.34s CPU    261.39s WALL (    5681 calls)

     Called by *egterg:
     cdiaghg      :      2.90s CPU      3.18s WALL (   21939 calls)
     h_psi        :    233.12s CPU    251.82s WALL (   22433 calls)
     g_psi        :      0.36s CPU      0.37s WALL (   16714 calls)

     Called by h_psi:
     h_psi:calbec :      3.92s CPU      4.21s WALL (   22433 calls)
     vloc_psi     :    225.68s CPU    243.84s WALL (   22433 calls)
     add_vuspsi   :      3.27s CPU      3.50s WALL (   22433 calls)

     General routines
     calbec       :      4.54s CPU      4.85s WALL (   24713 calls)
     fft          :      4.02s CPU      5.78s WALL (    3810 calls)
     ffts         :      0.28s CPU      0.45s WALL (     299 calls)
     fftw         :    232.66s CPU    250.86s WALL (  408957 calls)

     Parallel routines

     PWSCF        :   5m57.57s CPU   6m27.79s WALL


   This run was terminated on:  16:30:59  28Nov2024            

=------------------------------------------------------------------------------=
   JOB DONE.
=------------------------------------------------------------------------------=
