
     Program PWSCF v.7.2 starts on 11Feb2025 at 22:41:50 

     This program is part of the open-source Quantum ESPRESSO suite
     for quantum simulation of materials; please cite
         "P. Giannozzi et al., J. Phys.:Condens. Matter 21 395502 (2009);
         "P. Giannozzi et al., J. Phys.:Condens. Matter 29 465901 (2017);
         "P. Giannozzi et al., J. Chem. Phys. 152 154105 (2020);
          URL http://www.quantum-espresso.org", 
     in publications or presentations arising from this work. More details at
     http://www.quantum-espresso.org/quote

     Parallel version (MPI & OpenMP), running on       8 processor cores
     Number of MPI processes:                 8
     Threads/MPI process:                     1

     MPI processes distributed on     1 nodes
     483478 MiB available memory on the printing compute node when the environment starts

     Waiting for input...
     Reading input from standard input

     Current dimensions of program PWSCF are:
     Max number of different atomic species (ntypx) = 10
     Max number of k-points (npk) =  40000
     Max angular momentum in pseudopotentials (lmaxx) =  4

     R & G space division:  proc/nbgrp/npool/nimage =       8
     Subspace diagonalization in iterative solution of the eigenvalue problem:
     a serial algorithm will be used


     Parallelization info
     --------------------
     sticks:   dense  smooth     PW     G-vecs:    dense   smooth      PW
     Min          57      57     17                 3045     3045     497
     Max          58      58     18                 3052     3052     504
     Sum         463     463    139                24385    24385    3997

     Using Slab Decomposition



     bravais-lattice index     =            4
     lattice parameter (alat)  =       4.5893  a.u.
     unit-cell volume          =     252.2510 (a.u.)^3
     number of atoms/cell      =            4
     number of atomic types    =            2
     number of electrons       =        14.00
     number of Kohn-Sham states=           11
     kinetic-energy cutoff     =      80.0000  Ry
     charge density cutoff     =     320.0000  Ry
     scf convergence threshold =      1.0E-08
     mixing beta               =       0.7000
     number of iterations used =            8  plain     mixing
     energy convergence thresh.=      1.0E-04
     force convergence thresh. =      1.0E-03
     press convergence thresh. =      1.0E+00
     Exchange-correlation= PBE
                           (   1   4   3   4   0   0   0)
     nstep                     =           50


     celldm(1)=   4.589253  celldm(2)=   0.000000  celldm(3)=   3.013536
     celldm(4)=   0.000000  celldm(5)=   0.000000  celldm(6)=   0.000000

     crystal axes: (cart. coord. in units of alat)
               a(1) = (   1.000000   0.000000   0.000000 )  
               a(2) = (  -0.500000   0.866025   0.000000 )  
               a(3) = (   0.000000   0.000000   3.013536 )  

     reciprocal axes: (cart. coord. in units 2 pi/alat)
               b(1) = (  1.000000  0.577350 -0.000000 )  
               b(2) = (  0.000000  1.154701  0.000000 )  
               b(3) = (  0.000000 -0.000000  0.331836 )  


     PseudoPot. # 1 for Li read from file:
     ../pseudo/Li_ONCV_PBE_sr.upf
     MD5 check sum: 50ff420e78310ffa21704f3361e624a4
     Pseudo is Norm-conserving, Zval =  3.0
     Generated using ONCVPSP code by D. R. Hamann
     Using radial grid of 1944 points,  4 beta functions with: 
                l(1) =   0
                l(2) =   0
                l(3) =   1
                l(4) =   1

     PseudoPot. # 2 for Si read from file:
     ../pseudo/Si_ONCV_PBE_sr.upf
     MD5 check sum: e543d271109d17c80368dfa7c482276d
     Pseudo is Norm-conserving + core correction, Zval =  4.0
     Generated using ONCVPSP code by D. R. Hamann
     Using radial grid of 1510 points,  6 beta functions with: 
                l(1) =   0
                l(2) =   0
                l(3) =   1
                l(4) =   1
                l(5) =   2
                l(6) =   2

     atomic species   valence    mass     pseudopotential
        Li             3.00     6.94100     Li( 1.00)
        Si             4.00    28.08550     Si( 1.00)

     24 Sym. Ops., with inversion, found (12 have fractional translation)



   Cartesian axes

     site n.     atom                  positions (alat units)
         1           Li  tau(   1) = (   0.0000000   0.0000000   0.0000000  )
         2           Li  tau(   2) = (   0.0000000   0.0000000   1.5067680  )
         3           Si  tau(   3) = (  -0.0000000   0.5773503   2.2601519  )
         4           Si  tau(   4) = (   0.5000000   0.2886751   0.7533840  )

     number of k points=    30  Marzari-Vanderbilt smearing, width (Ry)=  0.0200
                       cart. coord. in units 2pi/alat
        k(    1) = (   0.0000000   0.0000000   0.0000000), wk =   0.0062500
        k(    2) = (   0.0000000   0.0000000   0.0663672), wk =   0.0125000
        k(    3) = (   0.0000000   0.0000000   0.1327344), wk =   0.0125000
        k(    4) = (   0.0000000   0.1443376   0.0000000), wk =   0.0375000
        k(    5) = (   0.0000000   0.1443376   0.0663672), wk =   0.0750000
        k(    6) = (   0.0000000   0.1443376   0.1327344), wk =   0.0750000
        k(    7) = (   0.0000000   0.2886751   0.0000000), wk =   0.0375000
        k(    8) = (   0.0000000   0.2886751   0.0663672), wk =   0.0750000
        k(    9) = (   0.0000000   0.2886751   0.1327344), wk =   0.0750000
        k(   10) = (   0.0000000   0.4330127   0.0000000), wk =   0.0375000
        k(   11) = (   0.0000000   0.4330127   0.0663672), wk =   0.0750000
        k(   12) = (   0.0000000   0.4330127   0.1327344), wk =   0.0750000
        k(   13) = (   0.0000000  -0.5773503   0.0000000), wk =   0.0187500
        k(   14) = (   0.0000000  -0.5773503   0.0663672), wk =   0.0375000
        k(   15) = (   0.0000000  -0.5773503   0.1327344), wk =   0.0375000
        k(   16) = (   0.1250000   0.2165064   0.0000000), wk =   0.0375000
        k(   17) = (   0.1250000   0.2165064   0.0663672), wk =   0.0750000
        k(   18) = (   0.1250000   0.2165064   0.1327344), wk =   0.0750000
        k(   19) = (   0.1250000   0.3608439   0.0000000), wk =   0.0750000
        k(   20) = (   0.1250000   0.3608439   0.0663672), wk =   0.1500000
        k(   21) = (   0.1250000   0.3608439   0.1327344), wk =   0.1500000
        k(   22) = (   0.1250000   0.5051815   0.0000000), wk =   0.0750000
        k(   23) = (   0.1250000   0.5051815   0.0663672), wk =   0.1500000
        k(   24) = (   0.1250000   0.5051815   0.1327344), wk =   0.1500000
        k(   25) = (   0.2500000   0.4330127   0.0000000), wk =   0.0375000
        k(   26) = (   0.2500000   0.4330127   0.0663672), wk =   0.0750000
        k(   27) = (   0.2500000   0.4330127   0.1327344), wk =   0.0750000
        k(   28) = (   0.2500000   0.5773503   0.0000000), wk =   0.0375000
        k(   29) = (   0.2500000   0.5773503   0.0663672), wk =   0.0750000
        k(   30) = (   0.2500000   0.5773503   0.1327344), wk =   0.0750000

     Dense  grid:    24385 G-vectors     FFT dimensions: (  27,  27,  80)

     Estimated max dynamical RAM per process >      15.92 MB

     Estimated total dynamical RAM >     127.39 MB

     Initial potential from superposition of free atoms

     starting charge      13.9897, renormalised to      14.0000
     Starting wfcs are   12 randomized atomic wfcs

     total cpu time spent up to now is        1.1 secs

     Self-consistent Calculation

     iteration #  1     ecut=    80.00 Ry     beta= 0.70
     Davidson diagonalization with overlap
     ethr =  1.00E-02,  avg # of iterations =  5.2

     Threshold (ethr) on eigenvalues was too large:
     Diagonalizing with lowered threshold

     Davidson diagonalization with overlap
     ethr =  1.06E-04,  avg # of iterations =  6.2

     total cpu time spent up to now is        2.0 secs

     total energy              =     -45.56922810 Ry
     estimated scf accuracy    <       0.01623157 Ry

     iteration #  2     ecut=    80.00 Ry     beta= 0.70
     Davidson diagonalization with overlap
     ethr =  1.16E-04,  avg # of iterations =  2.3

     total cpu time spent up to now is        2.4 secs

     total energy              =     -45.57055919 Ry
     estimated scf accuracy    <       0.00135489 Ry

     iteration #  3     ecut=    80.00 Ry     beta= 0.70
     Davidson diagonalization with overlap
     ethr =  9.68E-06,  avg # of iterations =  3.3

     total cpu time spent up to now is        2.7 secs

     total energy              =     -45.57073872 Ry
     estimated scf accuracy    <       0.00009457 Ry

     iteration #  4     ecut=    80.00 Ry     beta= 0.70
     Davidson diagonalization with overlap
     ethr =  6.75E-07,  avg # of iterations =  2.5

     total cpu time spent up to now is        3.1 secs

     total energy              =     -45.57074901 Ry
     estimated scf accuracy    <       0.00000097 Ry

     iteration #  5     ecut=    80.00 Ry     beta= 0.70
     Davidson diagonalization with overlap
     ethr =  6.95E-09,  avg # of iterations =  3.4

     total cpu time spent up to now is        3.6 secs

     total energy              =     -45.57074960 Ry
     estimated scf accuracy    <       0.00000020 Ry

     iteration #  6     ecut=    80.00 Ry     beta= 0.70
     Davidson diagonalization with overlap
     ethr =  1.45E-09,  avg # of iterations =  2.0

     total cpu time spent up to now is        3.9 secs

     End of self-consistent calculation

          k = 0.0000 0.0000 0.0000 (  3075 PWs)   bands (ev):

   -34.8324 -34.8288  -3.1520  -3.0464   4.3159   6.0542  12.4496  18.9207
    23.0192  24.5402  24.5402

          k = 0.0000 0.0000 0.0664 (  3081 PWs)   bands (ev):

   -34.8320 -34.8292  -3.1424  -3.0570   4.4423   5.8244  12.9300  17.7875
    24.3253  24.6069  24.6072

          k = 0.0000 0.0000 0.1327 (  3088 PWs)   bands (ev):

   -34.8312 -34.8301  -3.1169  -3.0843   4.7999   5.3146  14.1848  15.9057
    24.7933  24.7937  25.0487

          k = 0.0000 0.1443 0.0000 (  3069 PWs)   bands (ev):

   -34.8097 -34.8065  -2.6772  -2.5373   4.6467   6.5396  12.4886  18.6527
    20.4113  20.6059  22.0234

          k = 0.0000 0.1443 0.0664 (  3069 PWs)   bands (ev):

   -34.8094 -34.8068  -2.6646  -2.5515   4.7820   6.2820  12.9910  17.7809
    20.1968  20.3814  22.0895

          k = 0.0000 0.1443 0.1327 (  3076 PWs)   bands (ev):

   -34.8086 -34.8076  -2.6310  -2.5879   5.1657   5.7220  14.2774  15.9985
    20.1424  20.2538  22.2769

          k = 0.0000 0.2887 0.0000 (  3045 PWs)   bands (ev):

   -34.7548 -34.7523  -1.2622  -1.0229   5.6338   7.9915  11.8809  14.3130
    15.4625  19.8932  20.8908

          k = 0.0000 0.2887 0.0664 (  3060 PWs)   bands (ev):

   -34.7546 -34.7526  -1.2413  -1.0478   5.7916   7.6286  12.3376  14.2184
    15.6104  18.6244  19.9639

          k = 0.0000 0.2887 0.1327 (  3059 PWs)   bands (ev):

   -34.7540 -34.7532  -1.1847  -1.1109   6.2418   6.9106  13.2184  13.8890
    16.1614  17.2673  20.1657

          k = 0.0000 0.4330 0.0000 (  3052 PWs)   bands (ev):

   -34.6997 -34.6979   1.0607   1.4506   7.1791   8.2635   9.3426  10.3769
    15.0036  15.2607  18.6076

          k = 0.0000 0.4330 0.0664 (  3045 PWs)   bands (ev):

   -34.6995 -34.6981   1.0941   1.4089   7.2955   8.1821   9.3894  10.1857
    15.1909  15.4283  18.0742

          k = 0.0000 0.4330 0.1327 (  3043 PWs)   bands (ev):

   -34.6991 -34.6985   1.1850   1.3048   7.5939   7.9388   9.5416   9.8230
    15.4703  15.6543  18.2180

          k = 0.0000-0.5774 0.0000 (  3034 PWs)   bands (ev):

   -34.6768 -34.6753   3.8091   4.3830   4.6014   5.7184   8.3401  12.6156
    13.7368  14.6344  15.5767

          k = 0.0000-0.5774 0.0664 (  3010 PWs)   bands (ev):

   -34.6767 -34.6755   3.8743   4.3439   4.6455   5.4857   8.7859  12.2932
    13.6596  13.6941  16.9604

          k = 0.0000-0.5774 0.1327 (  3038 PWs)   bands (ev):

   -34.6763 -34.6758   4.0412   4.2245   4.7930   5.0840   9.8261  11.1294
    13.4016  13.4994  18.4679

          k = 0.1250 0.2165 0.0000 (  3067 PWs)   bands (ev):

   -34.7710 -34.7682  -1.7321  -1.5254   5.3094   7.5083  12.4355  16.5253
    17.1357  17.3194  19.2814

          k = 0.1250 0.2165 0.0664 (  3068 PWs)   bands (ev):

   -34.7707 -34.7685  -1.7138  -1.5468   5.4607   7.1879  12.9702  16.5049
    17.0684  17.0895  19.1642

          k = 0.1250 0.2165 0.1327 (  3067 PWs)   bands (ev):

   -34.7700 -34.7692  -1.6647  -1.6011   5.8915   6.5255  14.2464  15.7304
    16.8461  16.9688  19.0048

          k = 0.1250 0.3608 0.0000 (  3054 PWs)   bands (ev):

   -34.7159 -34.7139   0.1397   0.4710   6.6203   9.4305  10.6493  12.0665
    13.7444  15.4184  17.6153

          k = 0.1250 0.3608 0.0664 (  3047 PWs)   bands (ev):

   -34.7157 -34.7141   0.1681   0.4356   6.7900   8.8695  11.0626  12.0114
    14.0061  15.3470  17.1442

          k = 0.1250 0.3608 0.1327 (  3053 PWs)   bands (ev):

   -34.7152 -34.7146   0.2454   0.3473   7.2748   8.0085  11.5403  11.8420
    14.6103  15.1086  17.2990

          k = 0.1250 0.5052 0.0000 (  3035 PWs)   bands (ev):

   -34.6769 -34.6754   2.8815   3.3552   6.5853   7.4914   8.3001  12.0908
    13.6329  13.9196  14.3994

          k = 0.1250 0.5052 0.0664 (  3032 PWs)   bands (ev):

   -34.6768 -34.6755   2.9237   3.3071   6.6106   7.2075   8.7964  11.6569
    13.5189  14.0444  14.5524

          k = 0.1250 0.5052 0.1327 (  3031 PWs)   bands (ev):

   -34.6764 -34.6759   3.0372   3.1838   6.6997   6.8882   9.7063  10.7285
    13.5636  13.7825  15.0895

          k = 0.2500 0.4330 0.0000 (  3049 PWs)   bands (ev):

   -34.6770 -34.6755   2.4480   2.9035   8.2629   9.4904   9.5971  10.6672
    11.0899  11.6962  14.6827

          k = 0.2500 0.4330 0.0664 (  3044 PWs)   bands (ev):

   -34.6769 -34.6756   2.4866   2.8541   8.3719   9.3576   9.6944  10.7642
    10.8555  11.6191  15.0701

          k = 0.2500 0.4330 0.1327 (  3034 PWs)   bands (ev):

   -34.6765 -34.6760   2.5919   2.7317   8.6606   9.0329   9.9747  10.3970
    11.0271  11.3626  16.0357

          k = 0.2500 0.5774 0.0000 (  3044 PWs)   bands (ev):

   -34.6609 -34.6595   5.2636   5.6851   5.9571   7.0280   9.4753   9.8185
    10.3833  11.9784  15.2407

          k = 0.2500 0.5774 0.0664 (  3044 PWs)   bands (ev):

   -34.6607 -34.6597   5.3206   5.6639   6.0014   6.8227   9.4574  10.1640
    10.2627  12.1978  15.0852

          k = 0.2500 0.5774 0.1327 (  3042 PWs)   bands (ev):

   -34.6604 -34.6600   5.4582   5.5907   6.1516   6.4436   9.5598   9.8094
    11.1909  12.0969  14.5245

     the Fermi energy is    10.9229 ev

!    total energy              =     -45.57074965 Ry
     estimated scf accuracy    <          6.9E-09 Ry
     smearing contrib. (-TS)   =      -0.00036821 Ry
     internal energy E=F+TS    =     -45.57038144 Ry

     The total energy is F=E-TS. E is the sum of the following terms:
     one-electron contribution =      -1.86612288 Ry
     hartree contribution      =       5.80109157 Ry
     xc contribution           =     -13.66207050 Ry
     ewald contribution        =     -35.84327964 Ry

     convergence has been achieved in   6 iterations

     Forces acting on atoms (cartesian axes, Ry/au):

     atom    1 type  1   force =     0.00000000   -0.00000000    0.00000000
     atom    2 type  1   force =     0.00000000    0.00000000    0.00000000
     atom    3 type  2   force =     0.00000000    0.00000000    0.00000000
     atom    4 type  2   force =     0.00000000   -0.00000000    0.00000000
     The non-local contrib.  to forces
     atom    1 type  1   force =    -0.00000000    0.00000000    0.00000000
     atom    2 type  1   force =    -0.00000000    0.00000000    0.00000000
     atom    3 type  2   force =     0.00000000    0.00000000    0.00000000
     atom    4 type  2   force =     0.00000000    0.00000000    0.00000000
     The ionic contribution  to forces
     atom    1 type  1   force =     0.00000000   -0.00000000   -0.00000000
     atom    2 type  1   force =    -0.00000000    0.00000000    0.00000000
     atom    3 type  2   force =     0.00000000   -0.00000000   -0.00000000
     atom    4 type  2   force =    -0.00000000    0.00000000   -0.00000000
     The local contribution  to forces
     atom    1 type  1   force =     0.00000000    0.00000000    0.00000000
     atom    2 type  1   force =     0.00000000    0.00000000    0.00000000
     atom    3 type  2   force =    -0.00000001    0.00000001    0.00000000
     atom    4 type  2   force =     0.00000001   -0.00000001    0.00000000
     The core correction contribution to forces
     atom    1 type  1   force =     0.00000000    0.00000000    0.00000000
     atom    2 type  1   force =     0.00000000    0.00000000    0.00000000
     atom    3 type  2   force =    -0.00000000    0.00000000    0.00000000
     atom    4 type  2   force =     0.00000000   -0.00000000    0.00000000
     The Hubbard contrib.    to forces
     atom    1 type  1   force =     0.00000000    0.00000000    0.00000000
     atom    2 type  1   force =     0.00000000    0.00000000    0.00000000
     atom    3 type  2   force =     0.00000000    0.00000000    0.00000000
     atom    4 type  2   force =     0.00000000    0.00000000    0.00000000
     The SCF correction term to forces
     atom    1 type  1   force =    -0.00000000   -0.00000000   -0.00000000
     atom    2 type  1   force =    -0.00000000   -0.00000000   -0.00000000
     atom    3 type  2   force =     0.00000000   -0.00000000    0.00000000
     atom    4 type  2   force =    -0.00000000    0.00000000    0.00000000

     Total force =     0.000000     Total SCF correction =     0.000000


     Computing stress (Cartesian axis) and pressure

          total   stress  (Ry/bohr**3)                   (kbar)     P=      529.05
   0.00341376   0.00000000   0.00000000          502.18        0.00        0.00
   0.00000000   0.00341376  -0.00000000            0.00      502.18       -0.00
   0.00000000   0.00000000   0.00396177            0.00        0.00      582.80


     BFGS Geometry Optimization
     Energy error            =      0.0E+00 Ry
     Gradient error          =      3.2E-25 Ry/Bohr
     Cell gradient error     =      8.3E+01 kbar

     number of scf cycles    =   1
     number of bfgs steps    =   0

     enthalpy           new  =     -44.7133658349 Ry

     new trust radius        =       0.0446959274 bohr
ibrav =      4
 celldm(1) =      4.59095429
 celldm(3) =      3.05480644
Input lattice vectors:
     1.00037076     0.00000000     0.00000000
    -0.50018538     0.86634649     0.00000000
     0.00000000    -0.00000000     3.05593903
New lattice vectors in INITIAL alat:
     1.00037076     0.00000000     0.00000000
    -0.50018538     0.86634649     0.00000000
     0.00000000     0.00000000     3.05593903
New lattice vectors in NEW alat (for information only):
     1.00000000     0.00000000     0.00000000
    -0.50000000     0.86602540     0.00000000
     0.00000000     0.00000000     3.05480644
Discrepancy in bohr =     0.000000    0.000000    0.000000
     new conv_thr            =       0.0000000100 Ry

     new unit-cell volume =    255.99014 a.u.^3 (    37.93382 Ang^3 )
     density =      3.06654 g/cm^3

CELL_PARAMETERS (alat=  4.58925279)
   1.000370758   0.000000000   0.000000000
  -0.500185379   0.866346489   0.000000000
   0.000000000   0.000000000   3.055939034

ATOMIC_POSITIONS (crystal)
Li           -0.0000000000       -0.0000000000        0.0000000000
Li            0.0000000000        0.0000000000        0.5000000000
Si            0.3333333300        0.6666666700        0.7500000000
Si            0.6666666700        0.3333333300        0.2500000000



     Writing config-only to output data dir ./output/LiSi.save/
     NEW-OLD atomic charge density approx. for the potential
     extrapolated charge   14.20434, renormalised to   14.00000

     total cpu time spent up to now is        5.1 secs

     Self-consistent Calculation

     iteration #  1     ecut=    80.00 Ry     beta= 0.70
     Davidson diagonalization with overlap
     ethr =  1.00E-06,  avg # of iterations =  4.9

     total cpu time spent up to now is        5.6 secs

     total energy              =     -45.58441561 Ry
     estimated scf accuracy    <       0.00009019 Ry

     iteration #  2     ecut=    80.00 Ry     beta= 0.70
     Davidson diagonalization with overlap
     ethr =  6.44E-07,  avg # of iterations =  3.2

     total cpu time spent up to now is        6.0 secs

     total energy              =     -45.58469573 Ry
     estimated scf accuracy    <       0.00006764 Ry

     iteration #  3     ecut=    80.00 Ry     beta= 0.70
     Davidson diagonalization with overlap
     ethr =  4.83E-07,  avg # of iterations =  1.0

     total cpu time spent up to now is        6.3 secs

     total energy              =     -45.58469495 Ry
     estimated scf accuracy    <       0.00001384 Ry

     iteration #  4     ecut=    80.00 Ry     beta= 0.70
     Davidson diagonalization with overlap
     ethr =  9.88E-08,  avg # of iterations =  1.1

     total cpu time spent up to now is        6.5 secs

     total energy              =     -45.58469151 Ry
     estimated scf accuracy    <       0.00000556 Ry

     iteration #  5     ecut=    80.00 Ry     beta= 0.70
     Davidson diagonalization with overlap
     ethr =  3.97E-08,  avg # of iterations =  2.0

     total cpu time spent up to now is        6.9 secs

     total energy              =     -45.58469240 Ry
     estimated scf accuracy    <       0.00000002 Ry

     iteration #  6     ecut=    80.00 Ry     beta= 0.70
     Davidson diagonalization with overlap
     ethr =  1.23E-10,  avg # of iterations =  3.7

     total cpu time spent up to now is        7.2 secs

     End of self-consistent calculation

          k = 0.0000 0.0000 0.0000 (  3075 PWs)   bands (ev):

   -35.0209 -35.0179  -3.2978  -3.2007   4.1410   5.7858  12.1317  18.3809
    22.3612  24.4499  24.4499

          k = 0.0000 0.0000 0.0654 (  3081 PWs)   bands (ev):

   -35.0206 -35.0182  -3.2890  -3.2105   4.2613   5.5704  12.5907  17.2798
    23.6433  24.5125  24.5125

          k = 0.0000 0.0000 0.1309 (  3088 PWs)   bands (ev):

   -35.0198 -35.0189  -3.2655  -3.2355   4.6015   5.0896  13.7959  15.4569
    24.6866  24.6868  24.9229

          k = 0.0000 0.1443 0.0000 (  3069 PWs)   bands (ev):

   -34.9986 -34.9958  -2.8209  -2.6918   4.4779   6.2718  12.1883  18.2663
    20.2451  20.3398  21.9220

          k = 0.0000 0.1443 0.0654 (  3069 PWs)   bands (ev):

   -34.9983 -34.9961  -2.8093  -2.7049   4.6070   6.0302  12.6690  17.3393
    20.0182  20.2068  21.9841

          k = 0.0000 0.1443 0.1309 (  3076 PWs)   bands (ev):

   -34.9976 -34.9968  -2.7782  -2.7384   4.9725   5.5010  13.9076  15.5780
    19.9869  20.0926  22.1597

          k = 0.0000 0.2886 0.0000 (  3045 PWs)   bands (ev):

   -34.9445 -34.9424  -1.3999  -1.1779   5.4830   7.7257  11.6931  14.1406
    15.2251  19.1269  19.7956

          k = 0.0000 0.2886 0.0654 (  3060 PWs)   bands (ev):

   -34.9443 -34.9426  -1.3804  -1.2010   5.6341   7.3854  12.1394  14.0475
    15.3541  18.2731  19.8623

          k = 0.0000 0.2886 0.1309 (  3059 PWs)   bands (ev):

   -34.9437 -34.9431  -1.3277  -1.2593   6.0651   6.7040  13.0250  13.7148
    15.8467  16.8912  20.0521

          k = 0.0000 0.4329 0.0000 (  3052 PWs)   bands (ev):

   -34.8901 -34.8887   0.9332   1.2956   7.0584   8.1498   9.1775  10.1160
    14.6919  15.0953  18.5122

          k = 0.0000 0.4329 0.0654 (  3045 PWs)   bands (ev):

   -34.8900 -34.8888   0.9644   1.2570   7.1728   8.0657   9.2194   9.9399
    14.9233  15.2074  17.8465

          k = 0.0000 0.4329 0.1309 (  3043 PWs)   bands (ev):

   -34.8896 -34.8892   1.0491   1.1606   7.4688   7.8164   9.3555   9.6089
    15.2498  15.3976  17.9624

          k = 0.0000-0.5771 0.0000 (  3034 PWs)   bands (ev):

   -34.8676 -34.8663   3.7077   4.2296   4.4754   5.5413   8.2526  12.4101
    13.4967  14.3684  15.2567

          k = 0.0000-0.5771 0.0654 (  3010 PWs)   bands (ev):

   -34.8674 -34.8664   3.7674   4.1934   4.5198   5.3291   8.6708  12.0707
    13.4287  13.4725  16.6207

          k = 0.0000-0.5771 0.1309 (  3038 PWs)   bands (ev):

   -34.8671 -34.8668   3.9190   4.0843   4.6676   4.9513   9.6645  10.9237
    13.2011  13.2866  18.3581

          k = 0.1250 0.2164 0.0000 (  3067 PWs)   bands (ev):

   -34.9603 -34.9581  -1.8718  -1.6804   5.1525   7.2418  12.1814  16.3849
    16.9694  17.1418  19.0534

          k = 0.1250 0.2164 0.0654 (  3068 PWs)   bands (ev):

   -34.9601 -34.9583  -1.8548  -1.7001   5.2972   6.9409  12.6953  16.3265
    16.8836  16.9281  18.9445

          k = 0.1250 0.2164 0.1309 (  3067 PWs)   bands (ev):

   -34.9596 -34.9588  -1.8092  -1.7502   5.7088   6.3133  13.9375  15.4215
    16.7106  16.8205  18.7820

          k = 0.1250 0.3607 0.0000 (  3054 PWs)   bands (ev):

   -34.9061 -34.9045   0.0079   0.3157   6.4859   9.1672  10.5249  11.9017
    13.5614  15.2528  17.3276

          k = 0.1250 0.3607 0.0654 (  3047 PWs)   bands (ev):

   -34.9060 -34.9046   0.0344   0.2831   6.6492   8.6480  10.9124  11.8483
    13.8164  15.1843  16.9460

          k = 0.1250 0.3607 0.1309 (  3053 PWs)   bands (ev):

   -34.9055 -34.9050   0.1066   0.2012   7.1163   7.8234  11.3844  11.6831
    14.4236  14.9420  17.0395

          k = 0.1250 0.5050 0.0000 (  3035 PWs)   bands (ev):

   -34.8677 -34.8664   2.7622   3.2020   6.4679   7.3251   8.1998  11.8509
    13.5048  13.7467  14.2170

          k = 0.1250 0.5050 0.0654 (  3032 PWs)   bands (ev):

   -34.8675 -34.8665   2.8015   3.1574   6.4933   7.0695   8.6594  11.4264
    13.3822  13.9130  14.3337

          k = 0.1250 0.5050 0.1309 (  3031 PWs)   bands (ev):

   -34.8672 -34.8668   2.9072   3.0431   6.5819   6.7659   9.5314  10.5213
    13.4293  13.6484  14.8714

          k = 0.2499 0.4329 0.0000 (  3049 PWs)   bands (ev):

   -34.8677 -34.8665   2.3251   2.7490   8.1513   9.3647   9.4846  10.5312
    10.9100  11.4489  14.5805

          k = 0.2499 0.4329 0.0654 (  3044 PWs)   bands (ev):

   -34.8676 -34.8666   2.3613   2.7033   8.2590   9.2342   9.5764  10.6203
    10.6815  11.3907  14.9451

          k = 0.2499 0.4329 0.1309 (  3034 PWs)   bands (ev):

   -34.8673 -34.8669   2.4596   2.5898   8.5449   8.9137   9.8416  10.2427
    10.8611  11.1658  15.8665

          k = 0.2499 0.5771 0.0000 (  3044 PWs)   bands (ev):

   -34.8518 -34.8507   5.1589   5.5419   5.8345   6.8528   9.3647   9.7301
    10.2147  11.8644  15.0029

          k = 0.2499 0.5771 0.0654 (  3044 PWs)   bands (ev):

   -34.8517 -34.8509   5.2106   5.5218   5.8792   6.6655   9.3509  10.0170
    10.1464  12.0526  14.8365

          k = 0.2499 0.5771 0.1309 (  3042 PWs)   bands (ev):

   -34.8515 -34.8511   5.3344   5.4539   6.0288   6.3109   9.4498   9.6871
    11.0337  11.9165  14.3088

     the Fermi energy is    10.7554 ev

!    total energy              =     -45.58469242 Ry
     estimated scf accuracy    <          1.9E-09 Ry
     smearing contrib. (-TS)   =      -0.00033735 Ry
     internal energy E=F+TS    =     -45.58435507 Ry

     The total energy is F=E-TS. E is the sum of the following terms:
     one-electron contribution =      -2.09065240 Ry
     hartree contribution      =       5.81420205 Ry
     xc contribution           =     -13.63774033 Ry
     ewald contribution        =     -35.67016439 Ry

     convergence has been achieved in   6 iterations

     Forces acting on atoms (cartesian axes, Ry/au):

     atom    1 type  1   force =     0.00000000    0.00000000    0.00000000
     atom    2 type  1   force =     0.00000000    0.00000000    0.00000000
     atom    3 type  2   force =    -0.00000000   -0.00000000   -0.00000000
     atom    4 type  2   force =    -0.00000000    0.00000000    0.00000000
     The non-local contrib.  to forces
     atom    1 type  1   force =    -0.00000000    0.00000000    0.00000000
     atom    2 type  1   force =    -0.00000000   -0.00000000    0.00000000
     atom    3 type  2   force =    -0.00000000   -0.00000000    0.00000000
     atom    4 type  2   force =     0.00000000    0.00000000    0.00000000
     The ionic contribution  to forces
     atom    1 type  1   force =     0.00000000   -0.00000000   -0.00000000
     atom    2 type  1   force =    -0.00000000    0.00000000    0.00000000
     atom    3 type  2   force =     0.00000000   -0.00000000   -0.00000000
     atom    4 type  2   force =    -0.00000000    0.00000000   -0.00000000
     The local contribution  to forces
     atom    1 type  1   force =     0.00000000    0.00000000    0.00000000
     atom    2 type  1   force =     0.00000000    0.00000000    0.00000000
     atom    3 type  2   force =    -0.00000001    0.00000001    0.00000000
     atom    4 type  2   force =     0.00000001   -0.00000001   -0.00000000
     The core correction contribution to forces
     atom    1 type  1   force =     0.00000000    0.00000000    0.00000000
     atom    2 type  1   force =     0.00000000    0.00000000    0.00000000
     atom    3 type  2   force =    -0.00000000    0.00000000   -0.00000000
     atom    4 type  2   force =     0.00000000   -0.00000000   -0.00000000
     The Hubbard contrib.    to forces
     atom    1 type  1   force =     0.00000000    0.00000000    0.00000000
     atom    2 type  1   force =     0.00000000    0.00000000    0.00000000
     atom    3 type  2   force =     0.00000000    0.00000000    0.00000000
     atom    4 type  2   force =     0.00000000    0.00000000    0.00000000
     The SCF correction term to forces
     atom    1 type  1   force =    -0.00000000   -0.00000000    0.00000000
     atom    2 type  1   force =     0.00000000    0.00000000    0.00000000
     atom    3 type  2   force =    -0.00000000    0.00000000   -0.00000000
     atom    4 type  2   force =     0.00000000   -0.00000000   -0.00000000

     Total force =     0.000000     Total SCF correction =     0.000000


     Computing stress (Cartesian axis) and pressure

          total   stress  (Ry/bohr**3)                   (kbar)     P=      496.19
   0.00328962   0.00000000  -0.00000000          483.92        0.00       -0.00
   0.00000000   0.00328962  -0.00000000            0.00      483.92       -0.00
  -0.00000000  -0.00000000   0.00353985           -0.00       -0.00      520.73

     Energy error            =      1.2E-03 Ry
     Gradient error          =      2.8E-25 Ry/Bohr
     Cell gradient error     =      2.1E+01 kbar

     number of scf cycles    =   2
     number of bfgs steps    =   1

     enthalpy           old  =     -44.7133658349 Ry
     enthalpy           new  =     -44.7145996228 Ry

     CASE: enthalpy          _new < enthalpy          _old

     new trust radius        =       0.0209885861 bohr
ibrav =      4
 celldm(1) =      4.57446164
 celldm(3) =      3.08592906
Input lattice vectors:
     0.99677700     0.00000000    -0.00000000
    -0.49838850     0.86323421    -0.00000000
    -0.00000000    -0.00000000     3.07598312
New lattice vectors in INITIAL alat:
     0.99677700     0.00000000     0.00000000
    -0.49838850     0.86323421     0.00000000
     0.00000000     0.00000000     3.07598312
New lattice vectors in NEW alat (for information only):
     1.00000000     0.00000000     0.00000000
    -0.50000000     0.86602540     0.00000000
     0.00000000     0.00000000     3.08592906
Discrepancy in bohr =     0.000000    0.000000    0.000000
     new conv_thr            =            1.0E-10 Ry

     new unit-cell volume =    255.82120 a.u.^3 (    37.90879 Ang^3 )
     density =      3.06857 g/cm^3

CELL_PARAMETERS (alat=  4.58925279)
   0.996777002   0.000000000   0.000000000
  -0.498388501   0.863234206   0.000000000
   0.000000000   0.000000000   3.075983120

ATOMIC_POSITIONS (crystal)
Li           -0.0000000000       -0.0000000000        0.0000000000
Li            0.0000000000        0.0000000000        0.5000000000
Si            0.3333333300        0.6666666700        0.7500000000
Si            0.6666666700        0.3333333300        0.2500000000



     Writing config-only to output data dir ./output/LiSi.save/
     NEW-OLD atomic charge density approx. for the potential
     extrapolated charge   13.99076, renormalised to   14.00000

     total cpu time spent up to now is        8.2 secs

     Self-consistent Calculation

     iteration #  1     ecut=    80.00 Ry     beta= 0.70
     Davidson diagonalization with overlap
     ethr =  1.00E-06,  avg # of iterations =  4.5

     total cpu time spent up to now is        8.6 secs

     total energy              =     -45.58436809 Ry
     estimated scf accuracy    <       0.00001521 Ry

     iteration #  2     ecut=    80.00 Ry     beta= 0.70
     Davidson diagonalization with overlap
     ethr =  1.09E-07,  avg # of iterations =  2.1

     total cpu time spent up to now is        8.9 secs

     total energy              =     -45.58437203 Ry
     estimated scf accuracy    <       0.00000117 Ry

     iteration #  3     ecut=    80.00 Ry     beta= 0.70
     Davidson diagonalization with overlap
     ethr =  8.34E-09,  avg # of iterations =  2.1

     total cpu time spent up to now is        9.2 secs

     total energy              =     -45.58437229 Ry
     estimated scf accuracy    <       0.00000004 Ry

     iteration #  4     ecut=    80.00 Ry     beta= 0.70
     Davidson diagonalization with overlap
     ethr =  2.60E-10,  avg # of iterations =  2.7

     total cpu time spent up to now is        9.5 secs

     total energy              =     -45.58437231 Ry
     estimated scf accuracy    <          2.9E-10 Ry

     iteration #  5     ecut=    80.00 Ry     beta= 0.70
     Davidson diagonalization with overlap
     ethr =  2.09E-12,  avg # of iterations =  3.6

     total cpu time spent up to now is        9.8 secs

     End of self-consistent calculation

          k = 0.0000 0.0000 0.0000 (  3075 PWs)   bands (ev):

   -35.0256 -35.0227  -3.3390  -3.2535   4.1183   5.6904  12.0543  18.1563
    22.1230  24.6102  24.6102

          k = 0.0000 0.0000 0.0650 (  3081 PWs)   bands (ev):

   -35.0253 -35.0230  -3.3312  -3.2621   4.2338   5.4861  12.4991  17.0806
    23.3863  24.6693  24.6693

          k = 0.0000 0.0000 0.1300 (  3088 PWs)   bands (ev):

   -35.0246 -35.0237  -3.3105  -3.2841   4.5602   5.0277  13.6722  15.2958
    24.8328  24.8329  25.0511

          k = 0.0000 0.1448 0.0000 (  3069 PWs)   bands (ev):

   -35.0026 -35.0000  -2.8577  -2.7411   4.4603   6.1804  12.1196  18.1412
    20.3444  20.3774  22.0919

          k = 0.0000 0.1448 0.0650 (  3069 PWs)   bands (ev):

   -35.0024 -35.0003  -2.8471  -2.7529   4.5846   5.9505  12.5861  17.1829
    20.1091  20.3018  22.1521

          k = 0.0000 0.1448 0.1300 (  3076 PWs)   bands (ev):

   -35.0017 -35.0009  -2.8190  -2.7830   4.9364   5.4443  13.7948  15.4348
    20.0929  20.1951  22.3215

          k = 0.0000 0.2896 0.0000 (  3045 PWs)   bands (ev):

   -34.9470 -34.9450  -1.4237  -1.2168   5.4802   7.6466  11.6925  14.2000
    15.2402  19.1619  19.9594

          k = 0.0000 0.2896 0.0650 (  3060 PWs)   bands (ev):

   -34.9468 -34.9452  -1.4054  -1.2382   5.6268   7.3210  12.1354  14.1049
    15.3556  18.1813  20.0241

          k = 0.0000 0.2896 0.1300 (  3059 PWs)   bands (ev):

   -34.9463 -34.9457  -1.3562  -1.2924   6.0448   6.6638  13.0366  13.7586
    15.8020  16.7922  20.2081

          k = 0.0000 0.4344 0.0000 (  3052 PWs)   bands (ev):

   -34.8912 -34.8898   0.9297   1.2728   7.0808   8.1982   9.2109  10.0598
    14.6272  15.1346  18.0826

          k = 0.0000 0.4344 0.0650 (  3045 PWs)   bands (ev):

   -34.8910 -34.8899   0.9594   1.2365   7.1941   8.1081   9.2494   9.9001
    14.8714  15.2219  17.8618

          k = 0.0000 0.4344 0.1300 (  3043 PWs)   bands (ev):

   -34.8907 -34.8903   1.0398   1.1454   7.4902   7.8457   9.3735   9.6017
    15.2366  15.3729  17.9587

          k = 0.0000-0.5792 0.0000 (  3034 PWs)   bands (ev):

   -34.8679 -34.8668   3.7224   4.2146   4.5062   5.5617   8.3006  12.4317
    13.4603  14.3277  15.1814

          k = 0.0000-0.5792 0.0650 (  3010 PWs)   bands (ev):

   -34.8678 -34.8669   3.7781   4.1790   4.5529   5.3581   8.7075  12.0770
    13.4002  13.4538  16.5408

          k = 0.0000-0.5792 0.1300 (  3038 PWs)   bands (ev):

   -34.8676 -34.8672   3.9189   4.0740   4.7057   4.9899   9.6816  10.9246
    13.1988  13.2739  18.5085

          k = 0.1254 0.2172 0.0000 (  3067 PWs)   bands (ev):

   -34.9633 -34.9612  -1.8999  -1.7226   5.1448   7.1585  12.1379  16.4640
    17.0344  17.2099  19.1538

          k = 0.1254 0.2172 0.0650 (  3068 PWs)   bands (ev):

   -34.9631 -34.9614  -1.8841  -1.7408   5.2848   6.8710  12.6392  16.3705
    16.9346  16.9955  19.0454

          k = 0.1254 0.2172 0.1300 (  3067 PWs)   bands (ev):

   -34.9626 -34.9619  -1.8417  -1.7871   5.6831   6.2671  13.8634  15.3570
    16.7909  16.8947  18.8731

          k = 0.1254 0.3620 0.0000 (  3054 PWs)   bands (ev):

   -34.9076 -34.9060  -0.0037   0.2867   6.4977   9.1013  10.5722  11.9484
    13.5845  15.3223  17.3692

          k = 0.1254 0.3620 0.0650 (  3047 PWs)   bands (ev):

   -34.9074 -34.9062   0.0215   0.2561   6.6570   8.6063  10.9500  11.8956
    13.8339  15.2527  16.9936

          k = 0.1254 0.3620 0.1300 (  3053 PWs)   bands (ev):

   -34.9071 -34.9066   0.0898   0.1791   7.1129   7.8036  11.4277  11.7306
    14.4479  14.9963  17.0459

          k = 0.1254 0.5068 0.0000 (  3035 PWs)   bands (ev):

   -34.8680 -34.8669   2.7734   3.1900   6.5067   7.3477   8.2409  11.8298
    13.5738  13.7666  14.2580

          k = 0.1254 0.5068 0.0650 (  3032 PWs)   bands (ev):

   -34.8679 -34.8670   2.8108   3.1480   6.5322   7.1016   8.6862  11.4087
    13.4367  13.9907  14.3300

          k = 0.1254 0.5068 0.1300 (  3031 PWs)   bands (ev):

   -34.8676 -34.8673   2.9111   3.0400   6.6208   6.8035   9.5407  10.5147
    13.4867  13.7114  14.8858

          k = 0.2508 0.4344 0.0000 (  3049 PWs)   bands (ev):

   -34.8681 -34.8670   2.3326   2.7350   8.1863   9.4009   9.5300  10.6151
    10.9527  11.4160  14.6533

          k = 0.2508 0.4344 0.0650 (  3044 PWs)   bands (ev):

   -34.8680 -34.8671   2.3671   2.6919   8.2930   9.2693   9.6198  10.6991
    10.7126  11.3886  15.0068

          k = 0.2508 0.4344 0.1300 (  3034 PWs)   bands (ev):

   -34.8677 -34.8674   2.4608   2.5844   8.5775   8.9468   9.8792  10.2735
    10.9240  11.2017  15.9074

          k = 0.2508 0.5792 0.0000 (  3044 PWs)   bands (ev):

   -34.8518 -34.8508   5.1805   5.5414   5.8700   6.8705   9.4438   9.7901
    10.2609  11.9312  14.9788

          k = 0.2508 0.5792 0.0650 (  3044 PWs)   bands (ev):

   -34.8517 -34.8509   5.2280   5.5209   5.9168   6.6927   9.4253  10.0721
    10.1996  12.1041  14.8218

          k = 0.2508 0.5792 0.1300 (  3042 PWs)   bands (ev):

   -34.8514 -34.8511   5.3419   5.4542   6.0707   6.3504   9.5207   9.7527
    11.0700  11.9459  14.3141

     the Fermi energy is    10.7970 ev

!    total energy              =     -45.58437231 Ry
     estimated scf accuracy    <          2.4E-11 Ry
     smearing contrib. (-TS)   =      -0.00030490 Ry
     internal energy E=F+TS    =     -45.58406740 Ry

     The total energy is F=E-TS. E is the sum of the following terms:
     one-electron contribution =      -2.07002628 Ry
     hartree contribution      =       5.80691679 Ry
     xc contribution           =     -13.64228181 Ry
     ewald contribution        =     -35.67867612 Ry

     convergence has been achieved in   5 iterations

     Forces acting on atoms (cartesian axes, Ry/au):

     atom    1 type  1   force =     0.00000000    0.00000000   -0.00000000
     atom    2 type  1   force =    -0.00000000    0.00000000    0.00000000
     atom    3 type  2   force =     0.00000000    0.00000000   -0.00000000
     atom    4 type  2   force =     0.00000000   -0.00000000   -0.00000000
     The non-local contrib.  to forces
     atom    1 type  1   force =     0.00000000    0.00000000    0.00000000
     atom    2 type  1   force =    -0.00000000    0.00000000    0.00000000
     atom    3 type  2   force =     0.00000000   -0.00000000    0.00000000
     atom    4 type  2   force =    -0.00000000   -0.00000000    0.00000000
     The ionic contribution  to forces
     atom    1 type  1   force =     0.00000000    0.00000000   -0.00000000
     atom    2 type  1   force =    -0.00000000    0.00000000   -0.00000000
     atom    3 type  2   force =     0.00000000   -0.00000000    0.00000000
     atom    4 type  2   force =    -0.00000000    0.00000000   -0.00000000
     The local contribution  to forces
     atom    1 type  1   force =     0.00000000    0.00000000   -0.00000000
     atom    2 type  1   force =     0.00000000    0.00000000   -0.00000000
     atom    3 type  2   force =    -0.00000001    0.00000001    0.00000000
     atom    4 type  2   force =     0.00000001   -0.00000001   -0.00000000
     The core correction contribution to forces
     atom    1 type  1   force =     0.00000000    0.00000000    0.00000000
     atom    2 type  1   force =     0.00000000    0.00000000    0.00000000
     atom    3 type  2   force =    -0.00000000    0.00000000   -0.00000000
     atom    4 type  2   force =     0.00000000   -0.00000000    0.00000000
     The Hubbard contrib.    to forces
     atom    1 type  1   force =     0.00000000    0.00000000    0.00000000
     atom    2 type  1   force =     0.00000000    0.00000000    0.00000000
     atom    3 type  2   force =     0.00000000    0.00000000    0.00000000
     atom    4 type  2   force =     0.00000000    0.00000000    0.00000000
     The SCF correction term to forces
     atom    1 type  1   force =     0.00000000    0.00000000    0.00000000
     atom    2 type  1   force =    -0.00000000   -0.00000000   -0.00000000
     atom    3 type  2   force =    -0.00000000    0.00000000   -0.00000000
     atom    4 type  2   force =     0.00000000   -0.00000000    0.00000000

     Total force =     0.000000     Total SCF correction =     0.000000


     Computing stress (Cartesian axis) and pressure

          total   stress  (Ry/bohr**3)                   (kbar)     P=      496.99
   0.00336560   0.00000000   0.00000000          495.10        0.00        0.00
   0.00000000   0.00336560  -0.00000000            0.00      495.10       -0.00
   0.00000000  -0.00000000   0.00340414            0.00       -0.00      500.77

     Energy error            =      2.5E-04 Ry
     Gradient error          =      3.2E-25 Ry/Bohr
     Cell gradient error     =      4.9E+00 kbar

     number of scf cycles    =   3
     number of bfgs steps    =   2

     enthalpy           old  =     -44.7145996228 Ry
     enthalpy           new  =     -44.7148537020 Ry

     CASE: enthalpy          _new < enthalpy          _old

     new trust radius        =       0.0034349417 bohr
ibrav =      4
 celldm(1) =      4.56954961
 celldm(3) =      3.09177183
Input lattice vectors:
     0.99570667     0.00000000     0.00000000
    -0.49785333     0.86230727     0.00000000
     0.00000000     0.00000000     3.07849783
New lattice vectors in INITIAL alat:
     0.99570667     0.00000000     0.00000000
    -0.49785333     0.86230727     0.00000000
     0.00000000     0.00000000     3.07849783
New lattice vectors in NEW alat (for information only):
     1.00000000     0.00000000     0.00000000
    -0.50000000     0.86602540     0.00000000
     0.00000000     0.00000000     3.09177183
Discrepancy in bohr =     0.000000    0.000000    0.000000
     new conv_thr            =            1.0E-10 Ry

     new unit-cell volume =    255.48079 a.u.^3 (    37.85835 Ang^3 )
     density =      3.07266 g/cm^3

CELL_PARAMETERS (alat=  4.58925279)
   0.995706669   0.000000000   0.000000000
  -0.497853334   0.862307270   0.000000000
   0.000000000   0.000000000   3.078497829

ATOMIC_POSITIONS (crystal)
Li            0.0000000000        0.0000000000       -0.0000000000
Li           -0.0000000000        0.0000000000        0.5000000000
Si            0.3333333300        0.6666666700        0.7500000000
Si            0.6666666700        0.3333333300        0.2500000000



     Writing config-only to output data dir ./output/LiSi.save/
     NEW-OLD atomic charge density approx. for the potential
     extrapolated charge   13.98136, renormalised to   14.00000

     total cpu time spent up to now is       10.8 secs

     Self-consistent Calculation

     iteration #  1     ecut=    80.00 Ry     beta= 0.70
     Davidson diagonalization with overlap
     ethr =  1.00E-06,  avg # of iterations =  2.0

     Threshold (ethr) on eigenvalues was too large:
     Diagonalizing with lowered threshold

     Davidson diagonalization with overlap
     ethr =  8.08E-09,  avg # of iterations =  3.1

     total cpu time spent up to now is       11.4 secs

     total energy              =     -45.58322306 Ry
     estimated scf accuracy    <       0.00000123 Ry

     iteration #  2     ecut=    80.00 Ry     beta= 0.70
     Davidson diagonalization with overlap
     ethr =  8.76E-09,  avg # of iterations =  2.0

     total cpu time spent up to now is       11.7 secs

     total energy              =     -45.58322516 Ry
     estimated scf accuracy    <       0.00000030 Ry

     iteration #  3     ecut=    80.00 Ry     beta= 0.70
     Davidson diagonalization with overlap
     ethr =  2.13E-09,  avg # of iterations =  1.0

     total cpu time spent up to now is       12.0 secs

     total energy              =     -45.58322514 Ry
     estimated scf accuracy    <       0.00000006 Ry

     iteration #  4     ecut=    80.00 Ry     beta= 0.70
     Davidson diagonalization with overlap
     ethr =  3.93E-10,  avg # of iterations =  2.0

     total cpu time spent up to now is       12.2 secs

     total energy              =     -45.58322514 Ry
     estimated scf accuracy    <          1.7E-09 Ry

     iteration #  5     ecut=    80.00 Ry     beta= 0.70
     Davidson diagonalization with overlap
     ethr =  1.24E-11,  avg # of iterations =  3.0

     total cpu time spent up to now is       12.6 secs

     End of self-consistent calculation

          k = 0.0000 0.0000 0.0000 (  3075 PWs)   bands (ev):

   -35.0123 -35.0095  -3.3398  -3.2571   4.1250   5.6830  12.0564  18.1324
    22.1043  24.6635  24.6635

          k = 0.0000 0.0000 0.0650 (  3081 PWs)   bands (ev):

   -35.0121 -35.0098  -3.3323  -3.2654   4.2397   5.4809  12.4987  17.0616
    23.3640  24.7219  24.7219

          k = 0.0000 0.0000 0.1299 (  3088 PWs)   bands (ev):

   -35.0114 -35.0105  -3.3122  -3.2866   4.5634   5.0269  13.6662  15.2835
    24.8833  24.8834  25.0980

          k = 0.0000 0.1450 0.0000 (  3069 PWs)   bands (ev):

   -34.9892 -34.9866  -2.8574  -2.7436   4.4680   6.1741  12.1229  18.1344
    20.3859  20.4091  22.1494

          k = 0.0000 0.1450 0.0650 (  3069 PWs)   bands (ev):

   -34.9889 -34.9869  -2.8471  -2.7551   4.5914   5.9465  12.5869  17.1713
    20.1493  20.3427  22.2092

          k = 0.0000 0.1450 0.1299 (  3076 PWs)   bands (ev):

   -34.9883 -34.9875  -2.8196  -2.7845   4.9407   5.4446  13.7906  15.4255
    20.1358  20.2373  22.3777

          k = 0.0000 0.2899 0.0000 (  3045 PWs)   bands (ev):

   -34.9331 -34.9311  -1.4201  -1.2162   5.4910   7.6438  11.7069  14.2305
    15.2630  19.1870  20.0147

          k = 0.0000 0.2899 0.0650 (  3060 PWs)   bands (ev):

   -34.9329 -34.9313  -1.4021  -1.2373   5.6367   7.3208  12.1495  14.1346
    15.3758  18.1819  20.0793

          k = 0.0000 0.2899 0.1299 (  3059 PWs)   bands (ev):

   -34.9324 -34.9318  -1.3536  -1.2907   6.0524   6.6679  13.0547  13.7846
    15.8135  16.7925  20.2625

          k = 0.0000 0.4349 0.0000 (  3052 PWs)   bands (ev):

   -34.8767 -34.8753   0.9384   1.2780   7.0965   8.2210   9.2333  10.0633
    14.6325  15.1587  18.1011

          k = 0.0000 0.4349 0.0650 (  3045 PWs)   bands (ev):

   -34.8766 -34.8755   0.9678   1.2421   7.2097   8.1294   9.2712   9.9073
    14.8779  15.2423  17.8838

          k = 0.0000 0.4349 0.1299 (  3043 PWs)   bands (ev):

   -34.8762 -34.8758   1.0475   1.1520   7.5061   7.8636   9.3930   9.6160
    15.2495  15.3856  17.9774

          k = 0.0000-0.5798 0.0000 (  3034 PWs)   bands (ev):

   -34.8533 -34.8522   3.7344   4.2220   4.5251   5.5812   8.3214  12.4538
    13.4681  14.3361  15.1842

          k = 0.0000-0.5798 0.0650 (  3010 PWs)   bands (ev):

   -34.8532 -34.8523   3.7894   4.1864   4.5723   5.3786   8.7270  12.0958
    13.4096  13.4654  16.5437

          k = 0.0000-0.5798 0.1299 (  3038 PWs)   bands (ev):

   -34.8529 -34.8525   3.9283   4.0818   4.7265   5.0113   9.6989  10.9405
    13.2135  13.2865  18.5598

          k = 0.1255 0.2174 0.0000 (  3067 PWs)   bands (ev):

   -34.9495 -34.9474  -1.8974  -1.7231   5.1545   7.1546  12.1450  16.4977
    17.0660  17.2430  19.2006

          k = 0.1255 0.2174 0.0650 (  3068 PWs)   bands (ev):

   -34.9493 -34.9476  -1.8818  -1.7410   5.2937   6.8694  12.6442  16.3967
    16.9633  17.0275  19.0919

          k = 0.1255 0.2174 0.1299 (  3067 PWs)   bands (ev):

   -34.9488 -34.9481  -1.8402  -1.7864   5.6895   6.2699  13.8656  15.3618
    16.8247  16.9276  18.9170

          k = 0.1255 0.3624 0.0000 (  3054 PWs)   bands (ev):

   -34.8933 -34.8918   0.0031   0.2902   6.5114   9.1022  10.5955  11.9746
    13.6053  15.3553  17.4036

          k = 0.1255 0.3624 0.0650 (  3047 PWs)   bands (ev):

   -34.8931 -34.8919   0.0280   0.2599   6.6700   8.6111  10.9723  11.9218
    13.8536  15.2851  17.0235

          k = 0.1255 0.3624 0.1299 (  3053 PWs)   bands (ev):

   -34.8928 -34.8923   0.0955   0.1839   7.1240   7.8120  11.4522  11.7565
    14.4691  15.0247  17.0685

          k = 0.1255 0.5074 0.0000 (  3035 PWs)   bands (ev):

   -34.8534 -34.8522   2.7858   3.1983   6.5271   7.3671   8.2606  11.8418
    13.6035  13.7858  14.2841

          k = 0.1255 0.5074 0.0650 (  3032 PWs)   bands (ev):

   -34.8533 -34.8523   2.8229   3.1567   6.5526   7.1217   8.7045  11.4211
    13.4629  14.0235  14.3456

          k = 0.1255 0.5074 0.1299 (  3031 PWs)   bands (ev):

   -34.8530 -34.8526   2.9223   3.0498   6.6412   6.8240   9.5567  10.5285
    13.5136  13.7399  14.9068

          k = 0.2511 0.4349 0.0000 (  3049 PWs)   bands (ev):

   -34.8535 -34.8523   2.3442   2.7428   8.2050   9.4211   9.5518  10.6503
    10.9790  11.4252  14.6825

          k = 0.2511 0.4349 0.0650 (  3044 PWs)   bands (ev):

   -34.8534 -34.8524   2.3784   2.7002   8.3116   9.2890   9.6413  10.7333
    10.7346  11.4058  15.0344

          k = 0.2511 0.4349 0.1299 (  3034 PWs)   bands (ev):

   -34.8531 -34.8527   2.4713   2.5937   8.5959   8.9656   9.9002  10.2941
    10.9553  11.2275  15.9321

          k = 0.2511 0.5798 0.0000 (  3044 PWs)   bands (ev):

   -34.8370 -34.8360   5.1947   5.5523   5.8899   6.8890   9.4756   9.8144
    10.2873  11.9595  14.9899

          k = 0.2511 0.5798 0.0650 (  3044 PWs)   bands (ev):

   -34.8369 -34.8361   5.2415   5.5316   5.9373   6.7125   9.4553  10.0996
    10.2240  12.1303  14.8365

          k = 0.2511 0.5798 0.1299 (  3042 PWs)   bands (ev):

   -34.8366 -34.8363   5.3537   5.4649   6.0923   6.3720   9.5500   9.7813
    11.0927  11.9683  14.3322

     the Fermi energy is    10.8222 ev

!    total energy              =     -45.58322514 Ry
     estimated scf accuracy    <          6.0E-11 Ry
     smearing contrib. (-TS)   =      -0.00029960 Ry
     internal energy E=F+TS    =     -45.58292555 Ry

     The total energy is F=E-TS. E is the sum of the following terms:
     one-electron contribution =      -2.04664546 Ry
     hartree contribution      =       5.80374878 Ry
     xc contribution           =     -13.64548970 Ry
     ewald contribution        =     -35.69453917 Ry

     convergence has been achieved in   5 iterations

     Forces acting on atoms (cartesian axes, Ry/au):

     atom    1 type  1   force =     0.00000000    0.00000000   -0.00000000
     atom    2 type  1   force =     0.00000000    0.00000000    0.00000000
     atom    3 type  2   force =    -0.00000000    0.00000000   -0.00000000
     atom    4 type  2   force =     0.00000000   -0.00000000   -0.00000000
     The non-local contrib.  to forces
     atom    1 type  1   force =    -0.00000000   -0.00000000    0.00000000
     atom    2 type  1   force =    -0.00000000   -0.00000000    0.00000000
     atom    3 type  2   force =     0.00000000    0.00000000    0.00000000
     atom    4 type  2   force =    -0.00000000   -0.00000000    0.00000000
     The ionic contribution  to forces
     atom    1 type  1   force =    -0.00000000    0.00000000    0.00000000
     atom    2 type  1   force =    -0.00000000    0.00000000   -0.00000000
     atom    3 type  2   force =     0.00000000   -0.00000000    0.00000000
     atom    4 type  2   force =    -0.00000000    0.00000000    0.00000000
     The local contribution  to forces
     atom    1 type  1   force =     0.00000000    0.00000000    0.00000000
     atom    2 type  1   force =     0.00000000    0.00000000   -0.00000000
     atom    3 type  2   force =    -0.00000001    0.00000001   -0.00000000
     atom    4 type  2   force =     0.00000001   -0.00000001    0.00000000
     The core correction contribution to forces
     atom    1 type  1   force =     0.00000000    0.00000000    0.00000000
     atom    2 type  1   force =     0.00000000    0.00000000    0.00000000
     atom    3 type  2   force =    -0.00000000    0.00000000   -0.00000000
     atom    4 type  2   force =     0.00000000   -0.00000000    0.00000000
     The Hubbard contrib.    to forces
     atom    1 type  1   force =     0.00000000    0.00000000    0.00000000
     atom    2 type  1   force =     0.00000000    0.00000000    0.00000000
     atom    3 type  2   force =     0.00000000    0.00000000    0.00000000
     atom    4 type  2   force =     0.00000000    0.00000000    0.00000000
     The SCF correction term to forces
     atom    1 type  1   force =     0.00000000    0.00000000   -0.00000000
     atom    2 type  1   force =    -0.00000000   -0.00000000    0.00000000
     atom    3 type  2   force =    -0.00000000    0.00000000    0.00000000
     atom    4 type  2   force =     0.00000000   -0.00000000    0.00000000

     Total force =     0.000000     Total SCF correction =     0.000000


     Computing stress (Cartesian axis) and pressure

          total   stress  (Ry/bohr**3)                   (kbar)     P=      499.73
   0.00339747   0.00000000   0.00000000          499.79        0.00        0.00
   0.00000000   0.00339747   0.00000000            0.00      499.79        0.00
   0.00000000   0.00000000   0.00339643            0.00        0.00      499.63

     Energy error            =      9.9E-06 Ry
     Gradient error          =      1.2E-25 Ry/Bohr
     Cell gradient error     =      3.7E-01 kbar
ibrav =      4
 celldm(1) =      4.56954961
 celldm(3) =      3.09177183
Input lattice vectors:
     0.99570667     0.00000000     0.00000000
    -0.49785333     0.86230727     0.00000000
     0.00000000     0.00000000     3.07849783
New lattice vectors in INITIAL alat:
     0.99570667     0.00000000     0.00000000
    -0.49785333     0.86230727     0.00000000
     0.00000000     0.00000000     3.07849783
New lattice vectors in NEW alat (for information only):
     1.00000000     0.00000000     0.00000000
    -0.50000000     0.86602540     0.00000000
     0.00000000     0.00000000     3.09177183
Discrepancy in bohr =     0.000000    0.000000    0.000000

     bfgs converged in   4 scf cycles and   3 bfgs steps
     (criteria: energy <  1.0E-04 Ry, force <  1.0E-03 Ry/Bohr, cell <  1.0E+00 kbar)

     End of BFGS Geometry Optimization

     Final enthalpy           =     -44.7148635749 Ry

     File ./output/LiSi.bfgs deleted, as requested
Begin final coordinates
     new unit-cell volume =    255.48079 a.u.^3 (    37.85835 Ang^3 )
     density =      3.07266 g/cm^3

CELL_PARAMETERS (alat=  4.58925279)
   0.995706669   0.000000000   0.000000000
  -0.497853334   0.862307270   0.000000000
   0.000000000   0.000000000   3.078497829

ATOMIC_POSITIONS (crystal)
Li            0.0000000000        0.0000000000       -0.0000000000
Li           -0.0000000000        0.0000000000        0.5000000000
Si            0.3333333300        0.6666666700        0.7500000000
Si            0.6666666700        0.3333333300        0.2500000000
End final coordinates



     Writing config-only to output data dir ./output/LiSi.save/

     Final scf calculation at the relaxed structure.
     The G-vectors are recalculated for the final unit cell
     Results may differ from those at the preceding step.

     Parallelization info
     --------------------
     sticks:   dense  smooth     PW     G-vecs:    dense   smooth      PW
     Min          56      56     17                 3070     3070     503
     Max          57      57     18                 3081     3081     512
     Sum         451     451    139                24603    24603    4059

     Using Slab Decomposition



     bravais-lattice index     =            4
     lattice parameter (alat)  =       4.5893  a.u.
     unit-cell volume          =     255.4808 (a.u.)^3
     number of atoms/cell      =            4
     number of atomic types    =            2
     number of electrons       =        14.00
     number of Kohn-Sham states=           11
     kinetic-energy cutoff     =      80.0000  Ry
     charge density cutoff     =     320.0000  Ry
     scf convergence threshold =      1.0E-10
     mixing beta               =       0.7000
     number of iterations used =            8  plain     mixing
     press convergence thresh. =      1.0E+00
     Exchange-correlation= PBE
                           (   1   4   3   4   0   0   0)

     celldm(1)=   4.589253  celldm(2)=   0.000000  celldm(3)=   3.013536
     celldm(4)=   0.000000  celldm(5)=   0.000000  celldm(6)=   0.000000

     crystal axes: (cart. coord. in units of alat)
               a(1) = (   0.995707   0.000000   0.000000 )  
               a(2) = (  -0.497853   0.862307   0.000000 )  
               a(3) = (   0.000000   0.000000   3.078498 )  

     reciprocal axes: (cart. coord. in units 2 pi/alat)
               b(1) = (  1.004312  0.579840 -0.000000 )  
               b(2) = (  0.000000  1.159679  0.000000 )  
               b(3) = (  0.000000 -0.000000  0.324834 )  


     PseudoPot. # 1 for Li read from file:
     ../pseudo/Li_ONCV_PBE_sr.upf
     MD5 check sum: 50ff420e78310ffa21704f3361e624a4
     Pseudo is Norm-conserving, Zval =  3.0
     Generated using ONCVPSP code by D. R. Hamann
     Using radial grid of 1944 points,  4 beta functions with: 
                l(1) =   0
                l(2) =   0
                l(3) =   1
                l(4) =   1

     PseudoPot. # 2 for Si read from file:
     ../pseudo/Si_ONCV_PBE_sr.upf
     MD5 check sum: e543d271109d17c80368dfa7c482276d
     Pseudo is Norm-conserving + core correction, Zval =  4.0
     Generated using ONCVPSP code by D. R. Hamann
     Using radial grid of 1510 points,  6 beta functions with: 
                l(1) =   0
                l(2) =   0
                l(3) =   1
                l(4) =   1
                l(5) =   2
                l(6) =   2

     atomic species   valence    mass     pseudopotential
        Li             3.00     6.94100     Li( 1.00)
        Si             4.00    28.08550     Si( 1.00)

     24 Sym. Ops., with inversion, found (12 have fractional translation)



   Cartesian axes

     site n.     atom                  positions (alat units)
         1           Li  tau(   1) = (   0.0000000   0.0000000  -0.0000000  )
         2           Li  tau(   2) = (  -0.0000000   0.0000000   1.5392489  )
         3           Si  tau(   3) = (  -0.0000000   0.5748715   2.3088734  )
         4           Si  tau(   4) = (   0.4978533   0.2874358   0.7696245  )

     number of k points=    30  Marzari-Vanderbilt smearing, width (Ry)=  0.0200
                       cart. coord. in units 2pi/alat
        k(    1) = (   0.0000000   0.0000000   0.0000000), wk =   0.0062500
        k(    2) = (   0.0000000   0.0000000   0.0649668), wk =   0.0125000
        k(    3) = (   0.0000000   0.0000000   0.1299335), wk =   0.0125000
        k(    4) = (   0.0000000   0.1449599   0.0000000), wk =   0.0375000
        k(    5) = (   0.0000000   0.1449599   0.0649668), wk =   0.0750000
        k(    6) = (   0.0000000   0.1449599   0.1299335), wk =   0.0750000
        k(    7) = (   0.0000000   0.2899199   0.0000000), wk =   0.0375000
        k(    8) = (   0.0000000   0.2899199   0.0649668), wk =   0.0750000
        k(    9) = (   0.0000000   0.2899199   0.1299335), wk =   0.0750000
        k(   10) = (   0.0000000   0.4348798   0.0000000), wk =   0.0375000
        k(   11) = (   0.0000000   0.4348798   0.0649668), wk =   0.0750000
        k(   12) = (   0.0000000   0.4348798   0.1299335), wk =   0.0750000
        k(   13) = (   0.0000000  -0.5798397   0.0000000), wk =   0.0187500
        k(   14) = (   0.0000000  -0.5798397   0.0649668), wk =   0.0375000
        k(   15) = (   0.0000000  -0.5798397   0.1299335), wk =   0.0375000
        k(   16) = (   0.1255390   0.2174399   0.0000000), wk =   0.0375000
        k(   17) = (   0.1255390   0.2174399   0.0649668), wk =   0.0750000
        k(   18) = (   0.1255390   0.2174399   0.1299335), wk =   0.0750000
        k(   19) = (   0.1255390   0.3623998   0.0000000), wk =   0.0750000
        k(   20) = (   0.1255390   0.3623998   0.0649668), wk =   0.1500000
        k(   21) = (   0.1255390   0.3623998   0.1299335), wk =   0.1500000
        k(   22) = (   0.1255390   0.5073597   0.0000000), wk =   0.0750000
        k(   23) = (   0.1255390   0.5073597   0.0649668), wk =   0.1500000
        k(   24) = (   0.1255390   0.5073597   0.1299335), wk =   0.1500000
        k(   25) = (   0.2510780   0.4348798   0.0000000), wk =   0.0375000
        k(   26) = (   0.2510780   0.4348798   0.0649668), wk =   0.0750000
        k(   27) = (   0.2510780   0.4348798   0.1299335), wk =   0.0750000
        k(   28) = (   0.2510780   0.5798397   0.0000000), wk =   0.0375000
        k(   29) = (   0.2510780   0.5798397   0.0649668), wk =   0.0750000
        k(   30) = (   0.2510780   0.5798397   0.1299335), wk =   0.0750000

     Dense  grid:    24603 G-vectors     FFT dimensions: (  25,  25,  90)

     Estimated max dynamical RAM per process >      16.02 MB

     Estimated total dynamical RAM >     128.16 MB

     Initial potential from superposition of free atoms

     starting charge      13.9897, renormalised to      14.0000
     Starting wfcs are   12 randomized atomic wfcs

     total cpu time spent up to now is       13.9 secs

     Self-consistent Calculation

     iteration #  1     ecut=    80.00 Ry     beta= 0.70
     Davidson diagonalization with overlap
     c_bands:  2 eigenvalues not converged
     c_bands:  2 eigenvalues not converged
     c_bands:  2 eigenvalues not converged
     c_bands:  3 eigenvalues not converged
     c_bands:  3 eigenvalues not converged
     c_bands:  1 eigenvalues not converged
     c_bands:  1 eigenvalues not converged
     c_bands:  1 eigenvalues not converged
     c_bands:  1 eigenvalues not converged
     c_bands:  1 eigenvalues not converged
     c_bands:  1 eigenvalues not converged
     c_bands:  1 eigenvalues not converged
     c_bands:  1 eigenvalues not converged
     c_bands:  1 eigenvalues not converged
     c_bands:  1 eigenvalues not converged
     ethr =  1.00E-06,  avg # of iterations = 18.3

     total cpu time spent up to now is       14.7 secs

     total energy              =     -45.58188001 Ry
     estimated scf accuracy    <       0.01583307 Ry

     iteration #  2     ecut=    80.00 Ry     beta= 0.70
     Davidson diagonalization with overlap
     ethr =  1.13E-04,  avg # of iterations =  1.9

     total cpu time spent up to now is       14.9 secs

     total energy              =     -45.58304147 Ry
     estimated scf accuracy    <       0.00131073 Ry

     iteration #  3     ecut=    80.00 Ry     beta= 0.70
     Davidson diagonalization with overlap
     ethr =  9.36E-06,  avg # of iterations =  2.2

     total cpu time spent up to now is       15.1 secs

     total energy              =     -45.58321516 Ry
     estimated scf accuracy    <       0.00009498 Ry

     iteration #  4     ecut=    80.00 Ry     beta= 0.70
     Davidson diagonalization with overlap
     ethr =  6.78E-07,  avg # of iterations =  2.8

     total cpu time spent up to now is       15.4 secs

     total energy              =     -45.58322674 Ry
     estimated scf accuracy    <       0.00000097 Ry

     iteration #  5     ecut=    80.00 Ry     beta= 0.70
     Davidson diagonalization with overlap
     ethr =  6.90E-09,  avg # of iterations =  3.5

     total cpu time spent up to now is       15.7 secs

     total energy              =     -45.58322725 Ry
     estimated scf accuracy    <       0.00000017 Ry

     iteration #  6     ecut=    80.00 Ry     beta= 0.70
     Davidson diagonalization with overlap
     ethr =  1.22E-09,  avg # of iterations =  2.0

     total cpu time spent up to now is       15.9 secs

     total energy              =     -45.58322730 Ry
     estimated scf accuracy    <       0.00000001 Ry

     iteration #  7     ecut=    80.00 Ry     beta= 0.70
     Davidson diagonalization with overlap
     ethr =  7.45E-11,  avg # of iterations =  2.1

     total cpu time spent up to now is       16.1 secs

     End of self-consistent calculation

          k = 0.0000 0.0000 0.0000 (  3113 PWs)   bands (ev):

   -35.0122 -35.0094  -3.3398  -3.2571   4.1250   5.6830  12.0564  18.1324
    22.1043  24.6636  24.6636

          k = 0.0000 0.0000 0.0650 (  3106 PWs)   bands (ev):

   -35.0120 -35.0097  -3.3323  -3.2654   4.2397   5.4809  12.4987  17.0616
    23.3640  24.7219  24.7219

          k = 0.0000 0.0000 0.1299 (  3148 PWs)   bands (ev):

   -35.0113 -35.0104  -3.3122  -3.2867   4.5634   5.0268  13.6662  15.2835
    24.8833  24.8833  25.0980

          k = 0.0000 0.1450 0.0000 (  3097 PWs)   bands (ev):

   -34.9891 -34.9865  -2.8574  -2.7436   4.4680   6.1741  12.1229  18.1344
    20.3859  20.4091  21.8260

          k = 0.0000 0.1450 0.0650 (  3101 PWs)   bands (ev):

   -34.9888 -34.9868  -2.8471  -2.7551   4.5914   5.9465  12.5869  17.1713
    20.1493  20.3427  22.2092

          k = 0.0000 0.1450 0.1299 (  3117 PWs)   bands (ev):

   -34.9882 -34.9874  -2.8196  -2.7845   4.9407   5.4446  13.7906  15.4255
    20.1358  20.2373  22.3778

          k = 0.0000 0.2899 0.0000 (  3093 PWs)   bands (ev):

   -34.9330 -34.9310  -1.4202  -1.2162   5.4910   7.6438  11.7069  14.2304
    15.2630  19.1871  20.0147

          k = 0.0000 0.2899 0.0650 (  3104 PWs)   bands (ev):

   -34.9328 -34.9312  -1.4021  -1.2373   5.6367   7.3208  12.1495  14.1346
    15.3758  18.1820  20.0793

          k = 0.0000 0.2899 0.1299 (  3107 PWs)   bands (ev):

   -34.9323 -34.9317  -1.3536  -1.2907   6.0524   6.6679  13.0547  13.7846
    15.8135  16.7925  20.2625

          k = 0.0000 0.4349 0.0000 (  3088 PWs)   bands (ev):

   -34.8766 -34.8752   0.9384   1.2780   7.0965   8.2210   9.2332  10.0633
    14.6325  15.1587  18.1013

          k = 0.0000 0.4349 0.0650 (  3077 PWs)   bands (ev):

   -34.8765 -34.8754   0.9678   1.2421   7.2098   8.1293   9.2712   9.9073
    14.8779  15.2423  17.8838

          k = 0.0000 0.4349 0.1299 (  3080 PWs)   bands (ev):

   -34.8761 -34.8757   1.0475   1.1520   7.5061   7.8636   9.3930   9.6160
    15.2495  15.3856  17.9775

          k = 0.0000-0.5798 0.0000 (  3054 PWs)   bands (ev):

   -34.8532 -34.8520   3.7344   4.2220   4.5251   5.5812   8.3214  12.4538
    13.4681  14.3361  15.1842

          k = 0.0000-0.5798 0.0650 (  3054 PWs)   bands (ev):

   -34.8531 -34.8522   3.7893   4.1864   4.5723   5.3786   8.7270  12.0958
    13.4096  13.4654  16.5437

          k = 0.0000-0.5798 0.1299 (  3060 PWs)   bands (ev):

   -34.8528 -34.8524   3.9283   4.0817   4.7265   5.0113   9.6989  10.9405
    13.2135  13.2865  18.1799

          k = 0.1255 0.2174 0.0000 (  3109 PWs)   bands (ev):

   -34.9494 -34.9473  -1.8974  -1.7231   5.1545   7.1546  12.1450  16.4976
    17.0660  17.2430  19.2006

          k = 0.1255 0.2174 0.0650 (  3107 PWs)   bands (ev):

   -34.9492 -34.9475  -1.8819  -1.7410   5.2937   6.8694  12.6442  16.3967
    16.9633  17.0275  19.0919

          k = 0.1255 0.2174 0.1299 (  3113 PWs)   bands (ev):

   -34.9487 -34.9480  -1.8402  -1.7864   5.6895   6.2699  13.8656  15.3618
    16.8246  16.9276  18.9170

          k = 0.1255 0.3624 0.0000 (  3096 PWs)   bands (ev):

   -34.8932 -34.8916   0.0030   0.2902   6.5114   9.1022  10.5955  11.9746
    13.6053  15.3553  17.4037

          k = 0.1255 0.3624 0.0650 (  3096 PWs)   bands (ev):

   -34.8930 -34.8918   0.0280   0.2599   6.6700   8.6111  10.9723  11.9218
    13.8536  15.2851  17.0235

          k = 0.1255 0.3624 0.1299 (  3082 PWs)   bands (ev):

   -34.8926 -34.8922   0.0955   0.1838   7.1240   7.8120  11.4522  11.7565
    14.4691  15.0247  17.0685

          k = 0.1255 0.5074 0.0000 (  3067 PWs)   bands (ev):

   -34.8533 -34.8521   2.7858   3.1983   6.5271   7.3670   8.2606  11.8418
    13.6035  13.7858  14.2841

          k = 0.1255 0.5074 0.0650 (  3070 PWs)   bands (ev):

   -34.8532 -34.8522   2.8229   3.1567   6.5526   7.1217   8.7045  11.4211
    13.4629  14.0236  14.3456

          k = 0.1255 0.5074 0.1299 (  3069 PWs)   bands (ev):

   -34.8529 -34.8525   2.9223   3.0498   6.6412   6.8239   9.5567  10.5285
    13.5136  13.7399  14.9068

          k = 0.2511 0.4349 0.0000 (  3081 PWs)   bands (ev):

   -34.8534 -34.8522   2.3442   2.7428   8.2051   9.4210   9.5518  10.6503
    10.9789  11.4252  14.6825

          k = 0.2511 0.4349 0.0650 (  3069 PWs)   bands (ev):

   -34.8533 -34.8523   2.3784   2.7002   8.3116   9.2890   9.6413  10.7333
    10.7346  11.4058  15.0344

          k = 0.2511 0.4349 0.1299 (  3067 PWs)   bands (ev):

   -34.8530 -34.8526   2.4712   2.5937   8.5959   8.9656   9.9002  10.2940
    10.9553  11.2275  15.9321

          k = 0.2511 0.5798 0.0000 (  3074 PWs)   bands (ev):

   -34.8369 -34.8359   5.1947   5.5522   5.8899   6.8890   9.4756   9.8144
    10.2873  11.9595  14.9901

          k = 0.2511 0.5798 0.0650 (  3078 PWs)   bands (ev):

   -34.8368 -34.8360   5.2415   5.5316   5.9373   6.7125   9.4552  10.0996
    10.2240  12.1303  14.8366

          k = 0.2511 0.5798 0.1299 (  3089 PWs)   bands (ev):

   -34.8365 -34.8362   5.3536   5.4649   6.0923   6.3720   9.5500   9.7813
    11.0927  11.9683  14.3322

     the Fermi energy is    10.8221 ev

!    total energy              =     -45.58322730 Ry
     estimated scf accuracy    <          4.9E-12 Ry
     smearing contrib. (-TS)   =      -0.00029960 Ry
     internal energy E=F+TS    =     -45.58292770 Ry

     The total energy is F=E-TS. E is the sum of the following terms:
     one-electron contribution =      -2.04665175 Ry
     hartree contribution      =       5.80375583 Ry
     xc contribution           =     -13.64549262 Ry
     ewald contribution        =     -35.69453917 Ry

     convergence has been achieved in   7 iterations

     Forces acting on atoms (cartesian axes, Ry/au):

     atom    1 type  1   force =     0.00000000    0.00000000    0.00000000
     atom    2 type  1   force =     0.00000000    0.00000000    0.00000000
     atom    3 type  2   force =    -0.00000000    0.00000000    0.00000000
     atom    4 type  2   force =     0.00000000   -0.00000000   -0.00000000
     The non-local contrib.  to forces
     atom    1 type  1   force =    -0.00000000   -0.00000000   -0.00000000
     atom    2 type  1   force =     0.00000000    0.00000000    0.00000000
     atom    3 type  2   force =     0.00000000    0.00000000    0.00000000
     atom    4 type  2   force =     0.00000000    0.00000000    0.00000000
     The ionic contribution  to forces
     atom    1 type  1   force =     0.00000000    0.00000000    0.00000000
     atom    2 type  1   force =    -0.00000000    0.00000000   -0.00000000
     atom    3 type  2   force =     0.00000000   -0.00000000   -0.00000000
     atom    4 type  2   force =    -0.00000000    0.00000000    0.00000000
     The local contribution  to forces
     atom    1 type  1   force =    -0.00000000    0.00000000   -0.00000000
     atom    2 type  1   force =    -0.00000000    0.00000000   -0.00000000
     atom    3 type  2   force =    -0.00000001    0.00000001   -0.00000000
     atom    4 type  2   force =     0.00000001   -0.00000001    0.00000000
     The core correction contribution to forces
     atom    1 type  1   force =     0.00000000    0.00000000    0.00000000
     atom    2 type  1   force =     0.00000000    0.00000000    0.00000000
     atom    3 type  2   force =    -0.00000000    0.00000000    0.00000000
     atom    4 type  2   force =     0.00000000   -0.00000000    0.00000000
     The Hubbard contrib.    to forces
     atom    1 type  1   force =     0.00000000    0.00000000    0.00000000
     atom    2 type  1   force =     0.00000000    0.00000000    0.00000000
     atom    3 type  2   force =     0.00000000    0.00000000    0.00000000
     atom    4 type  2   force =     0.00000000    0.00000000    0.00000000
     The SCF correction term to forces
     atom    1 type  1   force =     0.00000000   -0.00000000    0.00000000
     atom    2 type  1   force =     0.00000000   -0.00000000   -0.00000000
     atom    3 type  2   force =     0.00000000   -0.00000000    0.00000000
     atom    4 type  2   force =    -0.00000000    0.00000000   -0.00000000

     Total force =     0.000000     Total SCF correction =     0.000000


     Computing stress (Cartesian axis) and pressure

          total   stress  (Ry/bohr**3)                   (kbar)     P=      499.75
   0.00339746   0.00000000   0.00000000          499.78        0.00        0.00
   0.00000000   0.00339746   0.00000000            0.00      499.78        0.00
   0.00000000   0.00000000   0.00339678            0.00        0.00      499.68


     Writing all to output data dir ./output/LiSi.save/

     init_run     :      0.89s CPU      1.35s WALL (       2 calls)
     electrons    :      8.86s CPU     10.44s WALL (       5 calls)
     update_pot   :      0.82s CPU      0.90s WALL (       3 calls)
     forces       :      0.83s CPU      0.90s WALL (       5 calls)
     stress       :      2.65s CPU      2.82s WALL (       5 calls)

     Called by init_run:
     wfcinit      :      0.18s CPU      0.19s WALL (       2 calls)
     potinit      :      0.25s CPU      0.58s WALL (       2 calls)
     hinit0       :      0.42s CPU      0.49s WALL (       2 calls)

     Called by electrons:
     c_bands      :      7.40s CPU      8.26s WALL (      31 calls)
     sum_band     :      1.00s CPU      1.09s WALL (      31 calls)
     v_of_rho     :      0.50s CPU      1.37s WALL (      34 calls)
     mix_rho      :      0.03s CPU      0.11s WALL (      31 calls)

     Called by c_bands:
     init_us_2    :      0.23s CPU      0.26s WALL (    2220 calls)
     init_us_2:cp :      0.23s CPU      0.25s WALL (    2220 calls)
     cegterg      :      6.86s CPU      7.19s WALL (     930 calls)

     Called by *egterg:
     cdiaghg      :      0.56s CPU      0.59s WALL (    3834 calls)
     h_psi        :      5.76s CPU      6.03s WALL (    4044 calls)
     g_psi        :      0.03s CPU      0.03s WALL (    3054 calls)

     Called by h_psi:
     h_psi:calbec :      0.41s CPU      0.43s WALL (    4044 calls)
     vloc_psi     :      5.03s CPU      5.26s WALL (    4044 calls)
     add_vuspsi   :      0.30s CPU      0.31s WALL (    4044 calls)

     General routines
     calbec       :      0.52s CPU      0.55s WALL (    4794 calls)
     fft          :      0.85s CPU      1.98s WALL (     465 calls)
     ffts         :      0.01s CPU      0.04s WALL (      31 calls)
     fftw         :      5.24s CPU      5.46s WALL (   70822 calls)

     Parallel routines

     PWSCF        :     14.33s CPU     16.97s WALL


   This run was terminated on:  22:42: 7  11Feb2025            

=------------------------------------------------------------------------------=
   JOB DONE.
=------------------------------------------------------------------------------=
