
     Program PWSCF v.7.2 starts on 29Dec2024 at 11:31:22 

     This program is part of the open-source Quantum ESPRESSO suite
     for quantum simulation of materials; please cite
         "P. Giannozzi et al., J. Phys.:Condens. Matter 21 395502 (2009);
         "P. Giannozzi et al., J. Phys.:Condens. Matter 29 465901 (2017);
         "P. Giannozzi et al., J. Chem. Phys. 152 154105 (2020);
          URL http://www.quantum-espresso.org", 
     in publications or presentations arising from this work. More details at
     http://www.quantum-espresso.org/quote

     Parallel version (MPI & OpenMP), running on       8 processor cores
     Number of MPI processes:                 8
     Threads/MPI process:                     1

     MPI processes distributed on     1 nodes
     482541 MiB available memory on the printing compute node when the environment starts

     Waiting for input...
     Reading input from standard input

     Current dimensions of program PWSCF are:
     Max number of different atomic species (ntypx) = 10
     Max number of k-points (npk) =  40000
     Max angular momentum in pseudopotentials (lmaxx) =  4

     R & G space division:  proc/nbgrp/npool/nimage =       8
     Subspace diagonalization in iterative solution of the eigenvalue problem:
     a serial algorithm will be used


     Parallelization info
     --------------------
     sticks:   dense  smooth     PW     G-vecs:    dense   smooth      PW
     Min         158     158     47                 2240     2240     375
     Max         160     160     48                 2241     2241     378
     Sum        1273    1273    379                17925    17925    3017

     Using Slab Decomposition



     bravais-lattice index     =            4
     lattice parameter (alat)  =       7.5927  a.u.
     unit-cell volume          =     185.4847 (a.u.)^3
     number of atoms/cell      =            4
     number of atomic types    =            2
     number of electrons       =        15.00
     number of Kohn-Sham states=           12
     kinetic-energy cutoff     =      80.0000  Ry
     charge density cutoff     =     320.0000  Ry
     scf convergence threshold =      1.0E-08
     mixing beta               =       0.7000
     number of iterations used =            8  plain     mixing
     energy convergence thresh.=      1.0E-04
     force convergence thresh. =      1.0E-03
     press convergence thresh. =      1.0E+00
     Exchange-correlation= PBE
                           (   1   4   3   4   0   0   0)
     nstep                     =           50


     celldm(1)=   7.592688  celldm(2)=   0.000000  celldm(3)=   0.489317
     celldm(4)=   0.000000  celldm(5)=   0.000000  celldm(6)=   0.000000

     crystal axes: (cart. coord. in units of alat)
               a(1) = (   1.000000   0.000000   0.000000 )  
               a(2) = (  -0.500000   0.866025   0.000000 )  
               a(3) = (   0.000000   0.000000   0.489317 )  

     reciprocal axes: (cart. coord. in units 2 pi/alat)
               b(1) = (  1.000000  0.577350 -0.000000 )  
               b(2) = (  0.000000  1.154701  0.000000 )  
               b(3) = (  0.000000 -0.000000  2.043663 )  


     PseudoPot. # 1 for Li read from file:
     ../pseudo/Li_ONCV_PBE_sr.upf
     MD5 check sum: 50ff420e78310ffa21704f3361e624a4
     Pseudo is Norm-conserving, Zval =  3.0
     Generated using ONCVPSP code by D. R. Hamann
     Using radial grid of 1944 points,  4 beta functions with: 
                l(1) =   0
                l(2) =   0
                l(3) =   1
                l(4) =   1

     PseudoPot. # 2 for Si read from file:
     ../pseudo/Si_ONCV_PBE_sr.upf
     MD5 check sum: e543d271109d17c80368dfa7c482276d
     Pseudo is Norm-conserving + core correction, Zval =  4.0
     Generated using ONCVPSP code by D. R. Hamann
     Using radial grid of 1510 points,  6 beta functions with: 
                l(1) =   0
                l(2) =   0
                l(3) =   1
                l(4) =   1
                l(5) =   2
                l(6) =   2

     atomic species   valence    mass     pseudopotential
        Li             3.00     6.94100     Li( 1.00)
        Si             4.00    28.08550     Si( 1.00)

     24 Sym. Ops., with inversion, found



   Cartesian axes

     site n.     atom                  positions (alat units)
         1           Li  tau(   1) = (   0.0000000   0.0000000   0.2446587  )
         2           Si  tau(   2) = (  -0.2500000   0.4330127   0.0000000  )
         3           Si  tau(   3) = (   0.5000000   0.0000000   0.0000000  )
         4           Si  tau(   4) = (   0.2500000   0.4330127   0.0000000  )

     number of k points=    30  Marzari-Vanderbilt smearing, width (Ry)=  0.0200
                       cart. coord. in units 2pi/alat
        k(    1) = (   0.0000000   0.0000000   0.0000000), wk =   0.0072727
        k(    2) = (   0.0000000   0.0000000   0.1857875), wk =   0.0145455
        k(    3) = (   0.0000000   0.0000000   0.3715751), wk =   0.0145455
        k(    4) = (   0.0000000   0.0000000   0.5573626), wk =   0.0145455
        k(    5) = (   0.0000000   0.0000000   0.7431502), wk =   0.0145455
        k(    6) = (   0.0000000   0.0000000   0.9289377), wk =   0.0145455
        k(    7) = (   0.0000000   0.2309401   0.0000000), wk =   0.0436364
        k(    8) = (   0.0000000   0.2309401   0.1857875), wk =   0.0872727
        k(    9) = (   0.0000000   0.2309401   0.3715751), wk =   0.0872727
        k(   10) = (   0.0000000   0.2309401   0.5573626), wk =   0.0872727
        k(   11) = (   0.0000000   0.2309401   0.7431502), wk =   0.0872727
        k(   12) = (   0.0000000   0.2309401   0.9289377), wk =   0.0872727
        k(   13) = (   0.0000000   0.4618802   0.0000000), wk =   0.0436364
        k(   14) = (   0.0000000   0.4618802   0.1857875), wk =   0.0872727
        k(   15) = (   0.0000000   0.4618802   0.3715751), wk =   0.0872727
        k(   16) = (   0.0000000   0.4618802   0.5573626), wk =   0.0872727
        k(   17) = (   0.0000000   0.4618802   0.7431502), wk =   0.0872727
        k(   18) = (   0.0000000   0.4618802   0.9289377), wk =   0.0872727
        k(   19) = (   0.2000000   0.3464102   0.0000000), wk =   0.0436364
        k(   20) = (   0.2000000   0.3464102   0.1857875), wk =   0.0872727
        k(   21) = (   0.2000000   0.3464102   0.3715751), wk =   0.0872727
        k(   22) = (   0.2000000   0.3464102   0.5573626), wk =   0.0872727
        k(   23) = (   0.2000000   0.3464102   0.7431502), wk =   0.0872727
        k(   24) = (   0.2000000   0.3464102   0.9289377), wk =   0.0872727
        k(   25) = (   0.2000000   0.5773503   0.0000000), wk =   0.0436364
        k(   26) = (   0.2000000   0.5773503   0.1857875), wk =   0.0872727
        k(   27) = (   0.2000000   0.5773503   0.3715751), wk =   0.0872727
        k(   28) = (   0.2000000   0.5773503   0.5573626), wk =   0.0872727
        k(   29) = (   0.2000000   0.5773503   0.7431502), wk =   0.0872727
        k(   30) = (   0.2000000   0.5773503   0.9289377), wk =   0.0872727

     Dense  grid:    17925 G-vectors     FFT dimensions: (  45,  45,  24)

     Estimated max dynamical RAM per process >      15.00 MB

     Estimated total dynamical RAM >     120.03 MB

     Initial potential from superposition of free atoms

     starting charge      14.9936, renormalised to      15.0000
     Starting wfcs are   14 randomized atomic wfcs

     total cpu time spent up to now is        0.5 secs

     Self-consistent Calculation

     iteration #  1     ecut=    80.00 Ry     beta= 0.70
     Davidson diagonalization with overlap
     ethr =  1.00E-02,  avg # of iterations =  7.2

     Threshold (ethr) on eigenvalues was too large:
     Diagonalizing with lowered threshold

     Davidson diagonalization with overlap
     ethr =  2.43E-04,  avg # of iterations =  3.9

     total cpu time spent up to now is        1.2 secs

     total energy              =     -38.65697795 Ry
     estimated scf accuracy    <       0.03695326 Ry

     iteration #  2     ecut=    80.00 Ry     beta= 0.70
     Davidson diagonalization with overlap
     ethr =  2.46E-04,  avg # of iterations =  2.7

     total cpu time spent up to now is        1.4 secs

     total energy              =     -38.66040929 Ry
     estimated scf accuracy    <       0.00581353 Ry

     iteration #  3     ecut=    80.00 Ry     beta= 0.70
     Davidson diagonalization with overlap
     ethr =  3.88E-05,  avg # of iterations =  2.9

     total cpu time spent up to now is        1.6 secs

     total energy              =     -38.66159523 Ry
     estimated scf accuracy    <       0.00079001 Ry

     iteration #  4     ecut=    80.00 Ry     beta= 0.70
     Davidson diagonalization with overlap
     ethr =  5.27E-06,  avg # of iterations =  3.5

     total cpu time spent up to now is        1.9 secs

     total energy              =     -38.66168837 Ry
     estimated scf accuracy    <       0.00000364 Ry

     iteration #  5     ecut=    80.00 Ry     beta= 0.70
     Davidson diagonalization with overlap
     ethr =  2.43E-08,  avg # of iterations =  3.6

     total cpu time spent up to now is        2.1 secs

     total energy              =     -38.66169094 Ry
     estimated scf accuracy    <       0.00000041 Ry

     iteration #  6     ecut=    80.00 Ry     beta= 0.70
     Davidson diagonalization with overlap
     ethr =  2.73E-09,  avg # of iterations =  2.0

     total cpu time spent up to now is        2.4 secs

     End of self-consistent calculation

          k = 0.0000 0.0000 0.0000 (  2255 PWs)   bands (ev):

   -27.3387  -0.1169   7.8655  10.7718  10.7718  11.3048  11.3048  18.5983
    27.8574  29.9120  29.9120  33.1796

          k = 0.0000 0.0000 0.1858 (  2243 PWs)   bands (ev):

   -27.3042   0.1762   8.1367  11.0551  11.0551  11.5932  11.5932  18.6943
    25.6441  29.7560  29.7560  33.3732

          k = 0.0000 0.0000 0.3716 (  2225 PWs)   bands (ev):

   -27.2111   1.0505   8.9515  11.9058  11.9058  12.4425  12.4425  18.7959
    21.9356  29.0554  29.0554  30.5966

          k = 0.0000 0.0000 0.5574 (  2237 PWs)   bands (ev):

   -27.0876   2.4917  10.3119  13.3262  13.3262  13.7968  13.7968  16.9485
    20.1980  25.8196  27.4387  27.4391

          k = 0.0000 0.0000 0.7432 (  2248 PWs)   bands (ev):

   -26.9725   4.4768  12.2145  13.3722  15.3203  15.3203  15.5158  15.5158
    20.4073  21.6043  24.7903  24.7904

          k = 0.0000 0.0000 0.9289 (  2254 PWs)   bands (ev):

   -26.9034   6.9660   9.9944  14.5794  17.1236  17.1236  17.8920  17.8920
    18.0769  20.6256  21.0511  21.0511

          k = 0.0000 0.2309 0.0000 (  2237 PWs)   bands (ev):

   -27.3374   0.2218   6.1463   9.2328   9.9797  13.6667  14.2725  19.3271
    26.1850  26.5024  29.0117  33.6011

          k = 0.0000 0.2309 0.1858 (  2236 PWs)   bands (ev):

   -27.3030   0.5162   6.4297   9.5232  10.2446  13.9450  14.5322  19.4968
    25.2171  26.3011  28.2701  33.8178

          k = 0.0000 0.2309 0.3716 (  2245 PWs)   bands (ev):

   -27.2101   1.3942   7.2767  10.3884  11.0349  14.7700  15.2884  19.8500
    21.9338  26.4734  27.0907  30.8404

          k = 0.0000 0.2309 0.5574 (  2239 PWs)   bands (ev):

   -27.0869   2.8410   8.6775  11.8074  12.3278  16.1035  16.3897  17.6670
    20.9737  24.1558  25.8625  27.5887

          k = 0.0000 0.2309 0.7432 (  2235 PWs)   bands (ev):

   -26.9722   4.8319  10.6104  13.4686  13.7254  14.5116  17.4917  17.8192
    20.9631  21.4530  23.4474  24.3337

          k = 0.0000 0.2309 0.9289 (  2239 PWs)   bands (ev):

   -26.9033   7.3179  10.3696  13.0401  15.6893  15.8804  16.5347  18.9983
    19.4628  21.3205  21.6154  22.9056

          k = 0.0000 0.4619 0.0000 (  2236 PWs)   bands (ev):

   -27.3353   1.1122   3.8909   8.3329   9.9683  16.8818  17.0866  21.3992
    21.7490  24.3236  28.9874  29.8248

          k = 0.0000 0.4619 0.1858 (  2244 PWs)   bands (ev):

   -27.3010   1.4108   4.1768   8.6258  10.2061  17.1507  17.3352  21.5805
    21.9512  24.1111  27.5643  29.7580

          k = 0.0000 0.4619 0.3716 (  2249 PWs)   bands (ev):

   -27.2085   2.3013   5.0300   9.4983  10.9148  17.9475  18.0299  21.5711
    22.4837  22.8603  25.2354  29.4467

          k = 0.0000 0.4619 0.5574 (  2240 PWs)   bands (ev):

   -27.0859   3.7679   6.4369  10.9287  12.0724  18.5643  18.7644  19.2173
    21.6107  22.9711  24.5787  26.5909

          k = 0.0000 0.4619 0.7432 (  2241 PWs)   bands (ev):

   -26.9716   5.7810   8.3715  12.8632  13.5194  15.0956  16.8594  20.4196
    21.7421  22.5238  22.9924  26.2972

          k = 0.0000 0.4619 0.9289 (  2238 PWs)   bands (ev):

   -26.9030   8.2533  10.7256  11.5732  13.7117  15.0593  15.5377  18.8307
    19.9274  23.8402  24.1429  26.0062

          k = 0.2000 0.3464 0.0000 (  2247 PWs)   bands (ev):

   -27.3357   0.8744   4.4000   7.8807  11.1220  14.2606  17.8723  20.3595
    23.0888  26.3860  26.8378  31.3912

          k = 0.2000 0.3464 0.1858 (  2244 PWs)   bands (ev):

   -27.3014   1.1710   4.6916   8.1443  11.4022  14.5055  18.1199  20.6176
    23.1083  25.7626  26.3531  31.6772

          k = 0.2000 0.3464 0.3716 (  2236 PWs)   bands (ev):

   -27.2088   2.0556   5.5622   8.9274  12.2415  15.2204  18.8142  21.2556
    22.0667  23.9960  25.5875  30.5088

          k = 0.2000 0.3464 0.5574 (  2239 PWs)   bands (ev):

   -27.0861   3.5126   6.9984  10.2044  13.6307  16.2943  18.3763  19.5315
    22.5128  23.2255  23.3283  28.4233

          k = 0.2000 0.3464 0.7432 (  2233 PWs)   bands (ev):

   -26.9717   5.5145   8.9738  11.8864  14.6828  15.4638  17.3437  17.9895
    21.6030  23.0024  23.7491  25.0986

          k = 0.2000 0.3464 0.9289 (  2247 PWs)   bands (ev):

   -26.9030   7.9908  11.1064  11.4002  14.2078  14.5226  16.4511  18.3562
    21.4232  21.7579  23.3586  24.9295

          k = 0.2000 0.5774 0.0000 (  2269 PWs)   bands (ev):

   -27.3346   1.7405   3.0089   7.3703  11.7567  14.9116  19.5416  21.0182
    23.2600  24.7179  26.8675  27.6638

          k = 0.2000 0.5774 0.1858 (  2252 PWs)   bands (ev):

   -27.3004   2.0405   3.3019   7.6262  12.0260  15.1885  19.6789  21.2679
    23.2341  24.9766  26.2053  27.7403

          k = 0.2000 0.5774 0.3716 (  2246 PWs)   bands (ev):

   -27.2080   2.9355   4.1760   8.3867  12.8309  16.0110  19.9415  21.8327
    22.6514  23.7705  25.9506  27.5847

          k = 0.2000 0.5774 0.5574 (  2232 PWs)   bands (ev):

   -27.0855   4.4099   5.6162   9.6294  14.1511  17.2693  19.3537  19.6828
    20.8428  23.7143  26.2949  27.3482

          k = 0.2000 0.5774 0.7432 (  2236 PWs)   bands (ev):

   -26.9714   6.4327   7.5938  11.3034  15.6349  15.8069  16.5142  19.1670
    19.5668  24.8158  25.4731  26.3556

          k = 0.2000 0.5774 0.9289 (  2228 PWs)   bands (ev):

   -26.9029   8.8930  10.0268  12.3286  12.8001  13.7770  15.9075  19.1088
    21.9191  21.9932  25.3614  25.9883

     the Fermi energy is    19.5890 ev

!    total energy              =     -38.66169104 Ry
     estimated scf accuracy    <          7.4E-10 Ry
     smearing contrib. (-TS)   =      -0.00052335 Ry
     internal energy E=F+TS    =     -38.66116770 Ry

     The total energy is F=E-TS. E is the sum of the following terms:
     one-electron contribution =      18.67806905 Ry
     hartree contribution      =       2.61919606 Ry
     xc contribution           =     -14.73415453 Ry
     ewald contribution        =     -45.22427827 Ry

     convergence has been achieved in   6 iterations

     Forces acting on atoms (cartesian axes, Ry/au):

     atom    1 type  1   force =     0.00000000    0.00000000    0.00000000
     atom    2 type  2   force =    -0.00000000   -0.00000000    0.00000000
     atom    3 type  2   force =     0.00000000    0.00000000    0.00000000
     atom    4 type  2   force =     0.00000000    0.00000000    0.00000000
     The non-local contrib.  to forces
     atom    1 type  1   force =     0.00000000    0.00000000    0.00000000
     atom    2 type  2   force =     0.00000000    0.00000000   -0.00000000
     atom    3 type  2   force =    -0.00000000   -0.00000000    0.00000000
     atom    4 type  2   force =     0.00000000    0.00000000   -0.00000000
     The ionic contribution  to forces
     atom    1 type  1   force =    -0.00000000   -0.00000000    0.00000000
     atom    2 type  2   force =    -0.00000000    0.00000000   -0.00000000
     atom    3 type  2   force =     0.00000000    0.00000000   -0.00000000
     atom    4 type  2   force =     0.00000000    0.00000000   -0.00000000
     The local contribution  to forces
     atom    1 type  1   force =     0.00000000   -0.00000000    0.00000000
     atom    2 type  2   force =     0.00000000    0.00000000    0.00000000
     atom    3 type  2   force =    -0.00000000    0.00000000   -0.00000000
     atom    4 type  2   force =     0.00000000    0.00000000    0.00000000
     The core correction contribution to forces
     atom    1 type  1   force =     0.00000000    0.00000000    0.00000000
     atom    2 type  2   force =     0.00000000   -0.00000000   -0.00000000
     atom    3 type  2   force =    -0.00000000    0.00000000   -0.00000000
     atom    4 type  2   force =    -0.00000000   -0.00000000   -0.00000000
     The Hubbard contrib.    to forces
     atom    1 type  1   force =     0.00000000    0.00000000    0.00000000
     atom    2 type  2   force =     0.00000000    0.00000000    0.00000000
     atom    3 type  2   force =     0.00000000    0.00000000    0.00000000
     atom    4 type  2   force =     0.00000000    0.00000000    0.00000000
     The SCF correction term to forces
     atom    1 type  1   force =     0.00000000   -0.00000000    0.00000000
     atom    2 type  2   force =     0.00000000    0.00000000    0.00000000
     atom    3 type  2   force =     0.00000000    0.00000000    0.00000000
     atom    4 type  2   force =    -0.00000000    0.00000000    0.00000000

     Total force =     0.000000     Total SCF correction =     0.000000


     Computing stress (Cartesian axis) and pressure

          total   stress  (Ry/bohr**3)                   (kbar)     P=     2950.18
   0.01844926  -0.00000000  -0.00000000         2713.98       -0.00       -0.00
  -0.00000000   0.01844926   0.00000000           -0.00     2713.98        0.00
  -0.00000000   0.00000000   0.02326614           -0.00        0.00     3422.57


     BFGS Geometry Optimization
     Energy error            =      0.0E+00 Ry
     Gradient error          =      1.4E-32 Ry/Bohr
     Cell gradient error     =      2.9E+03 kbar

     number of scf cycles    =   1
     number of bfgs steps    =   0

     enthalpy           new  =     -38.0312413835 Ry

     new trust radius        =       0.5000000000 bohr
ibrav =      4
 celldm(1) =      8.64851002
 celldm(3) =      0.50843625
Input lattice vectors:
     1.13905768    -0.00000000    -0.00000000
    -0.56952884     0.98645289     0.00000000
    -0.00000000     0.00000000     0.57913821
New lattice vectors in INITIAL alat:
     1.13905768     0.00000000     0.00000000
    -0.56952884     0.98645289     0.00000000
     0.00000000     0.00000000     0.57913821
New lattice vectors in NEW alat (for information only):
     1.00000000     0.00000000     0.00000000
    -0.50000000     0.86602540     0.00000000
     0.00000000     0.00000000     0.50843625
Discrepancy in bohr =     0.000000    0.000000    0.000000
     new conv_thr            =       0.0000000100 Ry

     new unit-cell volume =    284.83347 a.u.^3 (    42.20797 Ang^3 )
     density =      3.58788 g/cm^3

CELL_PARAMETERS (alat=  7.59268839)
   1.139057679   0.000000000   0.000000000
  -0.569528839   0.986452886   0.000000000
   0.000000000   0.000000000   0.579138212

ATOMIC_POSITIONS (crystal)
Li            0.0000000000        0.0000000000        0.5000000000
Si            0.0000000000        0.5000000000        0.0000000000
Si            0.5000000000        0.0000000000        0.0000000000
Si            0.5000000000        0.5000000000        0.0000000000



     Writing config-only to output data dir ./output/LiSi.save/
     NEW-OLD atomic charge density approx. for the potential
     extrapolated charge   20.22971, renormalised to   15.00000

     total cpu time spent up to now is        3.1 secs

     Self-consistent Calculation

     iteration #  1     ecut=    80.00 Ry     beta= 0.70
     Davidson diagonalization with overlap
     c_bands:  1 eigenvalues not converged
     c_bands:  1 eigenvalues not converged
     ethr =  1.00E-06,  avg # of iterations = 13.9

     total cpu time spent up to now is        3.9 secs

     total energy              =     -39.57032636 Ry
     estimated scf accuracy    <       0.01770231 Ry

     iteration #  2     ecut=    80.00 Ry     beta= 0.70
     Davidson diagonalization with overlap
     ethr =  1.18E-04,  avg # of iterations =  3.2

     total cpu time spent up to now is        4.2 secs

     total energy              =     -39.64214709 Ry
     estimated scf accuracy    <       0.01651091 Ry

     iteration #  3     ecut=    80.00 Ry     beta= 0.70
     Davidson diagonalization with overlap
     ethr =  1.10E-04,  avg # of iterations =  1.0

     total cpu time spent up to now is        4.4 secs

     total energy              =     -39.63875342 Ry
     estimated scf accuracy    <       0.00556982 Ry

     iteration #  4     ecut=    80.00 Ry     beta= 0.70
     Davidson diagonalization with overlap
     ethr =  3.71E-05,  avg # of iterations =  2.0

     total cpu time spent up to now is        4.6 secs

     total energy              =     -39.63932043 Ry
     estimated scf accuracy    <       0.00005927 Ry

     iteration #  5     ecut=    80.00 Ry     beta= 0.70
     Davidson diagonalization with overlap
     ethr =  3.95E-07,  avg # of iterations =  3.6

     total cpu time spent up to now is        4.9 secs

     total energy              =     -39.63933026 Ry
     estimated scf accuracy    <       0.00001276 Ry

     iteration #  6     ecut=    80.00 Ry     beta= 0.70
     Davidson diagonalization with overlap
     ethr =  8.51E-08,  avg # of iterations =  2.0

     total cpu time spent up to now is        5.1 secs

     total energy              =     -39.63933122 Ry
     estimated scf accuracy    <       0.00000053 Ry

     iteration #  7     ecut=    80.00 Ry     beta= 0.70
     Davidson diagonalization with overlap
     ethr =  3.51E-09,  avg # of iterations =  3.2

     total cpu time spent up to now is        5.4 secs

     End of self-consistent calculation

          k = 0.0000 0.0000 0.0000 (  2255 PWs)   bands (ev):

   -33.9933  -3.2020   3.7600   5.2725   5.2725   6.1560   6.1560  12.2871
    19.7828  21.7817  21.7817  22.0191

          k = 0.0000 0.0000 0.1570 (  2243 PWs)   bands (ev):

   -33.9844  -2.9883   3.9560   5.4861   5.4861   6.3632   6.3632  12.3677
    16.9209  21.3879  21.3879  22.1955

          k = 0.0000 0.0000 0.3139 (  2225 PWs)   bands (ev):

   -33.9621  -2.3498   4.5392   6.1218   6.1218   6.9833   6.9833  12.3861
    13.7190  19.9726  19.9726  21.2495

          k = 0.0000 0.0000 0.4709 (  2237 PWs)   bands (ev):

   -33.9333  -1.2950   5.4893   7.1625   7.1625   8.0088   8.0088   9.9919
    13.2585  17.7224  17.7224  17.8297

          k = 0.0000 0.0000 0.6279 (  2248 PWs)   bands (ev):

   -33.9068   0.1552   6.7345   7.0961   8.5673   8.5673   9.4107   9.4107
    13.6198  14.9138  15.2689  15.2689

          k = 0.0000 0.0000 0.7849 (  2254 PWs)   bands (ev):

   -33.8913   1.8955   4.6125   7.9482  10.1576  10.1576  10.9970  10.9970
    12.8602  13.1031  13.1031  13.8764

          k = 0.0000 0.2027 0.0000 (  2237 PWs)   bands (ev):

   -33.9926  -2.9091   1.9750   4.2441   5.3118   7.8582   8.1522  13.1197
    17.8347  18.2365  20.8293  22.8192

          k = 0.0000 0.2027 0.1570 (  2236 PWs)   bands (ev):

   -33.9843  -2.6949   2.1834   4.4579   5.5070   8.0628   8.3422  13.2424
    16.7523  17.9279  19.5307  22.3892

          k = 0.0000 0.2027 0.3139 (  2245 PWs)   bands (ev):

   -33.9625  -2.0548   2.8054   5.0965   6.0871   8.6717   8.8974  13.2670
    13.9407  17.9853  18.2742  20.8780

          k = 0.0000 0.2027 0.4709 (  2239 PWs)   bands (ev):

   -33.9332  -0.9973   3.8290   6.1495   7.0266   9.6629   9.7195  10.3684
    14.2167  15.6613  16.8735  19.0632

          k = 0.0000 0.2027 0.6279 (  2235 PWs)   bands (ev):

   -33.9064   0.4575   5.2212   7.3437   7.5952   8.3309  10.4681  10.9292
    13.4653  14.6109  14.6715  16.3825

          k = 0.0000 0.2027 0.7849 (  2239 PWs)   bands (ev):

   -33.8908   2.2110   4.8849   6.8350   9.1582   9.3703   9.8520  11.2409
    13.4638  13.5768  14.0129  15.4121

          k = 0.0000 0.4055 0.0000 (  2236 PWs)   bands (ev):

   -33.9922  -2.1299   0.0465   3.5544   5.2008  10.5181  10.9211  14.0499
    14.2850  16.5903  20.7414  21.1686

          k = 0.0000 0.4055 0.1570 (  2244 PWs)   bands (ev):

   -33.9842  -1.9139   0.2568   3.7692   5.3815  10.7144  11.0854  14.2131
    14.3550  16.4533  18.6228  20.9897

          k = 0.0000 0.4055 0.3139 (  2249 PWs)   bands (ev):

   -33.9623  -1.2680   0.8849   4.4111   5.9169  11.2931  11.5123  13.7638
    14.6465  15.2911  17.0029  19.0589

          k = 0.0000 0.4055 0.4709 (  2240 PWs)   bands (ev):

   -33.9330  -0.2003   1.9213   5.4715   6.7789  11.0224  11.6715  12.1934
    14.1569  14.9639  16.9179  18.1518

          k = 0.0000 0.4055 0.6279 (  2241 PWs)   bands (ev):

   -33.9065   1.2715   3.3422   6.9335   7.8046   8.2643   9.8794  12.7037
    14.4187  14.5018  15.8498  18.1896

          k = 0.0000 0.4055 0.7849 (  2238 PWs)   bands (ev):

   -33.8906   3.0699   5.0283   5.6475   7.6416   8.7602   8.9286  10.8950
    14.0608  15.4308  15.7295  17.7527

          k = 0.1756 0.3041 0.0000 (  2247 PWs)   bands (ev):

   -33.9927  -2.3475   0.5269   3.1206   6.3667   8.2327  11.1794  13.6726
    15.4810  18.3145  18.4129  22.7643

          k = 0.1756 0.3041 0.1570 (  2244 PWs)   bands (ev):

   -33.9843  -2.1323   0.7398   3.3222   6.5684   8.4134  11.3561  13.8298
    15.5400  17.2121  18.2508  21.1814

          k = 0.1756 0.3041 0.3139 (  2236 PWs)   bands (ev):

   -33.9619  -1.4893   1.3759   3.9227   7.1685   8.9418  11.8394  13.6601
    14.7450  16.0008  17.1120  20.3429

          k = 0.1756 0.3041 0.4709 (  2239 PWs)   bands (ev):

   -33.9330  -0.4265   2.4261   4.9064   8.1402   9.7497  10.8491  12.1953
    14.9108  14.9579  15.9910  18.6562

          k = 0.1756 0.3041 0.6279 (  2233 PWs)   bands (ev):

   -33.9062   1.0373   3.8690   6.2212   7.9778   9.2529  10.5304  10.8515
    13.7411  15.0226  16.3990  17.1935

          k = 0.1756 0.3041 0.7849 (  2247 PWs)   bands (ev):

   -33.8909   2.8158   5.4101   5.6119   7.8132   8.0599  10.0070  11.2055
    13.4467  14.9114  15.9270  16.4081

          k = 0.1756 0.5069 0.0000 (  2269 PWs)   bands (ev):

   -33.9931  -1.5972  -0.6243   2.6591   6.7720   9.4220  11.7315  14.1715
    15.1724  17.6366  18.5875  19.6165

          k = 0.1756 0.5069 0.1570 (  2252 PWs)   bands (ev):

   -33.9845  -1.3803  -0.4108   2.8569   6.9663   9.6170  11.8632  14.3246
    15.1547  17.7118  17.9103  19.6267

          k = 0.1756 0.5069 0.3139 (  2246 PWs)   bands (ev):

   -33.9621  -0.7318   0.2272   3.4459   7.5425  10.1849  12.1730  14.3055
    14.5777  15.7183  18.4706  18.5773

          k = 0.1756 0.5069 0.4709 (  2232 PWs)   bands (ev):

   -33.9328   0.3408   1.2810   4.4105   8.4664  10.8086  11.8633  12.0945
    12.9880  16.1095  17.3646  18.4906

          k = 0.1756 0.5069 0.6279 (  2236 PWs)   bands (ev):

   -33.9065   1.8215   2.7303   5.7081   8.6589   9.2581   9.8560  11.9809
    12.6709  16.5721  17.2716  17.5615

          k = 0.1756 0.5069 0.7849 (  2228 PWs)   bands (ev):

   -33.8903   3.6461   4.4857   6.1428   6.9287   7.2791   9.6735  11.6111
    13.9853  15.3560  17.5236  18.1824

     the Fermi energy is    12.3484 ev

!    total energy              =     -39.63933138 Ry
     estimated scf accuracy    <          2.1E-09 Ry
     smearing contrib. (-TS)   =       0.00084071 Ry
     internal energy E=F+TS    =     -39.64017209 Ry

     The total energy is F=E-TS. E is the sum of the following terms:
     one-electron contribution =      10.08030349 Ry
     hartree contribution      =       2.96804203 Ry
     xc contribution           =     -13.49531505 Ry
     ewald contribution        =     -39.19320256 Ry

     convergence has been achieved in   7 iterations

     Forces acting on atoms (cartesian axes, Ry/au):

     atom    1 type  1   force =     0.00000000    0.00000000    0.00000000
     atom    2 type  2   force =     0.00000000    0.00000000   -0.00000000
     atom    3 type  2   force =    -0.00000000    0.00000000   -0.00000000
     atom    4 type  2   force =    -0.00000000   -0.00000000   -0.00000000
     The non-local contrib.  to forces
     atom    1 type  1   force =    -0.00000000   -0.00000000    0.00000000
     atom    2 type  2   force =    -0.00000000   -0.00000000   -0.00000000
     atom    3 type  2   force =     0.00000000    0.00000000    0.00000000
     atom    4 type  2   force =     0.00000000   -0.00000000    0.00000000
     The ionic contribution  to forces
     atom    1 type  1   force =    -0.00000000   -0.00000000   -0.00000000
     atom    2 type  2   force =    -0.00000000    0.00000000    0.00000000
     atom    3 type  2   force =     0.00000000   -0.00000000    0.00000000
     atom    4 type  2   force =    -0.00000000    0.00000000    0.00000000
     The local contribution  to forces
     atom    1 type  1   force =    -0.00000000   -0.00000000   -0.00000000
     atom    2 type  2   force =    -0.00000000    0.00000000    0.00000000
     atom    3 type  2   force =     0.00000000    0.00000000   -0.00000000
     atom    4 type  2   force =     0.00000000   -0.00000000    0.00000000
     The core correction contribution to forces
     atom    1 type  1   force =     0.00000000    0.00000000    0.00000000
     atom    2 type  2   force =     0.00000000   -0.00000000    0.00000000
     atom    3 type  2   force =    -0.00000000    0.00000000   -0.00000000
     atom    4 type  2   force =     0.00000000   -0.00000000    0.00000000
     The Hubbard contrib.    to forces
     atom    1 type  1   force =     0.00000000    0.00000000    0.00000000
     atom    2 type  2   force =     0.00000000    0.00000000    0.00000000
     atom    3 type  2   force =     0.00000000    0.00000000    0.00000000
     atom    4 type  2   force =     0.00000000    0.00000000    0.00000000
     The SCF correction term to forces
     atom    1 type  1   force =     0.00000000    0.00000000    0.00000000
     atom    2 type  2   force =     0.00000000   -0.00000000   -0.00000000
     atom    3 type  2   force =    -0.00000000   -0.00000000    0.00000000
     atom    4 type  2   force =    -0.00000000   -0.00000000   -0.00000000

     Total force =     0.000000     Total SCF correction =     0.000000


     Computing stress (Cartesian axis) and pressure

          total   stress  (Ry/bohr**3)                   (kbar)     P=      540.00
   0.00388829   0.00000000   0.00000000          571.99        0.00        0.00
   0.00000000   0.00388829   0.00000000            0.00      571.99        0.00
  -0.00000000   0.00000000   0.00323601           -0.00        0.00      476.03

     Energy error            =      6.4E-01 Ry
     Gradient error          =      7.1E-32 Ry/Bohr
     Cell gradient error     =      7.2E+01 kbar

     number of scf cycles    =   2
     number of bfgs steps    =   1

     enthalpy           old  =     -38.0312413835 Ry
     enthalpy           new  =     -38.6712021064 Ry

     CASE: enthalpy          _new < enthalpy          _old

     new trust radius        =       0.0374213720 bohr
ibrav =      4
 celldm(1) =      8.74439167
 celldm(3) =      0.49823195
Input lattice vectors:
     1.15168583     0.00000000    -0.00000000
    -0.57584292     0.99738919     0.00000000
     0.00000000    -0.00000000     0.57380668
New lattice vectors in INITIAL alat:
     1.15168583     0.00000000     0.00000000
    -0.57584292     0.99738919     0.00000000
     0.00000000     0.00000000     0.57380668
New lattice vectors in NEW alat (for information only):
     1.00000000     0.00000000     0.00000000
    -0.50000000     0.86602540     0.00000000
     0.00000000     0.00000000     0.49823195
Discrepancy in bohr =     0.000000    0.000000    0.000000
     new conv_thr            =            1.0E-10 Ry

     new unit-cell volume =    288.50345 a.u.^3 (    42.75180 Ang^3 )
     density =      3.54224 g/cm^3

CELL_PARAMETERS (alat=  7.59268839)
   1.151685834   0.000000000   0.000000000
  -0.575842917   0.997389190   0.000000000
   0.000000000   0.000000000   0.573806681

ATOMIC_POSITIONS (crystal)
Li            0.0000000000        0.0000000000        0.5000000000
Si            0.0000000000        0.5000000000       -0.0000000000
Si            0.5000000000        0.0000000000       -0.0000000000
Si            0.5000000000        0.5000000000       -0.0000000000



     Writing config-only to output data dir ./output/LiSi.save/
     NEW-OLD atomic charge density approx. for the potential
     extrapolated charge   15.19073, renormalised to   15.00000

     total cpu time spent up to now is        6.1 secs

     Self-consistent Calculation

     iteration #  1     ecut=    80.00 Ry     beta= 0.70
     Davidson diagonalization with overlap
     c_bands:  1 eigenvalues not converged
     ethr =  1.00E-06,  avg # of iterations =  6.9

     total cpu time spent up to now is        6.6 secs

     total energy              =     -39.65315971 Ry
     estimated scf accuracy    <       0.00030751 Ry

     iteration #  2     ecut=    80.00 Ry     beta= 0.70
     Davidson diagonalization with overlap
     ethr =  2.05E-06,  avg # of iterations =  2.0

     total cpu time spent up to now is        6.8 secs

     total energy              =     -39.65329104 Ry
     estimated scf accuracy    <       0.00001833 Ry

     iteration #  3     ecut=    80.00 Ry     beta= 0.70
     Davidson diagonalization with overlap
     ethr =  1.22E-07,  avg # of iterations =  2.0

     total cpu time spent up to now is        7.1 secs

     total energy              =     -39.65329175 Ry
     estimated scf accuracy    <       0.00000121 Ry

     iteration #  4     ecut=    80.00 Ry     beta= 0.70
     Davidson diagonalization with overlap
     ethr =  8.05E-09,  avg # of iterations =  2.7

     total cpu time spent up to now is        7.3 secs

     total energy              =     -39.65329205 Ry
     estimated scf accuracy    <       0.00000001 Ry

     iteration #  5     ecut=    80.00 Ry     beta= 0.70
     Davidson diagonalization with overlap
     ethr =  7.65E-11,  avg # of iterations =  4.0

     total cpu time spent up to now is        7.6 secs

     total energy              =     -39.65329207 Ry
     estimated scf accuracy    <          1.5E-09 Ry

     iteration #  6     ecut=    80.00 Ry     beta= 0.70
     Davidson diagonalization with overlap
     ethr =  1.02E-11,  avg # of iterations =  2.0

     total cpu time spent up to now is        7.8 secs

     End of self-consistent calculation

          k = 0.0000 0.0000 0.0000 (  2255 PWs)   bands (ev):

   -34.1956  -3.2791   3.6218   4.9243   4.9243   5.9681   5.9681  12.0823
    19.7848  21.3329  21.3820  21.3820

          k = 0.0000 0.0000 0.1584 (  2243 PWs)   bands (ev):

   -34.1862  -3.0606   3.8232   5.1417   5.1417   6.1799   6.1799  12.1729
    17.1032  21.0597  21.0597  21.5138

          k = 0.0000 0.0000 0.3169 (  2225 PWs)   bands (ev):

   -34.1621  -2.4076   4.4230   5.7884   5.7884   6.8138   6.8138  12.2784
    13.8337  19.7861  19.7861  21.4008

          k = 0.0000 0.0000 0.4753 (  2237 PWs)   bands (ev):

   -34.1314  -1.3283   5.4028   6.8460   6.8460   7.8632   7.8632  10.1166
    13.1357  17.5905  17.5905  17.8959

          k = 0.0000 0.0000 0.6337 (  2248 PWs)   bands (ev):

   -34.1031   0.1589   6.6961   7.1784   8.2695   8.2695   9.3015   9.3015
    13.5267  14.8959  15.1297  15.1297

          k = 0.0000 0.0000 0.7922 (  2254 PWs)   bands (ev):

   -34.0863   1.9686   4.6173   7.9826   9.8609   9.8609  10.9484  10.9484
    12.7516  12.9611  12.9611  13.8114

          k = 0.0000 0.2005 0.0000 (  2237 PWs)   bands (ev):

   -34.1948  -2.9925   1.8011   3.9812   5.1337   7.5731   7.8413  12.8801
    17.3432  17.9052  20.6229  22.1651

          k = 0.0000 0.2005 0.1584 (  2236 PWs)   bands (ev):

   -34.1860  -2.7736   2.0145   4.1992   5.3341   7.7820   8.0364  13.0108
    16.7842  17.4558  19.2527  22.2946

          k = 0.0000 0.2005 0.3169 (  2245 PWs)   bands (ev):

   -34.1627  -2.1192   2.6513   4.8497   5.9305   8.4041   8.6079  13.1985
    13.9505  17.6104  18.1762  20.6169

          k = 0.0000 0.2005 0.4753 (  2239 PWs)   bands (ev):

   -34.1313  -1.0375   3.7005   5.9217   6.8991   9.4181   9.4739  10.4767
    14.0479  15.6598  16.7311  19.0683

          k = 0.0000 0.2005 0.6337 (  2235 PWs)   bands (ev):

   -34.1025   0.4538   5.1324   7.3906   7.4131   8.2492  10.2951  10.7219
    13.3814  14.5171  14.5456  16.3221

          k = 0.0000 0.2005 0.7922 (  2239 PWs)   bands (ev):

   -34.0856   2.2751   4.8859   6.8242   9.0364   9.1764   9.8242  11.1251
    13.3165  13.4354  13.8943  15.2327

          k = 0.0000 0.4010 0.0000 (  2236 PWs)   bands (ev):

   -34.1945  -2.2307  -0.0950   3.3155   5.0447  10.1820  10.6048  13.6060
    13.8969  16.2201  20.4085  20.9058

          k = 0.0000 0.4010 0.1584 (  2244 PWs)   bands (ev):

   -34.1860  -2.0100   0.1201   3.5344   5.2314  10.3830  10.7766  13.7777
    13.9948  16.1591  18.6697  20.6076

          k = 0.0000 0.4010 0.3169 (  2249 PWs)   bands (ev):

   -34.1625  -1.3504   0.7627   4.1884   5.7852  10.9761  11.2353  13.6858
    14.2448  15.1729  16.8443  18.9169

          k = 0.0000 0.4010 0.4753 (  2240 PWs)   bands (ev):

   -34.1311  -0.2595   1.8237   5.2680   6.6798  11.1030  11.5349  11.9035
    14.0487  14.6822  16.6526  17.9507

          k = 0.0000 0.4010 0.6337 (  2241 PWs)   bands (ev):

   -34.1026   1.2468   3.2818   6.7545   7.7754   8.3040   9.8621  12.5232
    14.2552  14.3094  15.7833  17.5915

          k = 0.0000 0.4010 0.7922 (  2238 PWs)   bands (ev):

   -34.0855   3.1077   5.0372   5.6402   7.5709   8.6000   8.9465  10.7973
    13.9350  15.2662  15.5872  17.4941

          k = 0.1737 0.3008 0.0000 (  2247 PWs)   bands (ev):

   -34.1951  -2.4432   0.3737   2.9175   6.1674   7.9414  10.8155  13.2944
    15.1315  17.8614  18.0488  22.2754

          k = 0.1737 0.3008 0.1584 (  2244 PWs)   bands (ev):

   -34.1861  -2.2234   0.5913   3.1245   6.3739   8.1272  10.9990  13.4624
    15.2198  17.1233  17.8618  20.9542

          k = 0.1737 0.3008 0.3169 (  2236 PWs)   bands (ev):

   -34.1621  -1.5663   1.2413   3.7411   6.9890   8.6714  11.5091  13.5794
    14.5610  15.7377  17.0456  20.0463

          k = 0.1737 0.3008 0.4753 (  2239 PWs)   bands (ev):

   -34.1311  -0.4799   2.3151   4.7524   7.9875   9.5086  10.9508  11.9845
    14.6620  14.8866  15.8087  18.4733

          k = 0.1737 0.3008 0.6337 (  2233 PWs)   bands (ev):

   -34.1023   1.0191   3.7933   6.1123   8.0361   9.1567  10.3444  10.8014
    13.6448  14.7701  16.1833  17.1453

          k = 0.1737 0.3008 0.7922 (  2247 PWs)   bands (ev):

   -34.0858   2.8625   5.4037   5.6020   7.7772   7.9848   9.8439  11.1553
    13.3309  14.7801  15.7051  16.1944

          k = 0.1737 0.5013 0.0000 (  2269 PWs)   bands (ev):

   -34.1956  -1.7097  -0.7549   2.4725   6.5627   9.1668  11.2904  13.8137
    14.7093  17.2489  18.1711  19.2007

          k = 0.1737 0.5013 0.1584 (  2252 PWs)   bands (ev):

   -34.1863  -1.4883  -0.5367   2.6759   6.7619   9.3675  11.4332  13.9790
    14.7356  17.4090  17.6573  19.2545

          k = 0.1737 0.5013 0.3169 (  2246 PWs)   bands (ev):

   -34.1623  -0.8263   0.1152   3.2817   7.3531   9.9549  11.7897  14.1512
    14.3754  15.6115  18.1099  18.3971

          k = 0.1737 0.5013 0.4753 (  2232 PWs)   bands (ev):

   -34.1309   0.2689   1.1927   4.2751   8.3042  10.6937  11.7407  12.0779
    12.8302  15.8126  17.2695  18.0845

          k = 0.1737 0.5013 0.6337 (  2236 PWs)   bands (ev):

   -34.1025   1.7828   2.6774   5.6174   8.7052   9.2250   9.7688  11.8580
    12.5045  16.3038  17.0130  17.4492

          k = 0.1737 0.5013 0.7922 (  2228 PWs)   bands (ev):

   -34.0851   3.6660   4.4984   6.1276   6.8914   7.2636   9.5173  11.5538
    13.8858  15.1972  17.1896  17.9694

     the Fermi energy is    12.1636 ev

!    total energy              =     -39.65329207 Ry
     estimated scf accuracy    <          7.2E-11 Ry
     smearing contrib. (-TS)   =       0.00084924 Ry
     internal energy E=F+TS    =     -39.65414130 Ry

     The total energy is F=E-TS. E is the sum of the following terms:
     one-electron contribution =       9.86342300 Ry
     hartree contribution      =       2.97876578 Ry
     xc contribution           =     -13.46340710 Ry
     ewald contribution        =     -39.03292298 Ry

     convergence has been achieved in   6 iterations

     Forces acting on atoms (cartesian axes, Ry/au):

     atom    1 type  1   force =     0.00000000    0.00000000    0.00000000
     atom    2 type  2   force =    -0.00000000   -0.00000000   -0.00000000
     atom    3 type  2   force =     0.00000000   -0.00000000    0.00000000
     atom    4 type  2   force =     0.00000000   -0.00000000   -0.00000000
     The non-local contrib.  to forces
     atom    1 type  1   force =     0.00000000   -0.00000000   -0.00000000
     atom    2 type  2   force =    -0.00000000    0.00000000   -0.00000000
     atom    3 type  2   force =     0.00000000    0.00000000    0.00000000
     atom    4 type  2   force =     0.00000000    0.00000000   -0.00000000
     The ionic contribution  to forces
     atom    1 type  1   force =    -0.00000000   -0.00000000    0.00000000
     atom    2 type  2   force =    -0.00000000   -0.00000000    0.00000000
     atom    3 type  2   force =     0.00000000   -0.00000000    0.00000000
     atom    4 type  2   force =    -0.00000000   -0.00000000    0.00000000
     The local contribution  to forces
     atom    1 type  1   force =     0.00000000    0.00000000   -0.00000000
     atom    2 type  2   force =    -0.00000000    0.00000000    0.00000000
     atom    3 type  2   force =     0.00000000    0.00000000   -0.00000000
     atom    4 type  2   force =     0.00000000   -0.00000000    0.00000000
     The core correction contribution to forces
     atom    1 type  1   force =     0.00000000    0.00000000    0.00000000
     atom    2 type  2   force =     0.00000000   -0.00000000    0.00000000
     atom    3 type  2   force =    -0.00000000   -0.00000000   -0.00000000
     atom    4 type  2   force =     0.00000000    0.00000000    0.00000000
     The Hubbard contrib.    to forces
     atom    1 type  1   force =     0.00000000    0.00000000    0.00000000
     atom    2 type  2   force =     0.00000000    0.00000000    0.00000000
     atom    3 type  2   force =     0.00000000    0.00000000    0.00000000
     atom    4 type  2   force =     0.00000000    0.00000000    0.00000000
     The SCF correction term to forces
     atom    1 type  1   force =     0.00000000    0.00000000   -0.00000000
     atom    2 type  2   force =     0.00000000    0.00000000    0.00000000
     atom    3 type  2   force =    -0.00000000   -0.00000000   -0.00000000
     atom    4 type  2   force =    -0.00000000   -0.00000000    0.00000000

     Total force =     0.000000     Total SCF correction =     0.000000


     Computing stress (Cartesian axis) and pressure

          total   stress  (Ry/bohr**3)                   (kbar)     P=      506.57
   0.00338598   0.00000000   0.00000000          498.09        0.00        0.00
   0.00000000   0.00338598  -0.00000000            0.00      498.09       -0.00
   0.00000000  -0.00000000   0.00355885            0.00       -0.00      523.52

     Energy error            =      1.5E-03 Ry
     Gradient error          =      4.9E-32 Ry/Bohr
     Cell gradient error     =      2.4E+01 kbar

     number of scf cycles    =   3
     number of bfgs steps    =   2

     enthalpy           old  =     -38.6712021064 Ry
     enthalpy           new  =     -38.6726887662 Ry

     CASE: enthalpy          _new < enthalpy          _old

     new trust radius        =       0.0090590018 bohr
ibrav =      4
 celldm(1) =      8.73638314
 celldm(3) =      0.50001853
Input lattice vectors:
     1.15063107     0.00000000     0.00000000
    -0.57531553     0.99647573    -0.00000000
     0.00000000    -0.00000000     0.57533685
New lattice vectors in INITIAL alat:
     1.15063107     0.00000000     0.00000000
    -0.57531553     0.99647573     0.00000000
     0.00000000     0.00000000     0.57533685
New lattice vectors in NEW alat (for information only):
     1.00000000     0.00000000     0.00000000
    -0.50000000     0.86602540     0.00000000
     0.00000000     0.00000000     0.50001853
Discrepancy in bohr =     0.000000    0.000000    0.000000
     new conv_thr            =            1.0E-10 Ry

     new unit-cell volume =    288.74319 a.u.^3 (    42.78733 Ang^3 )
     density =      3.53930 g/cm^3

CELL_PARAMETERS (alat=  7.59268839)
   1.150631066   0.000000000   0.000000000
  -0.575315533   0.996475734   0.000000000
   0.000000000   0.000000000   0.575336853

ATOMIC_POSITIONS (crystal)
Li            0.0000000000        0.0000000000        0.5000000000
Si            0.0000000000        0.5000000000       -0.0000000000
Si            0.5000000000       -0.0000000000        0.0000000000
Si            0.5000000000        0.5000000000       -0.0000000000



     Writing config-only to output data dir ./output/LiSi.save/
     NEW-OLD atomic charge density approx. for the potential
     extrapolated charge   15.01245, renormalised to   15.00000

     total cpu time spent up to now is        8.6 secs

     Self-consistent Calculation

     iteration #  1     ecut=    80.00 Ry     beta= 0.70
     Davidson diagonalization with overlap
     ethr =  1.00E-06,  avg # of iterations =  2.5

     Threshold (ethr) on eigenvalues was too large:
     Diagonalizing with lowered threshold

     Davidson diagonalization with overlap
     ethr =  3.89E-08,  avg # of iterations =  2.2

     total cpu time spent up to now is        9.1 secs

     total energy              =     -39.65418118 Ry
     estimated scf accuracy    <       0.00000653 Ry

     iteration #  2     ecut=    80.00 Ry     beta= 0.70
     Davidson diagonalization with overlap
     ethr =  4.35E-08,  avg # of iterations =  2.0

     total cpu time spent up to now is        9.3 secs

     total energy              =     -39.65418213 Ry
     estimated scf accuracy    <       0.00000011 Ry

     iteration #  3     ecut=    80.00 Ry     beta= 0.70
     Davidson diagonalization with overlap
     ethr =  7.65E-10,  avg # of iterations =  3.0

     total cpu time spent up to now is        9.6 secs

     total energy              =     -39.65418218 Ry
     estimated scf accuracy    <          4.6E-09 Ry

     iteration #  4     ecut=    80.00 Ry     beta= 0.70
     Davidson diagonalization with overlap
     ethr =  3.03E-11,  avg # of iterations =  2.7

     total cpu time spent up to now is        9.8 secs

     total energy              =     -39.65418218 Ry
     estimated scf accuracy    <          5.4E-10 Ry

     iteration #  5     ecut=    80.00 Ry     beta= 0.70
     Davidson diagonalization with overlap
     ethr =  3.57E-12,  avg # of iterations =  2.1

     total cpu time spent up to now is       10.1 secs

     End of self-consistent calculation

          k = 0.0000 0.0000 0.0000 (  2255 PWs)   bands (ev):

   -34.2036  -3.2819   3.6226   4.9471   4.9471   5.9730   5.9730  12.0800
    19.7398  21.3806  21.4007  21.4007

          k = 0.0000 0.0000 0.1580 (  2243 PWs)   bands (ev):

   -34.1943  -3.0647   3.8225   5.1634   5.1634   6.1835   6.1835  12.1689
    17.0223  21.0652  21.0652  21.5605

          k = 0.0000 0.0000 0.3160 (  2225 PWs)   bands (ev):

   -34.1708  -2.4156   4.4181   5.8070   5.8070   6.8137   6.8137  12.2613
    13.7656  19.7623  19.7623  21.3220

          k = 0.0000 0.0000 0.4740 (  2237 PWs)   bands (ev):

   -34.1408  -1.3428   5.3903   6.8599   6.8599   7.8565   7.8565  10.0564
    13.1165  17.5538  17.5538  17.8394

          k = 0.0000 0.0000 0.6320 (  2248 PWs)   bands (ev):

   -34.1130   0.1348   6.6714   7.1301   8.2784   8.2784   9.2849   9.2849
    13.5030  14.8613  15.0945  15.0945

          k = 0.0000 0.0000 0.7901 (  2254 PWs)   bands (ev):

   -34.0966   1.9272   4.5887   7.9396   9.8701   9.8701  10.9151  10.9151
    12.7402  12.9256  12.9256  13.7830

          k = 0.0000 0.2007 0.0000 (  2237 PWs)   bands (ev):

   -34.2028  -2.9947   1.8067   3.9954   5.1372   7.5874   7.8578  12.8834
    17.3747  17.9140  20.6091  22.2094

          k = 0.0000 0.2007 0.1580 (  2236 PWs)   bands (ev):

   -34.1941  -2.7770   2.0188   4.2123   5.3364   7.7952   8.0517  13.0126
    16.7341  17.4842  19.2429  22.2480

          k = 0.0000 0.2007 0.3160 (  2245 PWs)   bands (ev):

   -34.1714  -2.1265   2.6518   4.8595   5.9286   8.4137   8.6193  13.1769
    13.8979  17.6234  18.1431  20.5964

          k = 0.0000 0.2007 0.4740 (  2239 PWs)   bands (ev):

   -34.1406  -1.0513   3.6944   5.9262   6.8901   9.4217   9.4771  10.4170
    14.0366  15.6096  16.7023  19.0189

          k = 0.0000 0.2007 0.6320 (  2235 PWs)   bands (ev):

   -34.1125   0.4304   5.1164   7.3672   7.3885   8.2280  10.2846  10.7163
    13.3480  14.4794  14.5271  16.2871

          k = 0.0000 0.2007 0.7901 (  2239 PWs)   bands (ev):

   -34.0960   2.2348   4.8574   6.7898   9.0212   9.1707   9.7897  11.0993
    13.2981  13.4068  13.8715  15.2217

          k = 0.0000 0.4014 0.0000 (  2236 PWs)   bands (ev):

   -34.2025  -2.2310  -0.0922   3.3274   5.0447  10.2006  10.6206  13.6345
    13.9191  16.2368  20.4196  20.8955

          k = 0.0000 0.4014 0.1580 (  2244 PWs)   bands (ev):

   -34.1941  -2.0116   0.1216   3.5452   5.2299  10.4003  10.7908  13.8046
    14.0124  16.1655  18.6079  20.6214

          k = 0.0000 0.4014 0.3160 (  2249 PWs)   bands (ev):

   -34.1712  -1.3558   0.7603   4.1958   5.7795  10.9898  11.2431  13.6583
    14.2658  15.1469  16.8220  18.8741

          k = 0.0000 0.4014 0.4740 (  2240 PWs)   bands (ev):

   -34.1405  -0.2712   1.8149   5.2700   6.6667  11.0482  11.5177  11.9105
    14.0217  14.6836  16.6500  17.9335

          k = 0.0000 0.4014 0.6320 (  2241 PWs)   bands (ev):

   -34.1126   1.2258   3.2635   6.7495   7.7483   8.2595   9.8265  12.5095
    14.2338  14.2963  15.7534  17.5858

          k = 0.0000 0.4014 0.7901 (  2238 PWs)   bands (ev):

   -34.0958   3.0707   5.0023   5.6107   7.5499   8.5894   8.9067  10.7684
    13.9213  15.2418  15.5598  17.4902

          k = 0.1738 0.3011 0.0000 (  2247 PWs)   bands (ev):

   -34.2030  -2.4441   0.3779   2.9246   6.1734   7.9549  10.8368  13.3166
    15.1460  17.8886  18.0611  22.3044

          k = 0.1738 0.3011 0.1580 (  2244 PWs)   bands (ev):

   -34.1942  -2.2256   0.5942   3.1303   6.3786   8.1394  11.0188  13.4824
    15.2303  17.0919  17.8797  20.9204

          k = 0.1738 0.3011 0.3160 (  2236 PWs)   bands (ev):

   -34.1707  -1.5723   1.2405   3.7431   6.9897   8.6799  11.5235  13.5559
    14.5422  15.7354  17.0094  20.0318

          k = 0.1738 0.3011 0.4740 (  2239 PWs)   bands (ev):

   -34.1405  -0.4923   2.3079   4.7480   7.9812   9.5108  10.8919  11.9790
    14.6593  14.8477  15.7961  18.4406

          k = 0.1738 0.3011 0.6320 (  2233 PWs)   bands (ev):

   -34.1123   0.9973   3.7768   6.0981   7.9896   9.1370  10.3363  10.7695
    13.6131  14.7628  16.1759  17.1083

          k = 0.1738 0.3011 0.7901 (  2247 PWs)   bands (ev):

   -34.0962   2.8243   5.3752   5.5692   7.7468   7.9631   9.8339  11.1207
    13.2986  14.7656  15.6996  16.1759

          k = 0.1738 0.5018 0.0000 (  2269 PWs)   bands (ev):

   -34.2035  -1.7089  -0.7528   2.4776   6.5689   9.1772  11.3184  13.8324
    14.7387  17.2708  18.1923  19.2210

          k = 0.1738 0.5018 0.1580 (  2252 PWs)   bands (ev):

   -34.1944  -1.4887  -0.5359   2.6797   6.7668   9.3764  11.4594  13.9953
    14.7586  17.4226  17.6487  19.2685

          k = 0.1738 0.5018 0.3160 (  2246 PWs)   bands (ev):

   -34.1710  -0.8305   0.1123   3.2816   7.3542   9.9591  11.8088  14.1371
    14.3656  15.5787  18.1250  18.3655

          k = 0.1738 0.5018 0.4740 (  2232 PWs)   bands (ev):

   -34.1402   0.2585   1.1834   4.2684   8.2983  10.6771  11.7224  12.0360
    12.8092  15.8161  17.2276  18.0919

          k = 0.1738 0.5018 0.6320 (  2236 PWs)   bands (ev):

   -34.1125   1.7633   2.6588   5.6008   8.6594   9.1941   9.7450  11.8372
    12.4911  16.2928  17.0067  17.4192

          k = 0.1738 0.5018 0.7901 (  2228 PWs)   bands (ev):

   -34.0955   3.6312   4.4634   6.0985   6.8657   7.2303   9.5076  11.5187
    13.8552  15.1856  17.1910  17.9630

     the Fermi energy is    12.1467 ev

!    total energy              =     -39.65418218 Ry
     estimated scf accuracy    <          1.2E-11 Ry
     smearing contrib. (-TS)   =       0.00082630 Ry
     internal energy E=F+TS    =     -39.65500848 Ry

     The total energy is F=E-TS. E is the sum of the following terms:
     one-electron contribution =       9.84778772 Ry
     hartree contribution      =       2.97978080 Ry
     xc contribution           =     -13.46106794 Ry
     ewald contribution        =     -39.02150905 Ry

     convergence has been achieved in   5 iterations

     Forces acting on atoms (cartesian axes, Ry/au):

     atom    1 type  1   force =    -0.00000000    0.00000000    0.00000000
     atom    2 type  2   force =    -0.00000000   -0.00000000   -0.00000000
     atom    3 type  2   force =     0.00000000   -0.00000000    0.00000000
     atom    4 type  2   force =     0.00000000    0.00000000    0.00000000
     The non-local contrib.  to forces
     atom    1 type  1   force =     0.00000000    0.00000000    0.00000000
     atom    2 type  2   force =    -0.00000000   -0.00000000   -0.00000000
     atom    3 type  2   force =     0.00000000    0.00000000    0.00000000
     atom    4 type  2   force =    -0.00000000   -0.00000000   -0.00000000
     The ionic contribution  to forces
     atom    1 type  1   force =    -0.00000000   -0.00000000    0.00000000
     atom    2 type  2   force =    -0.00000000   -0.00000000    0.00000000
     atom    3 type  2   force =     0.00000000   -0.00000000    0.00000000
     atom    4 type  2   force =     0.00000000   -0.00000000    0.00000000
     The local contribution  to forces
     atom    1 type  1   force =     0.00000000    0.00000000   -0.00000000
     atom    2 type  2   force =    -0.00000000    0.00000000    0.00000000
     atom    3 type  2   force =     0.00000000    0.00000000   -0.00000000
     atom    4 type  2   force =     0.00000000   -0.00000000    0.00000000
     The core correction contribution to forces
     atom    1 type  1   force =     0.00000000    0.00000000    0.00000000
     atom    2 type  2   force =     0.00000000    0.00000000   -0.00000000
     atom    3 type  2   force =    -0.00000000   -0.00000000    0.00000000
     atom    4 type  2   force =    -0.00000000    0.00000000   -0.00000000
     The Hubbard contrib.    to forces
     atom    1 type  1   force =     0.00000000    0.00000000    0.00000000
     atom    2 type  2   force =     0.00000000    0.00000000    0.00000000
     atom    3 type  2   force =     0.00000000    0.00000000    0.00000000
     atom    4 type  2   force =     0.00000000    0.00000000    0.00000000
     The SCF correction term to forces
     atom    1 type  1   force =    -0.00000000   -0.00000000   -0.00000000
     atom    2 type  2   force =     0.00000000   -0.00000000    0.00000000
     atom    3 type  2   force =    -0.00000000   -0.00000000   -0.00000000
     atom    4 type  2   force =    -0.00000000   -0.00000000    0.00000000

     Total force =     0.000000     Total SCF correction =     0.000000


     Computing stress (Cartesian axis) and pressure

          total   stress  (Ry/bohr**3)                   (kbar)     P=      503.66
   0.00341638   0.00000000   0.00000000          502.57        0.00        0.00
   0.00000000   0.00341638  -0.00000000            0.00      502.57       -0.00
  -0.00000000   0.00000000   0.00343859           -0.00        0.00      505.83

     Energy error            =      7.5E-05 Ry
     Gradient error          =      2.9E-31 Ry/Bohr
     Cell gradient error     =      5.8E+00 kbar

     number of scf cycles    =   4
     number of bfgs steps    =   3

     enthalpy           old  =     -38.6726887662 Ry
     enthalpy           new  =     -38.6727640309 Ry

     CASE: enthalpy          _new < enthalpy          _old

     new trust radius        =       0.0023554551 bohr
ibrav =      4
 celldm(1) =      8.73782954
 celldm(3) =      0.50028226
Input lattice vectors:
     1.15082156    -0.00000000    -0.00000000
    -0.57541078     0.99664071     0.00000000
     0.00000000    -0.00000000     0.57573561
New lattice vectors in INITIAL alat:
     1.15082156     0.00000000     0.00000000
    -0.57541078     0.99664071     0.00000000
     0.00000000     0.00000000     0.57573561
New lattice vectors in NEW alat (for information only):
     1.00000000     0.00000000     0.00000000
    -0.50000000     0.86602540     0.00000000
     0.00000000     0.00000000     0.50028226
Discrepancy in bohr =     0.000000    0.000000    0.000000
     new conv_thr            =            1.0E-10 Ry

     new unit-cell volume =    289.03900 a.u.^3 (    42.83116 Ang^3 )
     density =      3.53567 g/cm^3

CELL_PARAMETERS (alat=  7.59268839)
   1.150821565   0.000000000   0.000000000
  -0.575410782   0.996640710   0.000000000
   0.000000000   0.000000000   0.575735613

ATOMIC_POSITIONS (crystal)
Li           -0.0000000000        0.0000000000        0.5000000000
Si            0.0000000000        0.5000000000       -0.0000000000
Si            0.5000000000       -0.0000000000        0.0000000000
Si            0.5000000000        0.5000000000       -0.0000000000



     Writing config-only to output data dir ./output/LiSi.save/
     NEW-OLD atomic charge density approx. for the potential
     extrapolated charge   15.01534, renormalised to   15.00000

     total cpu time spent up to now is       10.9 secs

     Self-consistent Calculation

     iteration #  1     ecut=    80.00 Ry     beta= 0.70
     Davidson diagonalization with overlap
     ethr =  1.00E-06,  avg # of iterations =  2.0

     Threshold (ethr) on eigenvalues was too large:
     Diagonalizing with lowered threshold

     Davidson diagonalization with overlap
     ethr =  1.81E-09,  avg # of iterations =  4.3

     total cpu time spent up to now is       11.4 secs

     total energy              =     -39.65519242 Ry
     estimated scf accuracy    <       0.00000031 Ry

     iteration #  2     ecut=    80.00 Ry     beta= 0.70
     Davidson diagonalization with overlap
     ethr =  2.08E-09,  avg # of iterations =  2.9

     total cpu time spent up to now is       11.7 secs

     total energy              =     -39.65519308 Ry
     estimated scf accuracy    <       0.00000009 Ry

     iteration #  3     ecut=    80.00 Ry     beta= 0.70
     Davidson diagonalization with overlap
     ethr =  6.32E-10,  avg # of iterations =  1.9

     total cpu time spent up to now is       11.9 secs

     total energy              =     -39.65519307 Ry
     estimated scf accuracy    <       0.00000002 Ry

     iteration #  4     ecut=    80.00 Ry     beta= 0.70
     Davidson diagonalization with overlap
     ethr =  1.25E-10,  avg # of iterations =  2.0

     total cpu time spent up to now is       12.1 secs

     total energy              =     -39.65519307 Ry
     estimated scf accuracy    <          1.3E-10 Ry

     iteration #  5     ecut=    80.00 Ry     beta= 0.70
     Davidson diagonalization with overlap
     ethr =  8.50E-13,  avg # of iterations =  4.0

     total cpu time spent up to now is       12.4 secs

     End of self-consistent calculation

          k = 0.0000 0.0000 0.0000 (  2255 PWs)   bands (ev):

   -34.2174  -3.2872   3.6158   4.9391   4.9391   5.9655   5.9655  12.0685
    19.7194  21.3665  21.3881  21.3881

          k = 0.0000 0.0000 0.1579 (  2243 PWs)   bands (ev):

   -34.2083  -3.0703   3.8155   5.1552   5.1552   6.1758   6.1758  12.1571
    16.9958  21.0503  21.0503  21.5461

          k = 0.0000 0.0000 0.3158 (  2225 PWs)   bands (ev):

   -34.1849  -2.4221   4.4100   5.7980   5.7980   6.8050   6.8050  12.2476
    13.7423  19.7420  19.7420  21.2954

          k = 0.0000 0.0000 0.4737 (  2237 PWs)   bands (ev):

   -34.1550  -1.3509   5.3804   6.8498   6.8498   7.8462   7.8462  10.0363
    13.1019  17.5309  17.5309  17.8183

          k = 0.0000 0.0000 0.6316 (  2248 PWs)   bands (ev):

   -34.1274   0.1243   6.6587   7.1133   8.2670   8.2670   9.2721   9.2721
    13.4880  14.8454  15.0720  15.0720

          k = 0.0000 0.0000 0.7895 (  2254 PWs)   bands (ev):

   -34.1112   1.9127   4.5765   7.9226   9.8588   9.8588  10.8982  10.8982
    12.7298  12.9029  12.9029  13.7674

          k = 0.0000 0.2007 0.0000 (  2237 PWs)   bands (ev):

   -34.2167  -3.0000   1.8002   3.9881   5.1296   7.5792   7.8492  12.8727
    17.3632  17.8998  20.5924  22.1953

          k = 0.0000 0.2007 0.1579 (  2236 PWs)   bands (ev):

   -34.2081  -2.7827   2.0120   4.2046   5.3285   7.7867   8.0427  13.0015
    16.7121  17.4723  19.2251  22.2216

          k = 0.0000 0.2007 0.3158 (  2245 PWs)   bands (ev):

   -34.1854  -2.1331   2.6440   4.8510   5.9198   8.4044   8.6095  13.1619
    13.8774  17.6095  18.1226  20.5747

          k = 0.0000 0.2007 0.4737 (  2239 PWs)   bands (ev):

   -34.1549  -1.0594   3.6850   5.9163   6.8797   9.4109   9.4657  10.3965
    14.0230  15.5875  16.6819  18.9974

          k = 0.0000 0.2007 0.6316 (  2235 PWs)   bands (ev):

   -34.1269   0.4200   5.1047   7.3506   7.3769   8.2146  10.2710  10.7034
    13.3293  14.4581  14.5126  16.2689

          k = 0.0000 0.2007 0.7895 (  2239 PWs)   bands (ev):

   -34.1105   2.2203   4.8451   6.7741   9.0083   9.1579   9.7734  11.0824
    13.2823  13.3872  13.8557  15.2077

          k = 0.0000 0.4013 0.0000 (  2236 PWs)   bands (ev):

   -34.2163  -2.2364  -0.0984   3.3203   5.0367  10.1915  10.6113  13.6244
    13.9089  16.2251  20.4052  20.8790

          k = 0.0000 0.4013 0.1579 (  2244 PWs)   bands (ev):

   -34.2080  -2.0173   0.1152   3.5378   5.2216  10.3910  10.7811  13.7942
    14.0014  16.1526  18.5830  20.6069

          k = 0.0000 0.4013 0.3158 (  2249 PWs)   bands (ev):

   -34.1853  -1.3624   0.7530   4.1875   5.7703  10.9796  11.2322  13.6408
    14.2544  15.1298  16.8043  18.8491

          k = 0.0000 0.4013 0.4737 (  2240 PWs)   bands (ev):

   -34.1547  -0.2795   1.8059   5.2603   6.6559  11.0281  11.5030  11.8988
    14.0045  14.6694  16.6353  17.9151

          k = 0.0000 0.4013 0.6316 (  2241 PWs)   bands (ev):

   -34.1270   1.2153   3.2522   6.7380   7.7348   8.2422   9.8101  12.4941
    14.2162  14.2807  15.7370  17.5682

          k = 0.0000 0.4013 0.7895 (  2238 PWs)   bands (ev):

   -34.1104   3.0563   4.9873   5.5976   7.5373   8.5763   8.8903  10.7510
    13.9090  15.2228  15.5405  17.4754

          k = 0.1738 0.3010 0.0000 (  2247 PWs)   bands (ev):

   -34.2169  -2.4495   0.3718   2.9172   6.1658   7.9459  10.8274  13.3069
    15.1346  17.8772  18.0469  22.2920

          k = 0.1738 0.3010 0.1579 (  2244 PWs)   bands (ev):

   -34.2081  -2.2313   0.5878   3.1226   6.3708   8.1302  11.0091  13.4722
    15.2184  17.0721  17.8671  20.8949

          k = 0.1738 0.3010 0.3158 (  2236 PWs)   bands (ev):

   -34.1848  -1.5790   1.2331   3.7346   6.9808   8.6698  11.5128  13.5389
    14.5265  15.7211  16.9891  20.0113

          k = 0.1738 0.3010 0.4737 (  2239 PWs)   bands (ev):

   -34.1547  -0.5006   2.2990   4.7380   7.9706   9.4994  10.8713  11.9654
    14.6449  14.8274  15.7814  18.4175

          k = 0.1738 0.3010 0.6316 (  2233 PWs)   bands (ev):

   -34.1267   0.9868   3.7656   6.0861   7.9723   9.1235  10.3232  10.7530
    13.5943  14.7468  16.1617  17.0898

          k = 0.1738 0.3010 0.7895 (  2247 PWs)   bands (ev):

   -34.1107   2.8098   5.3626   5.5541   7.7314   7.9500   9.8214  11.1031
    13.2786  14.7527  15.6860  16.1569

          k = 0.1738 0.5017 0.0000 (  2269 PWs)   bands (ev):

   -34.2174  -1.7143  -0.7586   2.4702   6.5610   9.1687  11.3081  13.8222
    14.7276  17.2606  18.1795  19.2086

          k = 0.1738 0.5017 0.1579 (  2252 PWs)   bands (ev):

   -34.2083  -1.4945  -0.5420   2.6720   6.7586   9.3676  11.4488  13.9846
    14.7468  17.4107  17.6326  19.2553

          k = 0.1738 0.5017 0.3158 (  2246 PWs)   bands (ev):

   -34.1850  -0.8372   0.1052   3.2730   7.3450   9.9492  11.7974  14.1215
    14.3499  15.5600  18.1132  18.3432

          k = 0.1738 0.5017 0.4737 (  2232 PWs)   bands (ev):

   -34.1544   0.2502   1.1747   4.2584   8.2875  10.6632  11.7068  12.0175
    12.7927  15.8025  17.2047  18.0748

          k = 0.1738 0.5017 0.6316 (  2236 PWs)   bands (ev):

   -34.1269   1.7527   2.6478   5.5888   8.6417   9.1786   9.7305  11.8216
    12.4767  16.2745  16.9907  17.4004

          k = 0.1738 0.5017 0.7895 (  2228 PWs)   bands (ev):

   -34.1100   3.6168   4.4486   6.0851   6.8527   7.2149   9.4954  11.5004
    13.8367  15.1724  17.1747  17.9494

     the Fermi energy is    12.1319 ev

!    total energy              =     -39.65519307 Ry
     estimated scf accuracy    <          8.1E-12 Ry
     smearing contrib. (-TS)   =       0.00082443 Ry
     internal energy E=F+TS    =     -39.65601750 Ry

     The total energy is F=E-TS. E is the sum of the following terms:
     one-electron contribution =       9.82964660 Ry
     hartree contribution      =       2.98084521 Ry
     xc contribution           =     -13.45842653 Ry
     ewald contribution        =     -39.00808277 Ry

     convergence has been achieved in   5 iterations

     Forces acting on atoms (cartesian axes, Ry/au):

     atom    1 type  1   force =     0.00000000   -0.00000000    0.00000000
     atom    2 type  2   force =     0.00000000    0.00000000    0.00000000
     atom    3 type  2   force =     0.00000000    0.00000000    0.00000000
     atom    4 type  2   force =     0.00000000    0.00000000    0.00000000
     The non-local contrib.  to forces
     atom    1 type  1   force =    -0.00000000    0.00000000   -0.00000000
     atom    2 type  2   force =     0.00000000    0.00000000    0.00000000
     atom    3 type  2   force =    -0.00000000   -0.00000000    0.00000000
     atom    4 type  2   force =     0.00000000    0.00000000   -0.00000000
     The ionic contribution  to forces
     atom    1 type  1   force =    -0.00000000   -0.00000000    0.00000000
     atom    2 type  2   force =     0.00000000   -0.00000000    0.00000000
     atom    3 type  2   force =    -0.00000000    0.00000000    0.00000000
     atom    4 type  2   force =     0.00000000   -0.00000000    0.00000000
     The local contribution  to forces
     atom    1 type  1   force =     0.00000000   -0.00000000   -0.00000000
     atom    2 type  2   force =    -0.00000000    0.00000000    0.00000000
     atom    3 type  2   force =     0.00000000    0.00000000   -0.00000000
     atom    4 type  2   force =     0.00000000   -0.00000000    0.00000000
     The core correction contribution to forces
     atom    1 type  1   force =     0.00000000    0.00000000    0.00000000
     atom    2 type  2   force =    -0.00000000    0.00000000   -0.00000000
     atom    3 type  2   force =     0.00000000   -0.00000000   -0.00000000
     atom    4 type  2   force =    -0.00000000    0.00000000   -0.00000000
     The Hubbard contrib.    to forces
     atom    1 type  1   force =     0.00000000    0.00000000    0.00000000
     atom    2 type  2   force =     0.00000000    0.00000000    0.00000000
     atom    3 type  2   force =     0.00000000    0.00000000    0.00000000
     atom    4 type  2   force =     0.00000000    0.00000000    0.00000000
     The SCF correction term to forces
     atom    1 type  1   force =    -0.00000000   -0.00000000   -0.00000000
     atom    2 type  2   force =     0.00000000    0.00000000   -0.00000000
     atom    3 type  2   force =    -0.00000000   -0.00000000   -0.00000000
     atom    4 type  2   force =    -0.00000000    0.00000000   -0.00000000

     Total force =     0.000000     Total SCF correction =     0.000000


     Computing stress (Cartesian axis) and pressure

          total   stress  (Ry/bohr**3)                   (kbar)     P=      500.72
   0.00340419  -0.00000000   0.00000000          500.77       -0.00        0.00
  -0.00000000   0.00340419   0.00000000           -0.00      500.77        0.00
   0.00000000   0.00000000   0.00340303            0.00        0.00      500.60

     Energy error            =      5.5E-06 Ry
     Gradient error          =      3.4E-31 Ry/Bohr
     Cell gradient error     =      7.7E-01 kbar
ibrav =      4
 celldm(1) =      8.73782954
 celldm(3) =      0.50028226
Input lattice vectors:
     1.15082156     0.00000000     0.00000000
    -0.57541078     0.99664071     0.00000000
     0.00000000     0.00000000     0.57573561
New lattice vectors in INITIAL alat:
     1.15082156     0.00000000     0.00000000
    -0.57541078     0.99664071     0.00000000
     0.00000000     0.00000000     0.57573561
New lattice vectors in NEW alat (for information only):
     1.00000000     0.00000000     0.00000000
    -0.50000000     0.86602540     0.00000000
     0.00000000     0.00000000     0.50028226
Discrepancy in bohr =     0.000000    0.000000    0.000000

     bfgs converged in   5 scf cycles and   4 bfgs steps
     (criteria: energy <  1.0E-04 Ry, force <  1.0E-03 Ry/Bohr, cell <  1.0E+00 kbar)

     End of BFGS Geometry Optimization

     Final enthalpy           =     -38.6727694914 Ry

     File ./output/LiSi.bfgs deleted, as requested
Begin final coordinates
     new unit-cell volume =    289.03900 a.u.^3 (    42.83116 Ang^3 )
     density =      3.53567 g/cm^3

CELL_PARAMETERS (alat=  7.59268839)
   1.150821565   0.000000000   0.000000000
  -0.575410782   0.996640710   0.000000000
   0.000000000   0.000000000   0.575735613

ATOMIC_POSITIONS (crystal)
Li           -0.0000000000        0.0000000000        0.5000000000
Si            0.0000000000        0.5000000000       -0.0000000000
Si            0.5000000000       -0.0000000000        0.0000000000
Si            0.5000000000        0.5000000000       -0.0000000000
End final coordinates



     Writing config-only to output data dir ./output/LiSi.save/

     Final scf calculation at the relaxed structure.
     The G-vectors are recalculated for the final unit cell
     Results may differ from those at the preceding step.

     Parallelization info
     --------------------
     sticks:   dense  smooth     PW     G-vecs:    dense   smooth      PW
     Min         208     208     62                 3489     3489     560
     Max         210     210     63                 3490     3490     561
     Sum        1675    1675    499                27919    27919    4483

     Using Slab Decomposition



     bravais-lattice index     =            4
     lattice parameter (alat)  =       7.5927  a.u.
     unit-cell volume          =     289.0390 (a.u.)^3
     number of atoms/cell      =            4
     number of atomic types    =            2
     number of electrons       =        15.00
     number of Kohn-Sham states=           12
     kinetic-energy cutoff     =      80.0000  Ry
     charge density cutoff     =     320.0000  Ry
     scf convergence threshold =      1.0E-10
     mixing beta               =       0.7000
     number of iterations used =            8  plain     mixing
     press convergence thresh. =      1.0E+00
     Exchange-correlation= PBE
                           (   1   4   3   4   0   0   0)

     celldm(1)=   7.592688  celldm(2)=   0.000000  celldm(3)=   0.489317
     celldm(4)=   0.000000  celldm(5)=   0.000000  celldm(6)=   0.000000

     crystal axes: (cart. coord. in units of alat)
               a(1) = (   1.150822   0.000000   0.000000 )  
               a(2) = (  -0.575411   0.996641   0.000000 )  
               a(3) = (   0.000000   0.000000   0.575736 )  

     reciprocal axes: (cart. coord. in units 2 pi/alat)
               b(1) = (  0.868944  0.501685 -0.000000 )  
               b(2) = (  0.000000  1.003371  0.000000 )  
               b(3) = (  0.000000 -0.000000  1.736908 )  


     PseudoPot. # 1 for Li read from file:
     ../pseudo/Li_ONCV_PBE_sr.upf
     MD5 check sum: 50ff420e78310ffa21704f3361e624a4
     Pseudo is Norm-conserving, Zval =  3.0
     Generated using ONCVPSP code by D. R. Hamann
     Using radial grid of 1944 points,  4 beta functions with: 
                l(1) =   0
                l(2) =   0
                l(3) =   1
                l(4) =   1

     PseudoPot. # 2 for Si read from file:
     ../pseudo/Si_ONCV_PBE_sr.upf
     MD5 check sum: e543d271109d17c80368dfa7c482276d
     Pseudo is Norm-conserving + core correction, Zval =  4.0
     Generated using ONCVPSP code by D. R. Hamann
     Using radial grid of 1510 points,  6 beta functions with: 
                l(1) =   0
                l(2) =   0
                l(3) =   1
                l(4) =   1
                l(5) =   2
                l(6) =   2

     atomic species   valence    mass     pseudopotential
        Li             3.00     6.94100     Li( 1.00)
        Si             4.00    28.08550     Si( 1.00)

     24 Sym. Ops., with inversion, found



   Cartesian axes

     site n.     atom                  positions (alat units)
         1           Li  tau(   1) = (  -0.0000000   0.0000000   0.2878678  )
         2           Si  tau(   2) = (  -0.2877054   0.4983204  -0.0000000  )
         3           Si  tau(   3) = (   0.5754108  -0.0000000   0.0000000  )
         4           Si  tau(   4) = (   0.2877054   0.4983204  -0.0000000  )

     number of k points=    30  Marzari-Vanderbilt smearing, width (Ry)=  0.0200
                       cart. coord. in units 2pi/alat
        k(    1) = (   0.0000000   0.0000000   0.0000000), wk =   0.0072727
        k(    2) = (   0.0000000   0.0000000   0.1579008), wk =   0.0145455
        k(    3) = (   0.0000000   0.0000000   0.3158015), wk =   0.0145455
        k(    4) = (   0.0000000   0.0000000   0.4737023), wk =   0.0145455
        k(    5) = (   0.0000000   0.0000000   0.6316030), wk =   0.0145455
        k(    6) = (   0.0000000   0.0000000   0.7895038), wk =   0.0145455
        k(    7) = (   0.0000000   0.2006741   0.0000000), wk =   0.0436364
        k(    8) = (   0.0000000   0.2006741   0.1579008), wk =   0.0872727
        k(    9) = (   0.0000000   0.2006741   0.3158015), wk =   0.0872727
        k(   10) = (   0.0000000   0.2006741   0.4737023), wk =   0.0872727
        k(   11) = (   0.0000000   0.2006741   0.6316030), wk =   0.0872727
        k(   12) = (   0.0000000   0.2006741   0.7895038), wk =   0.0872727
        k(   13) = (   0.0000000   0.4013482   0.0000000), wk =   0.0436364
        k(   14) = (   0.0000000   0.4013482   0.1579008), wk =   0.0872727
        k(   15) = (   0.0000000   0.4013482   0.3158015), wk =   0.0872727
        k(   16) = (   0.0000000   0.4013482   0.4737023), wk =   0.0872727
        k(   17) = (   0.0000000   0.4013482   0.6316030), wk =   0.0872727
        k(   18) = (   0.0000000   0.4013482   0.7895038), wk =   0.0872727
        k(   19) = (   0.1737889   0.3010112   0.0000000), wk =   0.0436364
        k(   20) = (   0.1737889   0.3010112   0.1579008), wk =   0.0872727
        k(   21) = (   0.1737889   0.3010112   0.3158015), wk =   0.0872727
        k(   22) = (   0.1737889   0.3010112   0.4737023), wk =   0.0872727
        k(   23) = (   0.1737889   0.3010112   0.6316030), wk =   0.0872727
        k(   24) = (   0.1737889   0.3010112   0.7895038), wk =   0.0872727
        k(   25) = (   0.1737889   0.5016853   0.0000000), wk =   0.0436364
        k(   26) = (   0.1737889   0.5016853   0.1579008), wk =   0.0872727
        k(   27) = (   0.1737889   0.5016853   0.3158015), wk =   0.0872727
        k(   28) = (   0.1737889   0.5016853   0.4737023), wk =   0.0872727
        k(   29) = (   0.1737889   0.5016853   0.6316030), wk =   0.0872727
        k(   30) = (   0.1737889   0.5016853   0.7895038), wk =   0.0872727

     Dense  grid:    27919 G-vectors     FFT dimensions: (  50,  50,  25)

     Estimated max dynamical RAM per process >      17.01 MB

     Estimated total dynamical RAM >     136.10 MB

     Initial potential from superposition of free atoms

     starting charge      14.9936, renormalised to      15.0000
     Starting wfcs are   14 randomized atomic wfcs

     total cpu time spent up to now is       13.4 secs

     Self-consistent Calculation

     iteration #  1     ecut=    80.00 Ry     beta= 0.70
     Davidson diagonalization with overlap
     c_bands:  1 eigenvalues not converged
     c_bands:  3 eigenvalues not converged
     c_bands:  1 eigenvalues not converged
     c_bands:  1 eigenvalues not converged
     c_bands:  1 eigenvalues not converged
     c_bands:  1 eigenvalues not converged
     c_bands:  1 eigenvalues not converged
     c_bands:  1 eigenvalues not converged
     c_bands:  1 eigenvalues not converged
     c_bands:  2 eigenvalues not converged
     c_bands:  1 eigenvalues not converged
     c_bands:  1 eigenvalues not converged
     c_bands:  1 eigenvalues not converged
     c_bands:  1 eigenvalues not converged
     c_bands:  1 eigenvalues not converged
     c_bands:  1 eigenvalues not converged
     c_bands:  1 eigenvalues not converged
     c_bands:  2 eigenvalues not converged
     c_bands:  1 eigenvalues not converged
     c_bands:  2 eigenvalues not converged
     ethr =  1.00E-06,  avg # of iterations = 19.5

     total cpu time spent up to now is       14.7 secs

     total energy              =     -39.65661190 Ry
     estimated scf accuracy    <       0.01672925 Ry

     iteration #  2     ecut=    80.00 Ry     beta= 0.70
     Davidson diagonalization with overlap
     ethr =  1.12E-04,  avg # of iterations =  1.2

     total cpu time spent up to now is       15.0 secs

     total energy              =     -39.65661462 Ry
     estimated scf accuracy    <       0.00138592 Ry

     iteration #  3     ecut=    80.00 Ry     beta= 0.70
     Davidson diagonalization with overlap
     ethr =  9.24E-06,  avg # of iterations =  1.4

     total cpu time spent up to now is       15.3 secs

     total energy              =     -39.65663750 Ry
     estimated scf accuracy    <       0.00002082 Ry

     iteration #  4     ecut=    80.00 Ry     beta= 0.70
     Davidson diagonalization with overlap
     ethr =  1.39E-07,  avg # of iterations =  2.6

     total cpu time spent up to now is       15.6 secs

     total energy              =     -39.65664228 Ry
     estimated scf accuracy    <       0.00000075 Ry

     iteration #  5     ecut=    80.00 Ry     beta= 0.70
     Davidson diagonalization with overlap
     ethr =  4.98E-09,  avg # of iterations =  2.1

     total cpu time spent up to now is       16.0 secs

     total energy              =     -39.65664242 Ry
     estimated scf accuracy    <          5.6E-09 Ry

     iteration #  6     ecut=    80.00 Ry     beta= 0.70
     Davidson diagonalization with overlap
     ethr =  3.73E-11,  avg # of iterations =  4.2

     total cpu time spent up to now is       16.4 secs

     total energy              =     -39.65664242 Ry
     estimated scf accuracy    <          2.9E-10 Ry

     iteration #  7     ecut=    80.00 Ry     beta= 0.70
     Davidson diagonalization with overlap
     ethr =  1.92E-12,  avg # of iterations =  1.9

     total cpu time spent up to now is       16.7 secs

     End of self-consistent calculation

          k = 0.0000 0.0000 0.0000 (  3517 PWs)   bands (ev):

   -34.2036  -3.2877   3.6153   4.9388   4.9388   5.9653   5.9653  12.0661
    19.7189  21.3662  21.3878  21.6698

          k = 0.0000 0.0000 0.1579 (  3487 PWs)   bands (ev):

   -34.1950  -3.0708   3.8150   5.1548   5.1548   6.1756   6.1756  12.1547
    16.9954  21.0499  21.0500  21.5458

          k = 0.0000 0.0000 0.3158 (  3481 PWs)   bands (ev):

   -34.1719  -2.4226   4.4095   5.7976   5.7976   6.8048   6.8048  12.2459
    13.7414  19.7416  19.7416  21.2950

          k = 0.0000 0.0000 0.4737 (  3504 PWs)   bands (ev):

   -34.1414  -1.3514   5.3800   6.8494   6.8494   7.8460   7.8460  10.0360
    13.1002  17.5305  17.5305  17.8179

          k = 0.0000 0.0000 0.6316 (  3498 PWs)   bands (ev):

   -34.1134   0.1238   6.6582   7.1129   8.2666   8.2666   9.2719   9.2719
    13.4869  14.8450  15.0716  15.0716

          k = 0.0000 0.0000 0.7895 (  3486 PWs)   bands (ev):

   -34.0966   1.9123   4.5761   7.9221   9.8584   9.8584  10.8979  10.8979
    12.7294  12.9025  12.9025  13.7669

          k = 0.0000 0.2007 0.0000 (  3507 PWs)   bands (ev):

   -34.2035  -3.0005   1.7998   3.9878   5.1291   7.5789   7.8487  12.8709
    17.3629  17.8989  20.5920  21.9464

          k = 0.0000 0.2007 0.1579 (  3488 PWs)   bands (ev):

   -34.1949  -2.7831   2.0115   4.2043   5.3280   7.7864   8.0422  12.9998
    16.7116  17.4720  19.2243  22.3652

          k = 0.0000 0.2007 0.3158 (  3488 PWs)   bands (ev):

   -34.1718  -2.1336   2.6436   4.8507   5.9193   8.4041   8.6090  13.1609
    13.8765  17.6091  18.1221  20.5738

          k = 0.0000 0.2007 0.4737 (  3492 PWs)   bands (ev):

   -34.1414  -1.0599   3.6846   5.9160   6.8792   9.4106   9.4652  10.3961
    14.0219  15.5871  16.6816  18.9970

          k = 0.0000 0.2007 0.6316 (  3509 PWs)   bands (ev):

   -34.1133   0.4195   5.1043   7.3502   7.3766   8.2141  10.2706  10.7032
    13.3289  14.4578  14.5121  16.2683

          k = 0.0000 0.2007 0.7895 (  3516 PWs)   bands (ev):

   -34.0966   2.2199   4.8446   6.7736   9.0079   9.1576   9.7731  11.0821
    13.2820  13.3868  13.8552  15.2074

          k = 0.0000 0.4013 0.0000 (  3486 PWs)   bands (ev):

   -34.2034  -2.2368  -0.0989   3.3200   5.0358  10.1912  10.6107  13.6241
    13.9085  16.2237  20.4038  20.8782

          k = 0.0000 0.4013 0.1579 (  3491 PWs)   bands (ev):

   -34.1948  -2.0177   0.1147   3.5375   5.2208  10.3907  10.7805  13.7939
    14.0010  16.1515  18.5824  20.6058

          k = 0.0000 0.4013 0.3158 (  3494 PWs)   bands (ev):

   -34.1717  -1.3629   0.7525   4.1872   5.7695  10.9793  11.2317  13.6404
    14.2541  15.1295  16.8036  18.8479

          k = 0.0000 0.4013 0.4737 (  3483 PWs)   bands (ev):

   -34.1413  -0.2799   1.8055   5.2600   6.6552  11.0276  11.5025  11.8985
    14.0041  14.6691  16.6350  17.9144

          k = 0.0000 0.4013 0.6316 (  3489 PWs)   bands (ev):

   -34.1133   1.2148   3.2518   6.7377   7.7343   8.2418   9.8097  12.4937
    14.2159  14.2803  15.7364  17.5679

          k = 0.0000 0.4013 0.7895 (  3499 PWs)   bands (ev):

   -34.0966   3.0558   4.9869   5.5972   7.5368   8.5760   8.8899  10.7507
    13.9081  15.2225  15.5400  17.4752

          k = 0.1738 0.3010 0.0000 (  3483 PWs)   bands (ev):

   -34.2034  -2.4500   0.3714   2.9167   6.1655   7.9452  10.8271  13.3066
    15.1332  17.8768  18.0462  22.4814

          k = 0.1738 0.3010 0.1579 (  3496 PWs)   bands (ev):

   -34.1948  -2.2317   0.5874   3.1221   6.3705   8.1295  11.0088  13.4719
    15.2171  17.0717  17.8667  20.8936

          k = 0.1738 0.3010 0.3158 (  3489 PWs)   bands (ev):

   -34.1717  -1.5794   1.2327   3.7340   6.9805   8.6691  11.5124  13.5385
    14.5261  15.7201  16.9887  20.0109

          k = 0.1738 0.3010 0.4737 (  3483 PWs)   bands (ev):

   -34.1413  -0.5010   2.2986   4.7375   7.9703   9.4988  10.8709  11.9650
    14.6446  14.8271  15.7809  18.4161

          k = 0.1738 0.3010 0.6316 (  3490 PWs)   bands (ev):

   -34.1133   0.9864   3.7652   6.0856   7.9718   9.1231  10.3228  10.7527
    13.5938  14.7465  16.1614  17.0896

          k = 0.1738 0.3010 0.7895 (  3495 PWs)   bands (ev):

   -34.0966   2.8094   5.3621   5.5537   7.7310   7.9496   9.8209  11.1028
    13.2781  14.7524  15.6852  16.1565

          k = 0.1738 0.5017 0.0000 (  3506 PWs)   bands (ev):

   -34.2033  -1.7147  -0.7591   2.4695   6.5605   9.1684  11.3073  13.8219
    14.7272  17.2604  18.1792  19.2075

          k = 0.1738 0.5017 0.1579 (  3494 PWs)   bands (ev):

   -34.1947  -1.4949  -0.5425   2.6713   6.7581   9.3673  11.4480  13.9843
    14.7464  17.4105  17.6322  19.2542

          k = 0.1738 0.5017 0.3158 (  3490 PWs)   bands (ev):

   -34.1716  -0.8376   0.1048   3.2724   7.3445   9.9489  11.7967  14.1211
    14.3495  15.5597  18.1130  18.3428

          k = 0.1738 0.5017 0.4737 (  3493 PWs)   bands (ev):

   -34.1413   0.2498   1.1743   4.2578   8.2870  10.6629  11.7063  12.0172
    12.7923  15.8022  17.2038  18.0744

          k = 0.1738 0.5017 0.6316 (  3491 PWs)   bands (ev):

   -34.1133   1.7523   2.6474   5.5882   8.6413   9.1781   9.7302  11.8213
    12.4764  16.2732  16.9904  17.4001

          k = 0.1738 0.5017 0.7895 (  3480 PWs)   bands (ev):

   -34.0966   3.6164   4.4482   6.0847   6.8523   7.2144   9.4949  11.5001
    13.8364  15.1717  17.1737  17.9495

     the Fermi energy is    12.1314 ev

!    total energy              =     -39.65664242 Ry
     estimated scf accuracy    <          5.6E-12 Ry
     smearing contrib. (-TS)   =       0.00082317 Ry
     internal energy E=F+TS    =     -39.65746559 Ry

     The total energy is F=E-TS. E is the sum of the following terms:
     one-electron contribution =       9.82629939 Ry
     hartree contribution      =       2.98410240 Ry
     xc contribution           =     -13.45978461 Ry
     ewald contribution        =     -39.00808277 Ry

     convergence has been achieved in   7 iterations

     Forces acting on atoms (cartesian axes, Ry/au):

     atom    1 type  1   force =    -0.00000000   -0.00000000    0.00000000
     atom    2 type  2   force =    -0.00000000   -0.00000000    0.00000000
     atom    3 type  2   force =     0.00000000    0.00000000   -0.00000000
     atom    4 type  2   force =     0.00000000    0.00000000    0.00000000
     The non-local contrib.  to forces
     atom    1 type  1   force =    -0.00000000    0.00000000    0.00000000
     atom    2 type  2   force =     0.00000000    0.00000000    0.00000000
     atom    3 type  2   force =     0.00000000   -0.00000000    0.00000000
     atom    4 type  2   force =     0.00000000   -0.00000000    0.00000000
     The ionic contribution  to forces
     atom    1 type  1   force =    -0.00000000   -0.00000000   -0.00000000
     atom    2 type  2   force =    -0.00000000    0.00000000    0.00000000
     atom    3 type  2   force =     0.00000000    0.00000000    0.00000000
     atom    4 type  2   force =     0.00000000    0.00000000    0.00000000
     The local contribution  to forces
     atom    1 type  1   force =     0.00000000   -0.00000000   -0.00000000
     atom    2 type  2   force =     0.00000000    0.00000000   -0.00000000
     atom    3 type  2   force =     0.00000000   -0.00000000   -0.00000000
     atom    4 type  2   force =    -0.00000000    0.00000000   -0.00000000
     The core correction contribution to forces
     atom    1 type  1   force =     0.00000000    0.00000000    0.00000000
     atom    2 type  2   force =     0.00000000   -0.00000000   -0.00000000
     atom    3 type  2   force =    -0.00000000   -0.00000000   -0.00000000
     atom    4 type  2   force =    -0.00000000   -0.00000000   -0.00000000
     The Hubbard contrib.    to forces
     atom    1 type  1   force =     0.00000000    0.00000000    0.00000000
     atom    2 type  2   force =     0.00000000    0.00000000    0.00000000
     atom    3 type  2   force =     0.00000000    0.00000000    0.00000000
     atom    4 type  2   force =     0.00000000    0.00000000    0.00000000
     The SCF correction term to forces
     atom    1 type  1   force =     0.00000000    0.00000000    0.00000000
     atom    2 type  2   force =     0.00000000    0.00000000   -0.00000000
     atom    3 type  2   force =    -0.00000000   -0.00000000   -0.00000000
     atom    4 type  2   force =    -0.00000000   -0.00000000    0.00000000

     Total force =     0.000000     Total SCF correction =     0.000000


     Computing stress (Cartesian axis) and pressure

          total   stress  (Ry/bohr**3)                   (kbar)     P=      507.48
   0.00344632   0.00000000  -0.00000000          506.97        0.00       -0.00
   0.00000000   0.00344632  -0.00000000            0.00      506.97       -0.00
  -0.00000000  -0.00000000   0.00345660           -0.00       -0.00      508.48


     Writing all to output data dir ./output/LiSi.save/

     init_run     :      0.79s CPU      0.87s WALL (       2 calls)
     electrons    :     10.93s CPU     12.04s WALL (       6 calls)
     update_pot   :      0.76s CPU      0.77s WALL (       4 calls)
     forces       :      0.75s CPU      0.79s WALL (       6 calls)
     stress       :      2.72s CPU      2.84s WALL (       6 calls)

     Called by init_run:
     wfcinit      :      0.21s CPU      0.22s WALL (       2 calls)
     potinit      :      0.21s CPU      0.23s WALL (       2 calls)
     hinit0       :      0.36s CPU      0.39s WALL (       2 calls)

     Called by electrons:
     c_bands      :      9.55s CPU     10.38s WALL (      39 calls)
     sum_band     :      1.20s CPU      1.27s WALL (      39 calls)
     v_of_rho     :      0.17s CPU      0.35s WALL (      42 calls)
     mix_rho      :      0.01s CPU      0.02s WALL (      39 calls)

     Called by c_bands:
     init_us_2    :      0.24s CPU      0.26s WALL (    2760 calls)
     init_us_2:cp :      0.24s CPU      0.26s WALL (    2760 calls)
     cegterg      :      8.92s CPU      9.25s WALL (    1170 calls)

     Called by *egterg:
     cdiaghg      :      0.84s CPU      0.88s WALL (    5120 calls)
     h_psi        :      7.39s CPU      7.67s WALL (    5390 calls)
     g_psi        :      0.03s CPU      0.04s WALL (    4160 calls)

     Called by h_psi:
     h_psi:calbec :      0.51s CPU      0.52s WALL (    5390 calls)
     vloc_psi     :      6.46s CPU      6.70s WALL (    5390 calls)
     add_vuspsi   :      0.39s CPU      0.40s WALL (    5390 calls)

     General routines
     calbec       :      0.64s CPU      0.66s WALL (    6290 calls)
     fft          :      0.33s CPU      0.58s WALL (     571 calls)
     ffts         :      0.00s CPU      0.01s WALL (      39 calls)
     fftw         :      6.65s CPU      6.91s WALL (  100060 calls)

     Parallel routines

     PWSCF        :     16.12s CPU     17.67s WALL


   This run was terminated on:  11:31:40  29Dec2024            

=------------------------------------------------------------------------------=
   JOB DONE.
=------------------------------------------------------------------------------=
