
     Program PWSCF v.7.2 starts on 29Dec2024 at 12: 4:30 

     This program is part of the open-source Quantum ESPRESSO suite
     for quantum simulation of materials; please cite
         "P. Giannozzi et al., J. Phys.:Condens. Matter 21 395502 (2009);
         "P. Giannozzi et al., J. Phys.:Condens. Matter 29 465901 (2017);
         "P. Giannozzi et al., J. Chem. Phys. 152 154105 (2020);
          URL http://www.quantum-espresso.org", 
     in publications or presentations arising from this work. More details at
     http://www.quantum-espresso.org/quote

     Parallel version (MPI & OpenMP), running on       8 processor cores
     Number of MPI processes:                 8
     Threads/MPI process:                     1

     MPI processes distributed on     1 nodes
     481622 MiB available memory on the printing compute node when the environment starts

     Waiting for input...
     Reading input from standard input

     Current dimensions of program PWSCF are:
     Max number of different atomic species (ntypx) = 10
     Max number of k-points (npk) =  40000
     Max angular momentum in pseudopotentials (lmaxx) =  4

     R & G space division:  proc/nbgrp/npool/nimage =       8
     Subspace diagonalization in iterative solution of the eigenvalue problem:
     a serial algorithm will be used


     Parallelization info
     --------------------
     sticks:   dense  smooth     PW     G-vecs:    dense   smooth      PW
     Min         209     209     62                 3491     3491     562
     Max         210     210     63                 3492     3492     565
     Sum        1675    1675    499                27931    27931    4507

     Using Slab Decomposition



     bravais-lattice index     =            4
     lattice parameter (alat)  =       8.7736  a.u.
     unit-cell volume          =     289.7080 (a.u.)^3
     number of atoms/cell      =            4
     number of atomic types    =            2
     number of electrons       =        15.00
     number of Kohn-Sham states=           12
     kinetic-energy cutoff     =      80.0000  Ry
     charge density cutoff     =     320.0000  Ry
     scf convergence threshold =      1.0E-08
     mixing beta               =       0.7000
     number of iterations used =            8  plain     mixing
     energy convergence thresh.=      1.0E-04
     force convergence thresh. =      1.0E-03
     press convergence thresh. =      1.0E+00
     Exchange-correlation= PBE
                           (   1   4   3   4   0   0   0)
     nstep                     =           50


     celldm(1)=   8.773646  celldm(2)=   0.000000  celldm(3)=   0.495324
     celldm(4)=   0.000000  celldm(5)=   0.000000  celldm(6)=   0.000000

     crystal axes: (cart. coord. in units of alat)
               a(1) = (   1.000000   0.000000   0.000000 )  
               a(2) = (  -0.500000   0.866025   0.000000 )  
               a(3) = (   0.000000   0.000000   0.495324 )  

     reciprocal axes: (cart. coord. in units 2 pi/alat)
               b(1) = (  1.000000  0.577350 -0.000000 )  
               b(2) = (  0.000000  1.154701  0.000000 )  
               b(3) = (  0.000000 -0.000000  2.018880 )  


     PseudoPot. # 1 for Li read from file:
     ../pseudo/Li_ONCV_PBE_sr.upf
     MD5 check sum: 50ff420e78310ffa21704f3361e624a4
     Pseudo is Norm-conserving, Zval =  3.0
     Generated using ONCVPSP code by D. R. Hamann
     Using radial grid of 1944 points,  4 beta functions with: 
                l(1) =   0
                l(2) =   0
                l(3) =   1
                l(4) =   1

     PseudoPot. # 2 for Si read from file:
     ../pseudo/Si_ONCV_PBE_sr.upf
     MD5 check sum: e543d271109d17c80368dfa7c482276d
     Pseudo is Norm-conserving + core correction, Zval =  4.0
     Generated using ONCVPSP code by D. R. Hamann
     Using radial grid of 1510 points,  6 beta functions with: 
                l(1) =   0
                l(2) =   0
                l(3) =   1
                l(4) =   1
                l(5) =   2
                l(6) =   2

     atomic species   valence    mass     pseudopotential
        Li             3.00     6.94100     Li( 1.00)
        Si             4.00    28.08550     Si( 1.00)

     24 Sym. Ops., with inversion, found



   Cartesian axes

     site n.     atom                  positions (alat units)
         1           Li  tau(   1) = (   0.0000000   0.0000000   0.0000000  )
         2           Si  tau(   2) = (  -0.2500000   0.4330127   0.2476621  )
         3           Si  tau(   3) = (   0.5000000   0.0000000   0.2476621  )
         4           Si  tau(   4) = (   0.2500000   0.4330127   0.2476621  )

     number of k points=    30  Marzari-Vanderbilt smearing, width (Ry)=  0.0200
                       cart. coord. in units 2pi/alat
        k(    1) = (   0.0000000   0.0000000   0.0000000), wk =   0.0072727
        k(    2) = (   0.0000000   0.0000000   0.1835345), wk =   0.0145455
        k(    3) = (   0.0000000   0.0000000   0.3670690), wk =   0.0145455
        k(    4) = (   0.0000000   0.0000000   0.5506036), wk =   0.0145455
        k(    5) = (   0.0000000   0.0000000   0.7341381), wk =   0.0145455
        k(    6) = (   0.0000000   0.0000000   0.9176726), wk =   0.0145455
        k(    7) = (   0.0000000   0.2309401   0.0000000), wk =   0.0436364
        k(    8) = (   0.0000000   0.2309401   0.1835345), wk =   0.0872727
        k(    9) = (   0.0000000   0.2309401   0.3670690), wk =   0.0872727
        k(   10) = (   0.0000000   0.2309401   0.5506036), wk =   0.0872727
        k(   11) = (   0.0000000   0.2309401   0.7341381), wk =   0.0872727
        k(   12) = (   0.0000000   0.2309401   0.9176726), wk =   0.0872727
        k(   13) = (   0.0000000   0.4618802   0.0000000), wk =   0.0436364
        k(   14) = (   0.0000000   0.4618802   0.1835345), wk =   0.0872727
        k(   15) = (   0.0000000   0.4618802   0.3670690), wk =   0.0872727
        k(   16) = (   0.0000000   0.4618802   0.5506036), wk =   0.0872727
        k(   17) = (   0.0000000   0.4618802   0.7341381), wk =   0.0872727
        k(   18) = (   0.0000000   0.4618802   0.9176726), wk =   0.0872727
        k(   19) = (   0.2000000   0.3464102   0.0000000), wk =   0.0436364
        k(   20) = (   0.2000000   0.3464102   0.1835345), wk =   0.0872727
        k(   21) = (   0.2000000   0.3464102   0.3670690), wk =   0.0872727
        k(   22) = (   0.2000000   0.3464102   0.5506036), wk =   0.0872727
        k(   23) = (   0.2000000   0.3464102   0.7341381), wk =   0.0872727
        k(   24) = (   0.2000000   0.3464102   0.9176726), wk =   0.0872727
        k(   25) = (   0.2000000   0.5773503   0.0000000), wk =   0.0436364
        k(   26) = (   0.2000000   0.5773503   0.1835345), wk =   0.0872727
        k(   27) = (   0.2000000   0.5773503   0.3670690), wk =   0.0872727
        k(   28) = (   0.2000000   0.5773503   0.5506036), wk =   0.0872727
        k(   29) = (   0.2000000   0.5773503   0.7341381), wk =   0.0872727
        k(   30) = (   0.2000000   0.5773503   0.9176726), wk =   0.0872727

     Dense  grid:    27931 G-vectors     FFT dimensions: (  50,  50,  25)

     Estimated max dynamical RAM per process >      16.99 MB

     Estimated total dynamical RAM >     135.89 MB

     Initial potential from superposition of free atoms

     starting charge      14.9936, renormalised to      15.0000
     Starting wfcs are   14 randomized atomic wfcs

     total cpu time spent up to now is        0.9 secs

     Self-consistent Calculation

     iteration #  1     ecut=    80.00 Ry     beta= 0.70
     Davidson diagonalization with overlap
     ethr =  1.00E-02,  avg # of iterations =  6.3

     Threshold (ethr) on eigenvalues was too large:
     Diagonalizing with lowered threshold

     Davidson diagonalization with overlap
     ethr =  1.12E-04,  avg # of iterations =  4.9

     total cpu time spent up to now is        1.9 secs

     total energy              =     -39.65841614 Ry
     estimated scf accuracy    <       0.01667419 Ry

     iteration #  2     ecut=    80.00 Ry     beta= 0.70
     Davidson diagonalization with overlap
     ethr =  1.11E-04,  avg # of iterations =  1.0

     total cpu time spent up to now is        2.2 secs

     total energy              =     -39.65848339 Ry
     estimated scf accuracy    <       0.00138578 Ry

     iteration #  3     ecut=    80.00 Ry     beta= 0.70
     Davidson diagonalization with overlap
     ethr =  9.24E-06,  avg # of iterations =  3.7

     total cpu time spent up to now is        2.6 secs

     total energy              =     -39.65852051 Ry
     estimated scf accuracy    <       0.00002301 Ry

     iteration #  4     ecut=    80.00 Ry     beta= 0.70
     Davidson diagonalization with overlap
     ethr =  1.53E-07,  avg # of iterations =  5.2

     total cpu time spent up to now is        3.1 secs

     total energy              =     -39.65852795 Ry
     estimated scf accuracy    <       0.00000079 Ry

     iteration #  5     ecut=    80.00 Ry     beta= 0.70
     Davidson diagonalization with overlap
     ethr =  5.29E-09,  avg # of iterations =  2.3

     total cpu time spent up to now is        3.4 secs

     End of self-consistent calculation

          k = 0.0000 0.0000 0.0000 (  3493 PWs)   bands (ev):

   -34.2456  -3.3047   3.5784   4.8174   4.8174   5.9101   5.9101  12.0153
    19.7715  21.1259  21.2573  21.9801

          k = 0.0000 0.0000 0.1835 (  3517 PWs)   bands (ev):

   -34.2366  -3.0849   3.7813   5.0358   5.0358   6.1232   6.1232  12.1087
    17.1447  20.9540  20.9541  21.3081

          k = 0.0000 0.0000 0.3671 (  3487 PWs)   bands (ev):

   -34.2124  -2.4280   4.3857   5.6855   5.6855   6.7609   6.7609  12.2353
    13.8630  19.7214  19.7214  21.8548

          k = 0.0000 0.0000 0.5506 (  3510 PWs)   bands (ev):

   -34.1805  -1.3419   5.3738   6.7478   6.7478   7.8168   7.8168  10.1461
    13.0934  17.5432  17.5432  17.9097

          k = 0.0000 0.0000 0.7341 (  3510 PWs)   bands (ev):

   -34.1511   0.1554   6.6803   7.1973   8.1763   8.1763   9.2652   9.2652
    13.4933  14.8865  15.0810  15.0810

          k = 0.0000 0.0000 0.9177 (  3510 PWs)   bands (ev):

   -34.1335   1.9840   4.6152   7.9875   9.7679   9.7679  10.9288  10.9288
    12.7166  12.9118  12.9118  13.7868

          k = 0.0000 0.2309 0.0000 (  3512 PWs)   bands (ev):

   -34.2455  -3.0200   1.7463   3.8994   5.0779   7.4864   7.7461  12.8039
    17.1932  17.7931  20.5544  21.9670

          k = 0.0000 0.2309 0.1835 (  3504 PWs)   bands (ev):

   -34.2365  -2.7998   1.9610   4.1185   5.2799   7.6966   7.9426  12.9369
    16.7723  17.3110  19.1695  22.1420

          k = 0.0000 0.2309 0.3671 (  3487 PWs)   bands (ev):

   -34.2123  -2.1415   2.6019   4.7723   5.8807   8.3223   8.5186  13.1568
    13.9595  17.4908  18.1313  20.5361

          k = 0.0000 0.2309 0.5506 (  3502 PWs)   bands (ev):

   -34.1804  -1.0531   3.6581   5.8494   6.8574   9.3427   9.3955  10.5030
    13.9927  15.6513  16.6784  19.0609

          k = 0.0000 0.2309 0.7341 (  3523 PWs)   bands (ev):

   -34.1510   0.4481   5.1008   7.3243   7.4277   8.2206  10.2384  10.6570
    13.3514  14.4817  14.5033  16.2989

          k = 0.0000 0.2309 0.9177 (  3533 PWs)   bands (ev):

   -34.1335   2.2878   4.8827   6.8138   8.9958   9.1115   9.8118  11.0871
    13.2674  13.3873  13.8542  15.1755

          k = 0.0000 0.4619 0.0000 (  3496 PWs)   bands (ev):

   -34.2454  -2.2633  -0.1400   3.2412   4.9951  10.0792  10.5067  13.4716
    13.7777  16.1045  20.2871  20.8318

          k = 0.0000 0.4619 0.1835 (  3486 PWs)   bands (ev):

   -34.2364  -2.0413   0.0764   3.4613   5.1834  10.2815  10.6806  13.6456
    13.8824  16.0618  18.6735  20.4819

          k = 0.0000 0.4619 0.3671 (  3500 PWs)   bands (ev):

   -34.2122  -1.3780   0.7230   4.1185   5.7424  10.8786  11.1476  13.6440
    14.1218  15.1348  16.7921  18.8734

          k = 0.0000 0.4619 0.5506 (  3499 PWs)   bands (ev):

   -34.1804  -0.2807   1.7907   5.2033   6.6462  11.1162  11.4875  11.8134
    14.0123  14.5909  16.5694  17.8800

          k = 0.0000 0.4619 0.7341 (  3509 PWs)   bands (ev):

   -34.1510   1.2350   3.2590   6.6963   7.7606   8.3111   9.8508  12.4627
    14.2017  14.2469  15.7587  17.4985

          k = 0.0000 0.4619 0.9177 (  3505 PWs)   bands (ev):

   -34.1335   3.1125   5.0333   5.6342   7.5465   8.5457   8.9466  10.7636
    13.8937  15.2112  15.5382  17.4140

          k = 0.2000 0.3464 0.0000 (  3497 PWs)   bands (ev):

   -34.2454  -2.4743   0.3254   2.8533   6.1057   7.8514  10.7042  13.1783
    15.0237  17.7219  17.9279  22.7822

          k = 0.2000 0.3464 0.1835 (  3493 PWs)   bands (ev):

   -34.2364  -2.2532   0.5442   3.0617   6.3136   8.0386  10.8896  13.3490
    15.1190  17.0778  17.7376  20.8847

          k = 0.2000 0.3464 0.3671 (  3492 PWs)   bands (ev):

   -34.2122  -1.5924   1.1981   3.6828   6.9328   8.5872  11.4068  13.5287
    14.5165  15.6558  17.0106  19.9596

          k = 0.2000 0.3464 0.5506 (  3497 PWs)   bands (ev):

   -34.1804  -0.4995   2.2783   4.7018   7.9387   9.4327  10.9732  11.9132
    14.5798  14.8621  15.7501  18.4142

          k = 0.2000 0.3464 0.7341 (  3499 PWs)   bands (ev):

   -34.1510   1.0092   3.7660   6.0741   8.0477   9.1232  10.2844  10.7808
    13.6096  14.6907  16.1155  17.1258

          k = 0.2000 0.3464 0.9177 (  3507 PWs)   bands (ev):

   -34.1335   2.8700   5.3982   5.5922   7.7589   7.9591   9.7922  11.1349
    13.2898  14.7374  15.6355  16.1242

          k = 0.2000 0.5774 0.0000 (  3510 PWs)   bands (ev):

   -34.2453  -1.7457  -0.7965   2.4132   6.4977   9.0882  11.1557  13.7037
    14.5666  17.1310  18.0380  19.0728

          k = 0.2000 0.5774 0.1835 (  3499 PWs)   bands (ev):

   -34.2363  -1.5231  -0.5770   2.6181   6.6983   9.2904  11.3014  13.8720
    14.6039  17.2997  17.5782  19.1363

          k = 0.2000 0.5774 0.3671 (  3508 PWs)   bands (ev):

   -34.2121  -0.8575   0.0788   3.2286   7.2937   9.8831  11.6703  14.0876
    14.3012  15.5821  17.9998  18.3424

          k = 0.2000 0.5774 0.5506 (  3501 PWs)   bands (ev):

   -34.1803   0.2439   1.1627   4.2300   8.2522  10.6496  11.6881  12.0709
    12.7834  15.7203  17.2353  17.9618

          k = 0.2000 0.5774 0.7341 (  3496 PWs)   bands (ev):

   -34.1510   1.7668   2.6570   5.5847   8.7129   9.2067   9.7407  11.8150
    12.4505  16.2189  16.9307  17.4105

          k = 0.2000 0.5774 0.9177 (  3490 PWs)   bands (ev):

   -34.1335   3.6656   4.4955   6.1194   6.8760   7.2527   9.4671  11.5310
    13.8505  15.1458  17.0859  17.9023

     the Fermi energy is    12.1200 ev

!    total energy              =     -39.65852816 Ry
     estimated scf accuracy    <          7.0E-09 Ry
     smearing contrib. (-TS)   =       0.00088081 Ry
     internal energy E=F+TS    =     -39.65940897 Ry

     The total energy is F=E-TS. E is the sum of the following terms:
     one-electron contribution =       9.78826747 Ry
     hartree contribution      =       2.98611163 Ry
     xc contribution           =     -13.45456468 Ry
     ewald contribution        =     -38.97922339 Ry

     convergence has been achieved in   5 iterations

     Forces acting on atoms (cartesian axes, Ry/au):

     atom    1 type  1   force =     0.00000000    0.00000000   -0.00000000
     atom    2 type  2   force =     0.00000000    0.00000000   -0.00000000
     atom    3 type  2   force =     0.00000000    0.00000000    0.00000000
     atom    4 type  2   force =     0.00000000    0.00000000    0.00000000
     The non-local contrib.  to forces
     atom    1 type  1   force =     0.00000000    0.00000000    0.00000000
     atom    2 type  2   force =     0.00000000    0.00000000    0.00000000
     atom    3 type  2   force =     0.00000000   -0.00000000   -0.00000000
     atom    4 type  2   force =     0.00000000    0.00000000   -0.00000000
     The ionic contribution  to forces
     atom    1 type  1   force =    -0.00000000   -0.00000000   -0.00000000
     atom    2 type  2   force =    -0.00000000    0.00000000   -0.00000000
     atom    3 type  2   force =     0.00000000    0.00000000   -0.00000000
     atom    4 type  2   force =     0.00000000    0.00000000   -0.00000000
     The local contribution  to forces
     atom    1 type  1   force =     0.00000000   -0.00000000    0.00000000
     atom    2 type  2   force =     0.00000000   -0.00000000   -0.00000000
     atom    3 type  2   force =    -0.00000000    0.00000000   -0.00000000
     atom    4 type  2   force =    -0.00000000   -0.00000000   -0.00000000
     The core correction contribution to forces
     atom    1 type  1   force =     0.00000000    0.00000000    0.00000000
     atom    2 type  2   force =     0.00000000   -0.00000000   -0.00000000
     atom    3 type  2   force =    -0.00000000   -0.00000000    0.00000000
     atom    4 type  2   force =    -0.00000000   -0.00000000   -0.00000000
     The Hubbard contrib.    to forces
     atom    1 type  1   force =     0.00000000    0.00000000    0.00000000
     atom    2 type  2   force =     0.00000000    0.00000000    0.00000000
     atom    3 type  2   force =     0.00000000    0.00000000    0.00000000
     atom    4 type  2   force =     0.00000000    0.00000000    0.00000000
     The SCF correction term to forces
     atom    1 type  1   force =    -0.00000000   -0.00000000   -0.00000000
     atom    2 type  2   force =     0.00000000    0.00000000   -0.00000000
     atom    3 type  2   force =    -0.00000000   -0.00000000    0.00000000
     atom    4 type  2   force =    -0.00000000   -0.00000000    0.00000000

     Total force =     0.000000     Total SCF correction =     0.000000


     Computing stress (Cartesian axis) and pressure

          total   stress  (Ry/bohr**3)                   (kbar)     P=      502.79
   0.00327686   0.00000000  -0.00000000          482.04        0.00       -0.00
   0.00000000   0.00327686  -0.00000000            0.00      482.04       -0.00
  -0.00000000  -0.00000000   0.00370002           -0.00       -0.00      544.29


     BFGS Geometry Optimization
     Energy error            =      0.0E+00 Ry
     Gradient error          =      2.5E-32 Ry/Bohr
     Cell gradient error     =      4.4E+01 kbar

     number of scf cycles    =   1
     number of bfgs steps    =   0

     enthalpy           new  =     -38.6738306933 Ry

     new trust radius        =       0.0256240850 bohr
ibrav =      4
 celldm(1) =      8.74686963
 celldm(3) =      0.50058037
Input lattice vectors:
     0.99694811     0.00000000    -0.00000000
    -0.49847405     0.86338239    -0.00000000
    -0.00000000    -0.00000000     0.49905265
New lattice vectors in INITIAL alat:
     0.99694811     0.00000000     0.00000000
    -0.49847405     0.86338239     0.00000000
     0.00000000     0.00000000     0.49905265
New lattice vectors in NEW alat (for information only):
     1.00000000     0.00000000     0.00000000
    -0.50000000     0.86602540     0.00000000
     0.00000000     0.00000000     0.50058037
Discrepancy in bohr =     0.000000    0.000000    0.000000
     new conv_thr            =       0.0000000100 Ry

     new unit-cell volume =    290.10980 a.u.^3 (    42.98984 Ang^3 )
     density =      3.52262 g/cm^3

CELL_PARAMETERS (alat=  8.77364587)
   0.996948106   0.000000000   0.000000000
  -0.498474053   0.863382386   0.000000000
   0.000000000   0.000000000   0.499052647

ATOMIC_POSITIONS (crystal)
Li            0.0000000000        0.0000000000       -0.0000000000
Si            0.0000000000        0.5000000000        0.5000000000
Si            0.5000000000        0.0000000000        0.5000000000
Si            0.5000000000        0.5000000000        0.5000000000



     Writing config-only to output data dir ./output/LiSi.save/
     NEW-OLD atomic charge density approx. for the potential
     extrapolated charge   15.02077, renormalised to   15.00000

     total cpu time spent up to now is        4.8 secs

     Self-consistent Calculation

     iteration #  1     ecut=    80.00 Ry     beta= 0.70
     Davidson diagonalization with overlap
     ethr =  1.00E-06,  avg # of iterations =  4.9

     total cpu time spent up to now is        5.3 secs

     total energy              =     -39.66029251 Ry
     estimated scf accuracy    <       0.00005428 Ry

     iteration #  2     ecut=    80.00 Ry     beta= 0.70
     Davidson diagonalization with overlap
     ethr =  3.62E-07,  avg # of iterations =  2.0

     total cpu time spent up to now is        5.6 secs

     total energy              =     -39.66029883 Ry
     estimated scf accuracy    <       0.00000071 Ry

     iteration #  3     ecut=    80.00 Ry     beta= 0.70
     Davidson diagonalization with overlap
     ethr =  4.70E-09,  avg # of iterations =  3.6

     total cpu time spent up to now is        6.0 secs

     total energy              =     -39.66029923 Ry
     estimated scf accuracy    <       0.00000003 Ry

     iteration #  4     ecut=    80.00 Ry     beta= 0.70
     Davidson diagonalization with overlap
     ethr =  2.00E-10,  avg # of iterations =  2.5

     total cpu time spent up to now is        6.4 secs

     End of self-consistent calculation

          k = 0.0000 0.0000 0.0000 (  3493 PWs)   bands (ev):

   -34.2545  -3.3072   3.5884   4.8980   4.8980   5.9340   5.9340  12.0216
    19.6572  21.2908  21.3307  21.5646

          k = 0.0000 0.0000 0.1822 (  3517 PWs)   bands (ev):

   -34.2460  -3.0911   3.7873   5.1134   5.1134   6.1436   6.1436  12.1100
    16.9245  20.9892  20.9893  21.4700

          k = 0.0000 0.0000 0.3643 (  3487 PWs)   bands (ev):

   -34.2232  -2.4451   4.3796   5.7544   5.7544   6.7706   6.7706  12.1994
    13.6772  19.6714  19.6714  22.0075

          k = 0.0000 0.0000 0.5465 (  3510 PWs)   bands (ev):

   -34.1933  -1.3774   5.3461   6.8035   6.8035   7.8081   7.8081   9.9820
    13.0505  17.4555  17.4555  17.7578

          k = 0.0000 0.0000 0.7287 (  3510 PWs)   bands (ev):

   -34.1656   0.0925   6.6181   7.0664   8.2178   8.2178   9.2283   9.2283
    13.4373  14.7966  14.9974  14.9974

          k = 0.0000 0.0000 0.9108 (  3510 PWs)   bands (ev):

   -34.1491   1.8722   4.5400   7.8729   9.8101   9.8101  10.8449  10.8449
    12.6928  12.8276  12.8276  13.7169

          k = 0.0000 0.2316 0.0000 (  3512 PWs)   bands (ev):

   -34.2544  -3.0205   1.7717   3.9528   5.0979   7.5406   7.8077  12.8270
    17.3047  17.8396  20.5317  22.1212

          k = 0.0000 0.2316 0.1822 (  3504 PWs)   bands (ev):

   -34.2460  -2.8039   1.9827   4.1687   5.2960   7.7474   8.0006  12.9555
    16.6462  17.4135  19.1577  22.2910

          k = 0.0000 0.2316 0.3643 (  3487 PWs)   bands (ev):

   -34.2232  -2.1565   2.6127   4.8132   5.8854   8.3631   8.5655  13.1111
    13.8166  17.5488  18.0549  20.4963

          k = 0.0000 0.2316 0.5465 (  3502 PWs)   bands (ev):

   -34.1932  -1.0864   3.6502   5.8753   6.8417   9.3664   9.4190  10.3403
    13.9732  15.5208  16.6134  18.9326

          k = 0.0000 0.2316 0.7287 (  3523 PWs)   bands (ev):

   -34.1656   0.3878   5.0648   7.3040   7.3318   8.1701  10.2216  10.6546
    13.2687  14.3894  14.4627  16.2109

          k = 0.0000 0.2316 0.9108 (  3533 PWs)   bands (ev):

   -34.1491   2.1794   4.8079   6.7256   8.9633   9.1096   9.7231  11.0261
    13.2273  13.3210  13.8024  15.1572

          k = 0.0000 0.4633 0.0000 (  3496 PWs)   bands (ev):

   -34.2543  -2.2579  -0.1242   3.2870   5.0043  10.1478  10.5672  13.5722
    13.8590  16.1706  20.3427  20.8171

          k = 0.0000 0.4633 0.1822 (  3486 PWs)   bands (ev):

   -34.2458  -2.0396   0.0887   3.5039   5.1887  10.3467  10.7364  13.7415
    13.9504  16.0983  18.5102  20.5430

          k = 0.0000 0.4633 0.3643 (  3500 PWs)   bands (ev):

   -34.2231  -1.3869   0.7244   4.1516   5.7356  10.9333  11.1853  13.5830
    14.2005  15.0727  16.7429  18.7667

          k = 0.0000 0.4633 0.5465 (  3499 PWs)   bands (ev):

   -34.1931  -0.3075   1.7739   5.2211   6.6181  10.9708  11.4515  11.8493
    13.9476  14.6127  16.5781  17.8493

          k = 0.0000 0.4633 0.7287 (  3509 PWs)   bands (ev):

   -34.1655   1.1819   3.2152   6.6946   7.6924   8.1922   9.7595  12.4386
    14.1553  14.2242  15.6842  17.5009

          k = 0.0000 0.4633 0.9108 (  3505 PWs)   bands (ev):

   -34.1491   3.0143   4.9423   5.5576   7.4955   8.5287   8.8417  10.6939
    13.8651  15.1575  15.4752  17.4187

          k = 0.2006 0.3475 0.0000 (  3497 PWs)   bands (ev):

   -34.2543  -2.4708   0.3456   2.8846   6.1332   7.9041  10.7814  13.2591
    15.0821  17.8204  17.9854  22.3749

          k = 0.2006 0.3475 0.1822 (  3493 PWs)   bands (ev):

   -34.2458  -2.2533   0.5609   3.0894   6.3375   8.0878  10.9625  13.4236
    15.1659  17.0072  17.8096  20.8066

          k = 0.2006 0.3475 0.3643 (  3492 PWs)   bands (ev):

   -34.2231  -1.6032   1.2041   3.6995   6.9453   8.6258  11.4643  13.4818
    14.4716  15.6647  16.9240  19.9358

          k = 0.2006 0.3475 0.5465 (  3497 PWs)   bands (ev):

   -34.1932  -0.5284   2.2664   4.7001   7.9313   9.4529  10.8139  11.9135
    14.5892  14.7632  15.7280  18.3382

          k = 0.2006 0.3475 0.7287 (  3499 PWs)   bands (ev):

   -34.1655   0.9538   3.7279   6.0444   7.9228   9.0778  10.2747  10.7007
    13.5327  14.6863  16.1087  17.0319

          k = 0.2006 0.3475 0.9108 (  3507 PWs)   bands (ev):

   -34.1491   2.7681   5.3241   5.5079   7.6830   7.9066   9.7756  11.0476
    13.2125  14.7073  15.6338  16.0889

          k = 0.2006 0.5791 0.0000 (  3510 PWs)   bands (ev):

   -34.2542  -1.7366  -0.7830   2.4382   6.5265   9.1305  11.2550  13.7740
    14.6716  17.2111  18.1203  19.1504

          k = 0.2006 0.5791 0.1822 (  3499 PWs)   bands (ev):

   -34.2458  -1.5175  -0.5671   2.6394   6.7234   9.3287  11.3955  13.9355
    14.6905  17.3583  17.5724  19.1962

          k = 0.2006 0.5791 0.3643 (  3508 PWs)   bands (ev):

   -34.2230  -0.8624   0.0780   3.2387   7.3077   9.9080  11.7439  14.0656
    14.2919  15.4993  18.0604  18.2677

          k = 0.2006 0.5791 0.5465 (  3501 PWs)   bands (ev):

   -34.1931   0.2213   1.1440   4.2212   8.2466  10.6154  11.6527  11.9612
    12.7356  15.7470  17.1306  18.0037

          k = 0.2006 0.5791 0.7287 (  3496 PWs)   bands (ev):

   -34.1655   1.7186   2.6119   5.5477   8.5908   9.1297   9.6828  11.7687
    12.4254  16.2053  16.9299  17.3387

          k = 0.2006 0.5791 0.9108 (  3490 PWs)   bands (ev):

   -34.1491   3.5741   4.4042   6.0441   6.8113   7.1674   9.4510  11.4427
    13.7765  15.1248  17.1085  17.8981

     the Fermi energy is    12.0794 ev

!    total energy              =     -39.66029924 Ry
     estimated scf accuracy    <          3.3E-09 Ry
     smearing contrib. (-TS)   =       0.00082398 Ry
     internal energy E=F+TS    =     -39.66112322 Ry

     The total energy is F=E-TS. E is the sum of the following terms:
     one-electron contribution =       9.76118521 Ry
     hartree contribution      =       2.98797785 Ry
     xc contribution           =     -13.45038652 Ry
     ewald contribution        =     -38.95989976 Ry

     convergence has been achieved in   4 iterations

     Forces acting on atoms (cartesian axes, Ry/au):

     atom    1 type  1   force =     0.00000000    0.00000000    0.00000000
     atom    2 type  2   force =    -0.00000000   -0.00000000   -0.00000000
     atom    3 type  2   force =     0.00000000    0.00000000    0.00000000
     atom    4 type  2   force =    -0.00000000   -0.00000000    0.00000000
     The non-local contrib.  to forces
     atom    1 type  1   force =    -0.00000000   -0.00000000    0.00000000
     atom    2 type  2   force =    -0.00000000   -0.00000000    0.00000000
     atom    3 type  2   force =    -0.00000000   -0.00000000    0.00000000
     atom    4 type  2   force =     0.00000000    0.00000000   -0.00000000
     The ionic contribution  to forces
     atom    1 type  1   force =    -0.00000000   -0.00000000   -0.00000000
     atom    2 type  2   force =    -0.00000000   -0.00000000    0.00000000
     atom    3 type  2   force =     0.00000000    0.00000000    0.00000000
     atom    4 type  2   force =    -0.00000000    0.00000000    0.00000000
     The local contribution  to forces
     atom    1 type  1   force =    -0.00000000   -0.00000000   -0.00000000
     atom    2 type  2   force =     0.00000000    0.00000000   -0.00000000
     atom    3 type  2   force =    -0.00000000    0.00000000   -0.00000000
     atom    4 type  2   force =    -0.00000000    0.00000000   -0.00000000
     The core correction contribution to forces
     atom    1 type  1   force =     0.00000000    0.00000000    0.00000000
     atom    2 type  2   force =     0.00000000    0.00000000   -0.00000000
     atom    3 type  2   force =    -0.00000000    0.00000000   -0.00000000
     atom    4 type  2   force =     0.00000000   -0.00000000   -0.00000000
     The Hubbard contrib.    to forces
     atom    1 type  1   force =     0.00000000    0.00000000    0.00000000
     atom    2 type  2   force =     0.00000000    0.00000000    0.00000000
     atom    3 type  2   force =     0.00000000    0.00000000    0.00000000
     atom    4 type  2   force =     0.00000000    0.00000000    0.00000000
     The SCF correction term to forces
     atom    1 type  1   force =    -0.00000000   -0.00000000   -0.00000000
     atom    2 type  2   force =     0.00000000    0.00000000    0.00000000
     atom    3 type  2   force =    -0.00000000   -0.00000000   -0.00000000
     atom    4 type  2   force =    -0.00000000   -0.00000000    0.00000000

     Total force =     0.000000     Total SCF correction =     0.000000


     Computing stress (Cartesian axis) and pressure

          total   stress  (Ry/bohr**3)                   (kbar)     P=      497.35
   0.00338741   0.00000000   0.00000000          498.31        0.00        0.00
   0.00000000   0.00338741  -0.00000000            0.00      498.31       -0.00
   0.00000000   0.00000000   0.00336789            0.00        0.00      495.43

     Energy error            =      4.1E-04 Ry
     Gradient error          =      4.1E-32 Ry/Bohr
     Cell gradient error     =      4.6E+00 kbar

     number of scf cycles    =   2
     number of bfgs steps    =   1

     enthalpy           old  =     -38.6738306933 Ry
     enthalpy           new  =     -38.6742360623 Ry

     CASE: enthalpy          _new < enthalpy          _old

     new trust radius        =       0.0023088440 bohr
ibrav =      4
 celldm(1) =      8.74428563
 celldm(3) =      0.50038891
Input lattice vectors:
     0.99665359     0.00000000     0.00000000
    -0.49832679     0.86312733     0.00000000
    -0.00000000    -0.00000000     0.49871440
New lattice vectors in INITIAL alat:
     0.99665359     0.00000000     0.00000000
    -0.49832679     0.86312733     0.00000000
     0.00000000     0.00000000     0.49871440
New lattice vectors in NEW alat (for information only):
     1.00000000     0.00000000     0.00000000
    -0.50000000     0.86602540     0.00000000
     0.00000000     0.00000000     0.50038891
Discrepancy in bohr =     0.000000    0.000000    0.000000
     new conv_thr            =            1.0E-10 Ry

     new unit-cell volume =    289.74191 a.u.^3 (    42.93532 Ang^3 )
     density =      3.52710 g/cm^3

CELL_PARAMETERS (alat=  8.77364587)
   0.996653588   0.000000000   0.000000000
  -0.498326794   0.863127326   0.000000000
   0.000000000   0.000000000   0.498714403

ATOMIC_POSITIONS (crystal)
Li            0.0000000000        0.0000000000       -0.0000000000
Si            0.0000000000        0.5000000000        0.5000000000
Si            0.5000000000        0.0000000000        0.5000000000
Si            0.5000000000        0.5000000000        0.5000000000



     Writing config-only to output data dir ./output/LiSi.save/
     NEW-OLD atomic charge density approx. for the potential
     extrapolated charge   14.98096, renormalised to   15.00000

     total cpu time spent up to now is        7.6 secs

     Self-consistent Calculation

     iteration #  1     ecut=    80.00 Ry     beta= 0.70
     Davidson diagonalization with overlap
     ethr =  1.00E-06,  avg # of iterations =  2.0

     Threshold (ethr) on eigenvalues was too large:
     Diagonalizing with lowered threshold

     Davidson diagonalization with overlap
     ethr =  2.25E-09,  avg # of iterations =  4.3

     total cpu time spent up to now is        8.3 secs

     total energy              =     -39.65905091 Ry
     estimated scf accuracy    <       0.00000033 Ry

     iteration #  2     ecut=    80.00 Ry     beta= 0.70
     Davidson diagonalization with overlap
     ethr =  2.22E-09,  avg # of iterations =  3.0

     total cpu time spent up to now is        8.7 secs

     total energy              =     -39.65905191 Ry
     estimated scf accuracy    <       0.00000015 Ry

     iteration #  3     ecut=    80.00 Ry     beta= 0.70
     Davidson diagonalization with overlap
     ethr =  9.95E-10,  avg # of iterations =  1.5

     total cpu time spent up to now is        9.0 secs

     total energy              =     -39.65905189 Ry
     estimated scf accuracy    <       0.00000004 Ry

     iteration #  4     ecut=    80.00 Ry     beta= 0.70
     Davidson diagonalization with overlap
     ethr =  2.52E-10,  avg # of iterations =  2.0

     total cpu time spent up to now is        9.3 secs

     total energy              =     -39.65905189 Ry
     estimated scf accuracy    <          2.0E-10 Ry

     iteration #  5     ecut=    80.00 Ry     beta= 0.70
     Davidson diagonalization with overlap
     ethr =  1.32E-12,  avg # of iterations =  3.8

     total cpu time spent up to now is        9.7 secs

     End of self-consistent calculation

          k = 0.0000 0.0000 0.0000 (  3493 PWs)   bands (ev):

   -34.2374  -3.3006   3.5974   4.9104   4.9104   5.9441   5.9441  12.0364
    19.6800  21.3134  21.3487  21.6071

          k = 0.0000 0.0000 0.1823 (  3517 PWs)   bands (ev):

   -34.2289  -3.0841   3.7966   5.1261   5.1261   6.1540   6.1540  12.1250
    16.9522  21.0091  21.0091  21.4927

          k = 0.0000 0.0000 0.3646 (  3487 PWs)   bands (ev):

   -34.2060  -2.4372   4.3899   5.7678   5.7678   6.7819   6.7819  12.2157
    13.7020  19.6960  19.6960  22.0306

          k = 0.0000 0.0000 0.5469 (  3510 PWs)   bands (ev):

   -34.1758  -1.3680   5.3580   6.8180   6.8180   7.8210   7.8210  10.0030
    13.0679  17.4823  17.4823  17.7807

          k = 0.0000 0.0000 0.7291 (  3510 PWs)   bands (ev):

   -34.1480   0.1042   6.6328   7.0843   8.2336   8.2336   9.2436   9.2436
    13.4549  14.8145  15.0238  15.0238

          k = 0.0000 0.0000 0.9114 (  3510 PWs)   bands (ev):

   -34.1314   1.8877   4.5534   7.8915   9.8257   9.8257  10.8642  10.8642
    12.7056  12.8543  12.8543  13.7348

          k = 0.0000 0.2317 0.0000 (  3512 PWs)   bands (ev):

   -34.2373  -3.0137   1.7807   3.9637   5.1081   7.5526   7.8205  12.8413
    17.3224  17.8589  20.5525  22.1434

          k = 0.0000 0.2317 0.1823 (  3504 PWs)   bands (ev):

   -34.2288  -2.7968   1.9921   4.1799   5.3065   7.7597   8.0137  12.9700
    16.6706  17.4314  19.1803  22.3135

          k = 0.0000 0.2317 0.3646 (  3487 PWs)   bands (ev):

   -34.2059  -2.1485   2.6230   4.8251   5.8967   8.3762   8.5794  13.1288
    13.8391  17.5682  18.0790  20.5230

          k = 0.0000 0.2317 0.5469 (  3502 PWs)   bands (ev):

   -34.1757  -1.0769   3.6620   5.8886   6.8546   9.3809   9.4342  10.3619
    13.9899  15.5454  16.6375  18.9565

          k = 0.0000 0.2317 0.7291 (  3523 PWs)   bands (ev):

   -34.1479   0.3995   5.0788   7.3217   7.3468   8.1858  10.2384  10.6710
    13.2904  14.4140  14.4800  16.2317

          k = 0.0000 0.2317 0.9114 (  3533 PWs)   bands (ev):

   -34.1314   2.1949   4.8215   6.7434   8.9789   9.1258   9.7414  11.0460
    13.2465  13.3443  13.8210  15.1743

          k = 0.0000 0.4634 0.0000 (  3496 PWs)   bands (ev):

   -34.2372  -2.2509  -0.1159   3.2974   5.0148  10.1613  10.5809  13.5879
    13.8743  16.1873  20.3624  20.8379

          k = 0.0000 0.4634 0.1823 (  3486 PWs)   bands (ev):

   -34.2287  -2.0322   0.0973   3.5145   5.1994  10.3604  10.7503  13.7575
    13.9663  16.1156  18.5374  20.5631

          k = 0.0000 0.4634 0.3646 (  3500 PWs)   bands (ev):

   -34.2058  -1.3786   0.7339   4.1630   5.7471  10.9478  11.2003  13.6035
    14.2172  15.0929  16.7642  18.7958

          k = 0.0000 0.4634 0.5469 (  3499 PWs)   bands (ev):

   -34.1757  -0.2977   1.7849   5.2339   6.6311  10.9925  11.4693  11.8653
    13.9678  14.6314  16.5971  17.8717

          k = 0.0000 0.4634 0.7291 (  3509 PWs)   bands (ev):

   -34.1479   1.1940   3.2283   6.7092   7.7077   8.2109   9.7780  12.4576
    14.1764  14.2435  15.7030  17.5234

          k = 0.0000 0.4634 0.9114 (  3505 PWs)   bands (ev):

   -34.1313   3.0300   4.9590   5.5723   7.5103   8.5450   8.8597  10.7142
    13.8801  15.1803  15.4981  17.4376

          k = 0.2007 0.3476 0.0000 (  3497 PWs)   bands (ev):

   -34.2372  -2.4638   0.3540   2.8949   6.1436   7.9170  10.7955  13.2737
    15.0982  17.8377  18.0050  22.4178

          k = 0.2007 0.3476 0.1823 (  3493 PWs)   bands (ev):

   -34.2287  -2.2460   0.5696   3.0999   6.3482   8.1010  10.9768  13.4386
    15.1823  17.0303  17.8277  20.8372

          k = 0.2007 0.3476 0.3646 (  3492 PWs)   bands (ev):

   -34.2058  -1.5949   1.2137   3.7108   6.9570   8.6397  11.4796  13.5019
    14.4905  15.6832  16.9474  19.9614

          k = 0.2007 0.3476 0.5469 (  3497 PWs)   bands (ev):

   -34.1757  -0.5186   2.2775   4.7127   7.9446   9.4680  10.8359  11.9309
    14.6077  14.7864  15.7462  18.3657

          k = 0.2007 0.3476 0.7291 (  3499 PWs)   bands (ev):

   -34.1479   0.9657   3.7411   6.0588   7.9415   9.0939  10.2910  10.7196
    13.5546  14.7066  16.1265  17.0529

          k = 0.2007 0.3476 0.9114 (  3507 PWs)   bands (ev):

   -34.1313   2.7838   5.3382   5.5248   7.7005   7.9220   9.7911  11.0677
    13.2359  14.7230  15.6511  16.1123

          k = 0.2007 0.5793 0.0000 (  3510 PWs)   bands (ev):

   -34.2371  -1.7293  -0.7751   2.4483   6.5375   9.1425  11.2709  13.7890
    14.6885  17.2263  18.1388  19.1682

          k = 0.2007 0.5793 0.1823 (  3499 PWs)   bands (ev):

   -34.2286  -1.5099  -0.5589   2.6498   6.7347   9.3410  11.4116  13.9509
    14.7079  17.3750  17.5927  19.2147

          k = 0.2007 0.5793 0.3646 (  3508 PWs)   bands (ev):

   -34.2057  -0.8539   0.0871   3.2499   7.3199   9.9214  11.7604  14.0849
    14.3116  15.5210  18.0770  18.2942

          k = 0.2007 0.5793 0.5469 (  3501 PWs)   bands (ev):

   -34.1756   0.2313   1.1545   4.2337   8.2603  10.6321  11.6715  11.9819
    12.7554  15.7651  17.1570  18.0267

          k = 0.2007 0.5793 0.7291 (  3496 PWs)   bands (ev):

   -34.1479   1.7308   2.6247   5.5620   8.6099   9.1474   9.6997  11.7872
    12.4430  16.2284  16.9503  17.3606

          k = 0.2007 0.5793 0.9114 (  3490 PWs)   bands (ev):

   -34.1313   3.5900   4.4206   6.0591   6.8262   7.1847   9.4660  11.4636
    13.7979  15.1409  17.1300  17.9153

     the Fermi energy is    12.0974 ev

!    total energy              =     -39.65905189 Ry
     estimated scf accuracy    <          2.2E-11 Ry
     smearing contrib. (-TS)   =       0.00082446 Ry
     internal energy E=F+TS    =     -39.65987635 Ry

     The total energy is F=E-TS. E is the sum of the following terms:
     one-electron contribution =       9.78357188 Ry
     hartree contribution      =       2.98663167 Ry
     xc contribution           =     -13.45361303 Ry
     ewald contribution        =     -38.97646686 Ry

     convergence has been achieved in   5 iterations

     Forces acting on atoms (cartesian axes, Ry/au):

     atom    1 type  1   force =     0.00000000    0.00000000    0.00000000
     atom    2 type  2   force =    -0.00000000   -0.00000000    0.00000000
     atom    3 type  2   force =     0.00000000    0.00000000    0.00000000
     atom    4 type  2   force =     0.00000000    0.00000000    0.00000000
     The non-local contrib.  to forces
     atom    1 type  1   force =     0.00000000    0.00000000    0.00000000
     atom    2 type  2   force =     0.00000000    0.00000000    0.00000000
     atom    3 type  2   force =     0.00000000    0.00000000    0.00000000
     atom    4 type  2   force =     0.00000000    0.00000000   -0.00000000
     The ionic contribution  to forces
     atom    1 type  1   force =    -0.00000000   -0.00000000   -0.00000000
     atom    2 type  2   force =     0.00000000    0.00000000   -0.00000000
     atom    3 type  2   force =    -0.00000000   -0.00000000   -0.00000000
     atom    4 type  2   force =    -0.00000000    0.00000000   -0.00000000
     The local contribution  to forces
     atom    1 type  1   force =    -0.00000000   -0.00000000    0.00000000
     atom    2 type  2   force =     0.00000000    0.00000000   -0.00000000
     atom    3 type  2   force =    -0.00000000    0.00000000   -0.00000000
     atom    4 type  2   force =     0.00000000    0.00000000   -0.00000000
     The core correction contribution to forces
     atom    1 type  1   force =     0.00000000    0.00000000    0.00000000
     atom    2 type  2   force =     0.00000000   -0.00000000    0.00000000
     atom    3 type  2   force =    -0.00000000    0.00000000   -0.00000000
     atom    4 type  2   force =     0.00000000   -0.00000000    0.00000000
     The Hubbard contrib.    to forces
     atom    1 type  1   force =     0.00000000    0.00000000    0.00000000
     atom    2 type  2   force =     0.00000000    0.00000000    0.00000000
     atom    3 type  2   force =     0.00000000    0.00000000    0.00000000
     atom    4 type  2   force =     0.00000000    0.00000000    0.00000000
     The SCF correction term to forces
     atom    1 type  1   force =     0.00000000    0.00000000   -0.00000000
     atom    2 type  2   force =    -0.00000000    0.00000000   -0.00000000
     atom    3 type  2   force =     0.00000000    0.00000000    0.00000000
     atom    4 type  2   force =     0.00000000    0.00000000    0.00000000

     Total force =     0.000000     Total SCF correction =     0.000000


     Computing stress (Cartesian axis) and pressure

          total   stress  (Ry/bohr**3)                   (kbar)     P=      500.83
   0.00340524   0.00000000  -0.00000000          500.93        0.00       -0.00
   0.00000000   0.00340524  -0.00000000            0.00      500.93       -0.00
  -0.00000000  -0.00000000   0.00340317           -0.00       -0.00      500.62

     Energy error            =      3.1E-06 Ry
     Gradient error          =      2.1E-31 Ry/Bohr
     Cell gradient error     =      9.3E-01 kbar
ibrav =      4
 celldm(1) =      8.74428563
 celldm(3) =      0.50038891
Input lattice vectors:
     0.99665359     0.00000000     0.00000000
    -0.49832679     0.86312733     0.00000000
     0.00000000     0.00000000     0.49871440
New lattice vectors in INITIAL alat:
     0.99665359     0.00000000     0.00000000
    -0.49832679     0.86312733     0.00000000
     0.00000000     0.00000000     0.49871440
New lattice vectors in NEW alat (for information only):
     1.00000000     0.00000000     0.00000000
    -0.50000000     0.86602540     0.00000000
     0.00000000     0.00000000     0.50038891
Discrepancy in bohr =     0.000000    0.000000    0.000000

     bfgs converged in   3 scf cycles and   2 bfgs steps
     (criteria: energy <  1.0E-04 Ry, force <  1.0E-03 Ry/Bohr, cell <  1.0E+00 kbar)

     End of BFGS Geometry Optimization

     Final enthalpy           =     -38.6742391635 Ry

     File ./output/LiSi.bfgs deleted, as requested
Begin final coordinates
     new unit-cell volume =    289.74191 a.u.^3 (    42.93532 Ang^3 )
     density =      3.52710 g/cm^3

CELL_PARAMETERS (alat=  8.77364587)
   0.996653588   0.000000000   0.000000000
  -0.498326794   0.863127326   0.000000000
   0.000000000   0.000000000   0.498714403

ATOMIC_POSITIONS (crystal)
Li            0.0000000000        0.0000000000       -0.0000000000
Si           -0.0000000000        0.5000000000        0.5000000000
Si            0.5000000000        0.0000000000        0.5000000000
Si            0.5000000000        0.5000000000        0.5000000000
End final coordinates



     Writing config-only to output data dir ./output/LiSi.save/

     Final scf calculation at the relaxed structure.
     The G-vectors are recalculated for the final unit cell
     Results may differ from those at the preceding step.

     Parallelization info
     --------------------
     sticks:   dense  smooth     PW     G-vecs:    dense   smooth      PW
     Min         208     208     62                 3495     3495     560
     Max         210     210     63                 3496     3496     561
     Sum        1675    1675    499                27967    27967    4483

     Using Slab Decomposition



     bravais-lattice index     =            4
     lattice parameter (alat)  =       8.7736  a.u.
     unit-cell volume          =     289.7419 (a.u.)^3
     number of atoms/cell      =            4
     number of atomic types    =            2
     number of electrons       =        15.00
     number of Kohn-Sham states=           12
     kinetic-energy cutoff     =      80.0000  Ry
     charge density cutoff     =     320.0000  Ry
     scf convergence threshold =      1.0E-10
     mixing beta               =       0.7000
     number of iterations used =            8  plain     mixing
     press convergence thresh. =      1.0E+00
     Exchange-correlation= PBE
                           (   1   4   3   4   0   0   0)

     celldm(1)=   8.773646  celldm(2)=   0.000000  celldm(3)=   0.495324
     celldm(4)=   0.000000  celldm(5)=   0.000000  celldm(6)=   0.000000

     crystal axes: (cart. coord. in units of alat)
               a(1) = (   0.996654   0.000000   0.000000 )  
               a(2) = (  -0.498327   0.863127   0.000000 )  
               a(3) = (   0.000000   0.000000   0.498714 )  

     reciprocal axes: (cart. coord. in units 2 pi/alat)
               b(1) = (  1.003358  0.579289 -0.000000 )  
               b(2) = (  0.000000  1.158578  0.000000 )  
               b(3) = (  0.000000 -0.000000  2.005156 )  


     PseudoPot. # 1 for Li read from file:
     ../pseudo/Li_ONCV_PBE_sr.upf
     MD5 check sum: 50ff420e78310ffa21704f3361e624a4
     Pseudo is Norm-conserving, Zval =  3.0
     Generated using ONCVPSP code by D. R. Hamann
     Using radial grid of 1944 points,  4 beta functions with: 
                l(1) =   0
                l(2) =   0
                l(3) =   1
                l(4) =   1

     PseudoPot. # 2 for Si read from file:
     ../pseudo/Si_ONCV_PBE_sr.upf
     MD5 check sum: e543d271109d17c80368dfa7c482276d
     Pseudo is Norm-conserving + core correction, Zval =  4.0
     Generated using ONCVPSP code by D. R. Hamann
     Using radial grid of 1510 points,  6 beta functions with: 
                l(1) =   0
                l(2) =   0
                l(3) =   1
                l(4) =   1
                l(5) =   2
                l(6) =   2

     atomic species   valence    mass     pseudopotential
        Li             3.00     6.94100     Li( 1.00)
        Si             4.00    28.08550     Si( 1.00)

     24 Sym. Ops., with inversion, found



   Cartesian axes

     site n.     atom                  positions (alat units)
         1           Li  tau(   1) = (  -0.0000000   0.0000000  -0.0000000  )
         2           Si  tau(   2) = (  -0.2491634   0.4315637   0.2493572  )
         3           Si  tau(   3) = (   0.4983268   0.0000000   0.2493572  )
         4           Si  tau(   4) = (   0.2491634   0.4315637   0.2493572  )

     number of k points=    30  Marzari-Vanderbilt smearing, width (Ry)=  0.0200
                       cart. coord. in units 2pi/alat
        k(    1) = (   0.0000000   0.0000000   0.0000000), wk =   0.0072727
        k(    2) = (   0.0000000   0.0000000   0.1822869), wk =   0.0145455
        k(    3) = (   0.0000000   0.0000000   0.3645738), wk =   0.0145455
        k(    4) = (   0.0000000   0.0000000   0.5468606), wk =   0.0145455
        k(    5) = (   0.0000000   0.0000000   0.7291475), wk =   0.0145455
        k(    6) = (   0.0000000   0.0000000   0.9114344), wk =   0.0145455
        k(    7) = (   0.0000000   0.2317155   0.0000000), wk =   0.0436364
        k(    8) = (   0.0000000   0.2317155   0.1822869), wk =   0.0872727
        k(    9) = (   0.0000000   0.2317155   0.3645738), wk =   0.0872727
        k(   10) = (   0.0000000   0.2317155   0.5468606), wk =   0.0872727
        k(   11) = (   0.0000000   0.2317155   0.7291475), wk =   0.0872727
        k(   12) = (   0.0000000   0.2317155   0.9114344), wk =   0.0872727
        k(   13) = (   0.0000000   0.4634310   0.0000000), wk =   0.0436364
        k(   14) = (   0.0000000   0.4634310   0.1822869), wk =   0.0872727
        k(   15) = (   0.0000000   0.4634310   0.3645738), wk =   0.0872727
        k(   16) = (   0.0000000   0.4634310   0.5468606), wk =   0.0872727
        k(   17) = (   0.0000000   0.4634310   0.7291475), wk =   0.0872727
        k(   18) = (   0.0000000   0.4634310   0.9114344), wk =   0.0872727
        k(   19) = (   0.2006715   0.3475733   0.0000000), wk =   0.0436364
        k(   20) = (   0.2006715   0.3475733   0.1822869), wk =   0.0872727
        k(   21) = (   0.2006715   0.3475733   0.3645738), wk =   0.0872727
        k(   22) = (   0.2006715   0.3475733   0.5468606), wk =   0.0872727
        k(   23) = (   0.2006715   0.3475733   0.7291475), wk =   0.0872727
        k(   24) = (   0.2006715   0.3475733   0.9114344), wk =   0.0872727
        k(   25) = (   0.2006715   0.5792888   0.0000000), wk =   0.0436364
        k(   26) = (   0.2006715   0.5792888   0.1822869), wk =   0.0872727
        k(   27) = (   0.2006715   0.5792888   0.3645738), wk =   0.0872727
        k(   28) = (   0.2006715   0.5792888   0.5468606), wk =   0.0872727
        k(   29) = (   0.2006715   0.5792888   0.7291475), wk =   0.0872727
        k(   30) = (   0.2006715   0.5792888   0.9114344), wk =   0.0872727

     Dense  grid:    27967 G-vectors     FFT dimensions: (  50,  50,  25)

     Estimated max dynamical RAM per process >      17.04 MB

     Estimated total dynamical RAM >     136.33 MB

     Initial potential from superposition of free atoms

     starting charge      14.9936, renormalised to      15.0000
     Starting wfcs are   14 randomized atomic wfcs

     total cpu time spent up to now is       11.0 secs

     Self-consistent Calculation

     iteration #  1     ecut=    80.00 Ry     beta= 0.70
     Davidson diagonalization with overlap
     c_bands:  2 eigenvalues not converged
     c_bands:  2 eigenvalues not converged
     c_bands:  1 eigenvalues not converged
     c_bands:  1 eigenvalues not converged
     c_bands:  1 eigenvalues not converged
     c_bands:  1 eigenvalues not converged
     c_bands:  1 eigenvalues not converged
     c_bands:  1 eigenvalues not converged
     c_bands:  1 eigenvalues not converged
     c_bands:  2 eigenvalues not converged
     c_bands:  1 eigenvalues not converged
     c_bands:  1 eigenvalues not converged
     c_bands:  2 eigenvalues not converged
     c_bands:  1 eigenvalues not converged
     c_bands:  1 eigenvalues not converged
     c_bands:  2 eigenvalues not converged
     c_bands:  1 eigenvalues not converged
     c_bands:  2 eigenvalues not converged
     c_bands:  1 eigenvalues not converged
     c_bands:  1 eigenvalues not converged
     ethr =  1.00E-06,  avg # of iterations = 19.4

     total cpu time spent up to now is       12.3 secs

     total energy              =     -39.65902406 Ry
     estimated scf accuracy    <       0.01668993 Ry

     iteration #  2     ecut=    80.00 Ry     beta= 0.70
     Davidson diagonalization with overlap
     ethr =  1.11E-04,  avg # of iterations =  1.2

     total cpu time spent up to now is       12.6 secs

     total energy              =     -39.65902462 Ry
     estimated scf accuracy    <       0.00138258 Ry

     iteration #  3     ecut=    80.00 Ry     beta= 0.70
     Davidson diagonalization with overlap
     ethr =  9.22E-06,  avg # of iterations =  1.6

     total cpu time spent up to now is       12.9 secs

     total energy              =     -39.65904721 Ry
     estimated scf accuracy    <       0.00001977 Ry

     iteration #  4     ecut=    80.00 Ry     beta= 0.70
     Davidson diagonalization with overlap
     ethr =  1.32E-07,  avg # of iterations =  2.4

     total cpu time spent up to now is       13.2 secs

     total energy              =     -39.65905180 Ry
     estimated scf accuracy    <       0.00000074 Ry

     iteration #  5     ecut=    80.00 Ry     beta= 0.70
     Davidson diagonalization with overlap
     ethr =  4.96E-09,  avg # of iterations =  2.0

     total cpu time spent up to now is       13.5 secs

     total energy              =     -39.65905194 Ry
     estimated scf accuracy    <          5.7E-09 Ry

     iteration #  6     ecut=    80.00 Ry     beta= 0.70
     Davidson diagonalization with overlap
     ethr =  3.79E-11,  avg # of iterations =  4.2

     total cpu time spent up to now is       14.0 secs

     total energy              =     -39.65905194 Ry
     estimated scf accuracy    <          3.0E-10 Ry

     iteration #  7     ecut=    80.00 Ry     beta= 0.70
     Davidson diagonalization with overlap
     ethr =  1.98E-12,  avg # of iterations =  1.7

     total cpu time spent up to now is       14.2 secs

     End of self-consistent calculation

          k = 0.0000 0.0000 0.0000 (  3517 PWs)   bands (ev):

   -34.2374  -3.3006   3.5974   4.9104   4.9104   5.9441   5.9441  12.0364
    19.6800  21.3134  21.3486  21.6062

          k = 0.0000 0.0000 0.1823 (  3499 PWs)   bands (ev):

   -34.2288  -3.0841   3.7966   5.1261   5.1261   6.1540   6.1540  12.1250
    16.9522  21.0092  21.0092  21.4927

          k = 0.0000 0.0000 0.3646 (  3493 PWs)   bands (ev):

   -34.2059  -2.4372   4.3899   5.7678   5.7678   6.7819   6.7819  12.2157
    13.7020  19.6959  19.6959  21.2510

          k = 0.0000 0.0000 0.5469 (  3516 PWs)   bands (ev):

   -34.1757  -1.3680   5.3580   6.8180   6.8180   7.8210   7.8210  10.0030
    13.0679  17.4823  17.4823  17.7807

          k = 0.0000 0.0000 0.7291 (  3510 PWs)   bands (ev):

   -34.1479   0.1042   6.6328   7.0843   8.2336   8.2336   9.2436   9.2436
    13.4549  14.8145  15.0238  15.0238

          k = 0.0000 0.0000 0.9114 (  3504 PWs)   bands (ev):

   -34.1313   1.8877   4.5534   7.8915   9.8257   9.8257  10.8642  10.8642
    12.7056  12.8543  12.8543  13.7349

          k = 0.0000 0.2317 0.0000 (  3509 PWs)   bands (ev):

   -34.2373  -3.0137   1.7807   3.9637   5.1081   7.5526   7.8205  12.8413
    17.3224  17.8589  20.5525  21.8834

          k = 0.0000 0.2317 0.1823 (  3501 PWs)   bands (ev):

   -34.2288  -2.7968   1.9921   4.1799   5.3065   7.7597   8.0137  12.9700
    16.6706  17.4314  19.1803  22.1667

          k = 0.0000 0.2317 0.3646 (  3496 PWs)   bands (ev):

   -34.2058  -2.1485   2.6230   4.8251   5.8967   8.3762   8.5794  13.1288
    13.8391  17.5682  18.0790  20.5231

          k = 0.0000 0.2317 0.5469 (  3500 PWs)   bands (ev):

   -34.1757  -1.0768   3.6620   5.8886   6.8546   9.3809   9.4342  10.3619
    13.9899  15.5454  16.6375  18.9566

          k = 0.0000 0.2317 0.7291 (  3521 PWs)   bands (ev):

   -34.1479   0.3995   5.0788   7.3217   7.3468   8.1858  10.2384  10.6710
    13.2904  14.4140  14.4800  16.2317

          k = 0.0000 0.2317 0.9114 (  3533 PWs)   bands (ev):

   -34.1313   2.1949   4.8215   6.7434   8.9789   9.1258   9.7414  11.0460
    13.2465  13.3443  13.8210  15.1747

          k = 0.0000 0.4634 0.0000 (  3502 PWs)   bands (ev):

   -34.2371  -2.2509  -0.1159   3.2974   5.0148  10.1613  10.5809  13.5879
    13.8743  16.1873  20.3624  20.8380

          k = 0.0000 0.4634 0.1823 (  3504 PWs)   bands (ev):

   -34.2286  -2.0322   0.0973   3.5145   5.1994  10.3604  10.7503  13.7575
    13.9663  16.1156  18.5374  20.5631

          k = 0.0000 0.4634 0.3646 (  3504 PWs)   bands (ev):

   -34.2057  -1.3786   0.7339   4.1630   5.7471  10.9478  11.2003  13.6035
    14.2172  15.0929  16.7642  18.7958

          k = 0.0000 0.4634 0.5469 (  3493 PWs)   bands (ev):

   -34.1756  -0.2977   1.7849   5.2339   6.6311  10.9925  11.4693  11.8653
    13.9678  14.6314  16.5971  17.8717

          k = 0.0000 0.4634 0.7291 (  3494 PWs)   bands (ev):

   -34.1478   1.1940   3.2283   6.7092   7.7077   8.2109   9.7780  12.4576
    14.1764  14.2435  15.7030  17.5234

          k = 0.0000 0.4634 0.9114 (  3499 PWs)   bands (ev):

   -34.1313   3.0300   4.9590   5.5723   7.5103   8.5450   8.8597  10.7142
    13.8801  15.1803  15.4981  17.4376

          k = 0.2007 0.3476 0.0000 (  3491 PWs)   bands (ev):

   -34.2372  -2.4638   0.3540   2.8949   6.1436   7.9170  10.7955  13.2737
    15.0982  17.8377  18.0050  22.4178

          k = 0.2007 0.3476 0.1823 (  3504 PWs)   bands (ev):

   -34.2286  -2.2460   0.5696   3.0999   6.3482   8.1010  10.9768  13.4386
    15.1823  17.0303  17.8277  20.8372

          k = 0.2007 0.3476 0.3646 (  3507 PWs)   bands (ev):

   -34.2057  -1.5949   1.2137   3.7108   6.9570   8.6397  11.4796  13.5019
    14.4905  15.6832  16.9474  19.9614

          k = 0.2007 0.3476 0.5469 (  3493 PWs)   bands (ev):

   -34.1756  -0.5186   2.2775   4.7127   7.9446   9.4680  10.8359  11.9309
    14.6077  14.7864  15.7462  18.3657

          k = 0.2007 0.3476 0.7291 (  3496 PWs)   bands (ev):

   -34.1479   0.9657   3.7411   6.0588   7.9415   9.0939  10.2910  10.7196
    13.5546  14.7066  16.1265  17.0529

          k = 0.2007 0.3476 0.9114 (  3505 PWs)   bands (ev):

   -34.1313   2.7838   5.3382   5.5248   7.7005   7.9220   9.7911  11.0677
    13.2359  14.7230  15.6511  16.1123

          k = 0.2007 0.5793 0.0000 (  3506 PWs)   bands (ev):

   -34.2371  -1.7293  -0.7751   2.4483   6.5375   9.1425  11.2709  13.7890
    14.6885  17.2263  18.1388  19.1682

          k = 0.2007 0.5793 0.1823 (  3503 PWs)   bands (ev):

   -34.2286  -1.5099  -0.5589   2.6498   6.7347   9.3410  11.4115  13.9509
    14.7079  17.3750  17.5927  19.2147

          k = 0.2007 0.5793 0.3646 (  3502 PWs)   bands (ev):

   -34.2057  -0.8539   0.0871   3.2499   7.3199   9.9214  11.7604  14.0849
    14.3116  15.5210  18.0770  18.2943

          k = 0.2007 0.5793 0.5469 (  3497 PWs)   bands (ev):

   -34.1756   0.2313   1.1545   4.2337   8.2603  10.6321  11.6715  11.9819
    12.7554  15.7651  17.1570  18.0267

          k = 0.2007 0.5793 0.7291 (  3497 PWs)   bands (ev):

   -34.1478   1.7308   2.6247   5.5620   8.6099   9.1474   9.6997  11.7872
    12.4430  16.2284  16.9503  17.3606

          k = 0.2007 0.5793 0.9114 (  3490 PWs)   bands (ev):

   -34.1313   3.5900   4.4206   6.0591   6.8262   7.1847   9.4660  11.4636
    13.7979  15.1409  17.1300  17.9160

     the Fermi energy is    12.0974 ev

!    total energy              =     -39.65905194 Ry
     estimated scf accuracy    <          4.8E-12 Ry
     smearing contrib. (-TS)   =       0.00082446 Ry
     internal energy E=F+TS    =     -39.65987641 Ry

     The total energy is F=E-TS. E is the sum of the following terms:
     one-electron contribution =       9.78357262 Ry
     hartree contribution      =       2.98663026 Ry
     xc contribution           =     -13.45361243 Ry
     ewald contribution        =     -38.97646686 Ry

     convergence has been achieved in   7 iterations

     Forces acting on atoms (cartesian axes, Ry/au):

     atom    1 type  1   force =     0.00000000    0.00000000    0.00000000
     atom    2 type  2   force =     0.00000000   -0.00000000   -0.00000000
     atom    3 type  2   force =     0.00000000    0.00000000    0.00000000
     atom    4 type  2   force =    -0.00000000   -0.00000000    0.00000000
     The non-local contrib.  to forces
     atom    1 type  1   force =     0.00000000   -0.00000000    0.00000000
     atom    2 type  2   force =     0.00000000   -0.00000000    0.00000000
     atom    3 type  2   force =    -0.00000000   -0.00000000    0.00000000
     atom    4 type  2   force =    -0.00000000   -0.00000000   -0.00000000
     The ionic contribution  to forces
     atom    1 type  1   force =    -0.00000000   -0.00000000   -0.00000000
     atom    2 type  2   force =     0.00000000   -0.00000000   -0.00000000
     atom    3 type  2   force =     0.00000000   -0.00000000    0.00000000
     atom    4 type  2   force =    -0.00000000    0.00000000   -0.00000000
     The local contribution  to forces
     atom    1 type  1   force =    -0.00000000   -0.00000000   -0.00000000
     atom    2 type  2   force =    -0.00000000    0.00000000    0.00000000
     atom    3 type  2   force =     0.00000000    0.00000000   -0.00000000
     atom    4 type  2   force =     0.00000000    0.00000000    0.00000000
     The core correction contribution to forces
     atom    1 type  1   force =     0.00000000    0.00000000    0.00000000
     atom    2 type  2   force =     0.00000000   -0.00000000    0.00000000
     atom    3 type  2   force =    -0.00000000   -0.00000000   -0.00000000
     atom    4 type  2   force =     0.00000000   -0.00000000   -0.00000000
     The Hubbard contrib.    to forces
     atom    1 type  1   force =     0.00000000    0.00000000    0.00000000
     atom    2 type  2   force =     0.00000000    0.00000000    0.00000000
     atom    3 type  2   force =     0.00000000    0.00000000    0.00000000
     atom    4 type  2   force =     0.00000000    0.00000000    0.00000000
     The SCF correction term to forces
     atom    1 type  1   force =     0.00000000   -0.00000000    0.00000000
     atom    2 type  2   force =    -0.00000000   -0.00000000    0.00000000
     atom    3 type  2   force =     0.00000000    0.00000000   -0.00000000
     atom    4 type  2   force =    -0.00000000    0.00000000   -0.00000000

     Total force =     0.000000     Total SCF correction =     0.000000


     Computing stress (Cartesian axis) and pressure

          total   stress  (Ry/bohr**3)                   (kbar)     P=      500.83
   0.00340523   0.00000000   0.00000000          500.93        0.00        0.00
   0.00000000   0.00340523   0.00000000            0.00      500.93        0.00
   0.00000000   0.00000000   0.00340317            0.00        0.00      500.62


     Writing all to output data dir ./output/LiSi.save/

     init_run     :      0.81s CPU      1.03s WALL (       2 calls)
     electrons    :      8.41s CPU      9.53s WALL (       4 calls)
     update_pot   :      0.62s CPU      0.65s WALL (       2 calls)
     forces       :      0.77s CPU      0.83s WALL (       4 calls)
     stress       :      2.62s CPU      2.75s WALL (       4 calls)

     Called by init_run:
     wfcinit      :      0.24s CPU      0.24s WALL (       2 calls)
     potinit      :      0.27s CPU      0.33s WALL (       2 calls)
     hinit0       :      0.28s CPU      0.36s WALL (       2 calls)

     Called by electrons:
     c_bands      :      7.16s CPU      7.85s WALL (      23 calls)
     sum_band     :      0.95s CPU      1.04s WALL (      23 calls)
     v_of_rho     :      0.28s CPU      0.63s WALL (      25 calls)
     mix_rho      :      0.04s CPU      0.07s WALL (      23 calls)

     Called by c_bands:
     init_us_2    :      0.21s CPU      0.24s WALL (    1680 calls)
     init_us_2:cp :      0.21s CPU      0.23s WALL (    1680 calls)
     cegterg      :      6.59s CPU      6.83s WALL (     690 calls)

     Called by *egterg:
     cdiaghg      :      0.53s CPU      0.54s WALL (    3138 calls)
     h_psi        :      5.58s CPU      5.78s WALL (    3318 calls)
     g_psi        :      0.03s CPU      0.03s WALL (    2568 calls)

     Called by h_psi:
     h_psi:calbec :      0.38s CPU      0.40s WALL (    3318 calls)
     vloc_psi     :      4.87s CPU      5.05s WALL (    3318 calls)
     add_vuspsi   :      0.31s CPU      0.31s WALL (    3318 calls)

     General routines
     calbec       :      0.51s CPU      0.54s WALL (    3918 calls)
     fft          :      0.45s CPU      0.96s WALL (     350 calls)
     ffts         :      0.03s CPU      0.04s WALL (      23 calls)
     fftw         :      4.96s CPU      5.13s WALL (   59766 calls)

     Parallel routines

     PWSCF        :     13.46s CPU     15.27s WALL


   This run was terminated on:  12: 4:45  29Dec2024            

=------------------------------------------------------------------------------=
   JOB DONE.
=------------------------------------------------------------------------------=
