
     Program PWSCF v.7.2 starts on 29Dec2024 at 11:31:35 

     This program is part of the open-source Quantum ESPRESSO suite
     for quantum simulation of materials; please cite
         "P. Giannozzi et al., J. Phys.:Condens. Matter 21 395502 (2009);
         "P. Giannozzi et al., J. Phys.:Condens. Matter 29 465901 (2017);
         "P. Giannozzi et al., J. Chem. Phys. 152 154105 (2020);
          URL http://www.quantum-espresso.org", 
     in publications or presentations arising from this work. More details at
     http://www.quantum-espresso.org/quote

     Parallel version (MPI & OpenMP), running on       8 processor cores
     Number of MPI processes:                 8
     Threads/MPI process:                     1

     MPI processes distributed on     1 nodes
     482232 MiB available memory on the printing compute node when the environment starts

     Waiting for input...
     Reading input from standard input

     Current dimensions of program PWSCF are:
     Max number of different atomic species (ntypx) = 10
     Max number of k-points (npk) =  40000
     Max angular momentum in pseudopotentials (lmaxx) =  4

     R & G space division:  proc/nbgrp/npool/nimage =       8
     Subspace diagonalization in iterative solution of the eigenvalue problem:
     a serial algorithm will be used


     Parallelization info
     --------------------
     sticks:   dense  smooth     PW     G-vecs:    dense   smooth      PW
     Min         109     109     32                 2422     2422     389
     Max         111     111     34                 2423     2423     390
     Sum         877     877    261                19381    19381    3119

     Using Slab Decomposition



     bravais-lattice index     =            1
     lattice parameter (alat)  =       5.8517  a.u.
     unit-cell volume          =     200.3750 (a.u.)^3
     number of atoms/cell      =            4
     number of atomic types    =            2
     number of electrons       =        13.00
     number of Kohn-Sham states=           11
     kinetic-energy cutoff     =      80.0000  Ry
     charge density cutoff     =     320.0000  Ry
     scf convergence threshold =      1.0E-08
     mixing beta               =       0.7000
     number of iterations used =            8  plain     mixing
     energy convergence thresh.=      1.0E-04
     force convergence thresh. =      1.0E-03
     press convergence thresh. =      1.0E+00
     Exchange-correlation= PBE
                           (   1   4   3   4   0   0   0)
     nstep                     =           50


     celldm(1)=   5.851688  celldm(2)=   0.000000  celldm(3)=   0.000000
     celldm(4)=   0.000000  celldm(5)=   0.000000  celldm(6)=   0.000000

     crystal axes: (cart. coord. in units of alat)
               a(1) = (   1.000000   0.000000   0.000000 )  
               a(2) = (   0.000000   1.000000   0.000000 )  
               a(3) = (   0.000000   0.000000   1.000000 )  

     reciprocal axes: (cart. coord. in units 2 pi/alat)
               b(1) = (  1.000000  0.000000  0.000000 )  
               b(2) = (  0.000000  1.000000  0.000000 )  
               b(3) = (  0.000000  0.000000  1.000000 )  


     PseudoPot. # 1 for Li read from file:
     ../pseudo/Li_ONCV_PBE_sr.upf
     MD5 check sum: 50ff420e78310ffa21704f3361e624a4
     Pseudo is Norm-conserving, Zval =  3.0
     Generated using ONCVPSP code by D. R. Hamann
     Using radial grid of 1944 points,  4 beta functions with: 
                l(1) =   0
                l(2) =   0
                l(3) =   1
                l(4) =   1

     PseudoPot. # 2 for Si read from file:
     ../pseudo/Si_ONCV_PBE_sr.upf
     MD5 check sum: e543d271109d17c80368dfa7c482276d
     Pseudo is Norm-conserving + core correction, Zval =  4.0
     Generated using ONCVPSP code by D. R. Hamann
     Using radial grid of 1510 points,  6 beta functions with: 
                l(1) =   0
                l(2) =   0
                l(3) =   1
                l(4) =   1
                l(5) =   2
                l(6) =   2

     atomic species   valence    mass     pseudopotential
        Li             3.00     6.94100     Li( 1.00)
        Si             4.00    28.08550     Si( 1.00)

     48 Sym. Ops., with inversion, found



   Cartesian axes

     site n.     atom                  positions (alat units)
         1           Li  tau(   1) = (   0.0000000   0.0000000   0.5000000  )
         2           Li  tau(   2) = (   0.5000000   0.0000000   0.0000000  )
         3           Li  tau(   3) = (   0.0000000   0.5000000   0.0000000  )
         4           Si  tau(   4) = (   0.5000000   0.5000000   0.5000000  )

     number of k points=    20  Marzari-Vanderbilt smearing, width (Ry)=  0.0200
                       cart. coord. in units 2pi/alat
        k(    1) = (   0.0000000   0.0000000   0.0000000), wk =   0.0058309
        k(    2) = (   0.0000000   0.0000000   0.1428571), wk =   0.0349854
        k(    3) = (   0.0000000   0.0000000   0.2857143), wk =   0.0349854
        k(    4) = (   0.0000000   0.0000000   0.4285714), wk =   0.0349854
        k(    5) = (   0.0000000   0.1428571   0.1428571), wk =   0.0699708
        k(    6) = (   0.0000000   0.1428571   0.2857143), wk =   0.1399417
        k(    7) = (   0.0000000   0.1428571   0.4285714), wk =   0.1399417
        k(    8) = (   0.0000000   0.2857143   0.2857143), wk =   0.0699708
        k(    9) = (   0.0000000   0.2857143   0.4285714), wk =   0.1399417
        k(   10) = (   0.0000000   0.4285714   0.4285714), wk =   0.0699708
        k(   11) = (   0.1428571   0.1428571   0.1428571), wk =   0.0466472
        k(   12) = (   0.1428571   0.1428571   0.2857143), wk =   0.1399417
        k(   13) = (   0.1428571   0.1428571   0.4285714), wk =   0.1399417
        k(   14) = (   0.1428571   0.2857143   0.2857143), wk =   0.1399417
        k(   15) = (   0.1428571   0.2857143   0.4285714), wk =   0.2798834
        k(   16) = (   0.1428571   0.4285714   0.4285714), wk =   0.1399417
        k(   17) = (   0.2857143   0.2857143   0.2857143), wk =   0.0466472
        k(   18) = (   0.2857143   0.2857143   0.4285714), wk =   0.1399417
        k(   19) = (   0.2857143   0.4285714   0.4285714), wk =   0.1399417
        k(   20) = (   0.4285714   0.4285714   0.4285714), wk =   0.0466472

     Dense  grid:    19381 G-vectors     FFT dimensions: (  36,  36,  36)

     Estimated max dynamical RAM per process >      14.51 MB

     Estimated total dynamical RAM >     116.04 MB

     Initial potential from superposition of free atoms

     starting charge      12.9857, renormalised to      13.0000
     Starting wfcs are   10 randomized atomic wfcs +    1 random wfcs

     total cpu time spent up to now is        0.7 secs

     Self-consistent Calculation

     iteration #  1     ecut=    80.00 Ry     beta= 0.70
     Davidson diagonalization with overlap
     ethr =  1.00E-02,  avg # of iterations =  6.0

     Threshold (ethr) on eigenvalues was too large:
     Diagonalizing with lowered threshold

     Davidson diagonalization with overlap
     ethr =  8.49E-05,  avg # of iterations =  3.5

     total cpu time spent up to now is        1.4 secs

     total energy              =     -51.35864021 Ry
     estimated scf accuracy    <       0.01082368 Ry

     iteration #  2     ecut=    80.00 Ry     beta= 0.70
     Davidson diagonalization with overlap
     ethr =  8.33E-05,  avg # of iterations =  1.0

     total cpu time spent up to now is        1.6 secs

     total energy              =     -51.35890212 Ry
     estimated scf accuracy    <       0.00082349 Ry

     iteration #  3     ecut=    80.00 Ry     beta= 0.70
     Davidson diagonalization with overlap
     ethr =  6.33E-06,  avg # of iterations =  2.1

     total cpu time spent up to now is        1.9 secs

     total energy              =     -51.35895951 Ry
     estimated scf accuracy    <       0.00008707 Ry

     iteration #  4     ecut=    80.00 Ry     beta= 0.70
     Davidson diagonalization with overlap
     ethr =  6.70E-07,  avg # of iterations =  2.1

     total cpu time spent up to now is        2.1 secs

     total energy              =     -51.35897460 Ry
     estimated scf accuracy    <       0.00000149 Ry

     iteration #  5     ecut=    80.00 Ry     beta= 0.70
     Davidson diagonalization with overlap
     ethr =  1.14E-08,  avg # of iterations =  2.0

     total cpu time spent up to now is        2.3 secs

     End of self-consistent calculation

          k = 0.0000 0.0000 0.0000 (  2469 PWs)   bands (ev):

   -36.0162 -35.4454 -35.4454  -0.5078   9.0127   9.0127   9.0127  15.0322
    15.0322  16.0089  23.4120

          k = 0.0000 0.0000 0.1429 (  2445 PWs)   bands (ev):

   -35.9898 -35.4692 -35.4440  -0.3941   7.8816   9.2986   9.2986  14.6605
    15.5455  17.2507  19.9116

          k = 0.0000 0.0000 0.2857 (  2421 PWs)   bands (ev):

   -35.9186 -35.5347 -35.4410  -0.0951   6.1423  10.1402  10.1402  13.9625
    15.4854  16.7227  16.7227

          k = 0.0000 0.0000 0.4286 (  2404 PWs)   bands (ev):

   -35.8340 -35.6147 -35.4387   0.2127   5.0181  11.3863  11.3863  13.4938
    14.2952  14.2952  15.3917

          k = 0.0000 0.1429 0.1429 (  2428 PWs)   bands (ev):

   -35.9644 -35.4788 -35.4559  -0.2706   8.0043   8.1804   9.5840  14.4652
    16.8144  17.1787  19.1618

          k = 0.0000 0.1429 0.2857 (  2426 PWs)   bands (ev):

   -35.8960 -35.5361 -35.4579   0.0558   6.2796   8.6937  10.4234  13.2173
    16.3767  17.0042  18.1408

          k = 0.0000 0.1429 0.4286 (  2427 PWs)   bands (ev):

   -35.8139 -35.6128 -35.4561   0.3955   5.1150   9.4607  11.6633  12.0147
    14.5855  15.7204  17.8467

          k = 0.0000 0.2857 0.2857 (  2424 PWs)   bands (ev):

   -35.8348 -35.5533 -35.4923   0.4594   6.5489   6.8395  11.2552  11.3245
    17.7156  17.8094  17.8297

          k = 0.0000 0.2857 0.4286 (  2413 PWs)   bands (ev):

   -35.7590 -35.6092 -35.5046   0.8941   5.3965   7.2262   9.9811  12.4759
    15.4294  17.5270  18.9392

          k = 0.0000 0.4286 0.4286 (  2428 PWs)   bands (ev):

   -35.6857 -35.6126 -35.5664   1.4586   5.7102   5.8047   8.7153  13.6602
    16.5938  16.6241  17.8888

          k = 0.1429 0.1429 0.1429 (  2421 PWs)   bands (ev):

   -35.9402 -35.4774 -35.4774  -0.1372   8.1545   8.1545   8.5675  16.0582
    16.0582  16.2760  19.4497

          k = 0.1429 0.1429 0.2857 (  2417 PWs)   bands (ev):

   -35.8748 -35.5367 -35.4742   0.2167   6.3951   8.5333   9.1913  14.1774
    14.8918  18.3338  18.5766

          k = 0.1429 0.1429 0.4286 (  2422 PWs)   bands (ev):

   -35.7956 -35.6110 -35.4716   0.5895   5.1962   8.8951  10.3909  12.1310
    14.1695  17.4940  19.2307

          k = 0.1429 0.2857 0.2857 (  2417 PWs)   bands (ev):

   -35.8172 -35.5517 -35.5069   0.6492   6.5626   6.9183   9.3147  12.5667
    15.8429  16.7228  19.7719

          k = 0.1429 0.2857 0.4286 (  2419 PWs)   bands (ev):

   -35.7453 -35.6075 -35.5152   1.1220   5.4276   7.1295   9.5371  11.6220
    14.8825  17.4960  19.7323

          k = 0.1429 0.4286 0.4286 (  2426 PWs)   bands (ev):

   -35.6783 -35.6108 -35.5706   1.7376   5.6582   5.7741   8.6763  11.8988
    15.8395  16.2111  18.6659

          k = 0.2857 0.2857 0.2857 (  2431 PWs)   bands (ev):

   -35.7692 -35.5481 -35.5481   1.1669   6.5904   6.5904   8.1566  11.8598
    15.4390  15.4390  19.9263

          k = 0.2857 0.2857 0.4286 (  2417 PWs)   bands (ev):

   -35.7079 -35.6040 -35.5452   1.7588   5.5081   6.6094   8.7175  10.2952
    14.7674  16.2109  18.5115

          k = 0.2857 0.4286 0.4286 (  2415 PWs)   bands (ev):

   -35.6582 -35.6069 -35.5833   2.5450   5.5398   5.6801   8.5224   9.3271
    15.2388  15.5605  16.9779

          k = 0.4286 0.4286 0.4286 (  2404 PWs)   bands (ev):

   -35.6318 -35.6037 -35.6037   3.6804   5.4434   5.4434   7.2171   8.5950
    15.1648  15.1648  15.8115

     the Fermi energy is     9.4629 ev

!    total energy              =     -51.35897478 Ry
     estimated scf accuracy    <          7.8E-09 Ry
     smearing contrib. (-TS)   =      -0.00125657 Ry
     internal energy E=F+TS    =     -51.35771821 Ry

     The total energy is F=E-TS. E is the sum of the following terms:
     one-electron contribution =     -12.24155866 Ry
     hartree contribution      =       8.28550417 Ry
     xc contribution           =     -14.00933386 Ry
     ewald contribution        =     -33.39232987 Ry

     convergence has been achieved in   5 iterations

     Forces acting on atoms (cartesian axes, Ry/au):

     atom    1 type  1   force =     0.00000000    0.00000000    0.00000000
     atom    2 type  1   force =     0.00000000    0.00000000    0.00000000
     atom    3 type  1   force =     0.00000000    0.00000000    0.00000000
     atom    4 type  2   force =     0.00000000    0.00000000    0.00000000
     The non-local contrib.  to forces
     atom    1 type  1   force =     0.00000000    0.00000000    0.00000000
     atom    2 type  1   force =     0.00000000    0.00000000    0.00000000
     atom    3 type  1   force =     0.00000000    0.00000000    0.00000000
     atom    4 type  2   force =     0.00000000    0.00000000    0.00000000
     The ionic contribution  to forces
     atom    1 type  1   force =    -0.00000000   -0.00000000    0.00000000
     atom    2 type  1   force =     0.00000000   -0.00000000   -0.00000000
     atom    3 type  1   force =    -0.00000000    0.00000000   -0.00000000
     atom    4 type  2   force =     0.00000000    0.00000000    0.00000000
     The local contribution  to forces
     atom    1 type  1   force =     0.00000000    0.00000000    0.00000000
     atom    2 type  1   force =     0.00000000    0.00000000    0.00000000
     atom    3 type  1   force =     0.00000000    0.00000000    0.00000000
     atom    4 type  2   force =    -0.00000000   -0.00000000   -0.00000000
     The core correction contribution to forces
     atom    1 type  1   force =     0.00000000    0.00000000    0.00000000
     atom    2 type  1   force =     0.00000000    0.00000000    0.00000000
     atom    3 type  1   force =     0.00000000    0.00000000    0.00000000
     atom    4 type  2   force =    -0.00000000   -0.00000000   -0.00000000
     The Hubbard contrib.    to forces
     atom    1 type  1   force =     0.00000000    0.00000000    0.00000000
     atom    2 type  1   force =     0.00000000    0.00000000    0.00000000
     atom    3 type  1   force =     0.00000000    0.00000000    0.00000000
     atom    4 type  2   force =     0.00000000    0.00000000    0.00000000
     The SCF correction term to forces
     atom    1 type  1   force =     0.00000000    0.00000000   -0.00000000
     atom    2 type  1   force =     0.00000000   -0.00000000   -0.00000000
     atom    3 type  1   force =    -0.00000000   -0.00000000   -0.00000000
     atom    4 type  2   force =     0.00000000    0.00000000    0.00000000

     Total force =     0.000000     Total SCF correction =     0.000000


     Computing stress (Cartesian axis) and pressure

          total   stress  (Ry/bohr**3)                   (kbar)     P=      870.13
   0.00591499   0.00000000   0.00000000          870.13        0.00        0.00
   0.00000000   0.00591499   0.00000000            0.00      870.13        0.00
   0.00000000   0.00000000   0.00591499            0.00        0.00      870.13


     BFGS Geometry Optimization
     Energy error            =      0.0E+00 Ry
     Gradient error          =      0.0E+00 Ry/Bohr
     Cell gradient error     =      3.7E+02 kbar

     number of scf cycles    =   1
     number of bfgs steps    =   0

     enthalpy           new  =     -50.6779139820 Ry

     new trust radius        =       0.1780792783 bohr
ibrav =      1
 celldm(1) =      6.21976875
Input lattice vectors:
     1.06290159     0.00000000     0.00000000
     0.00000000     1.06290159     0.00000000
     0.00000000     0.00000000     1.06290159
New lattice vectors in INITIAL alat:
     1.06290159     0.00000000     0.00000000
     0.00000000     1.06290159     0.00000000
     0.00000000     0.00000000     1.06290159
New lattice vectors in NEW alat (for information only):
     1.00000000     0.00000000     0.00000000
     0.00000000     1.00000000     0.00000000
     0.00000000     0.00000000     1.00000000
Discrepancy in bohr =     0.000000    0.000000    0.000000
     new conv_thr            =       0.0000000100 Ry

     new unit-cell volume =    240.61501 a.u.^3 (    35.65547 Ang^3 )
     density =      2.27776 g/cm^3

CELL_PARAMETERS (alat=  5.85168826)
   1.062901589   0.000000000   0.000000000
   0.000000000   1.062901589   0.000000000
   0.000000000   0.000000000   1.062901589

ATOMIC_POSITIONS (crystal)
Li            0.0000000000        0.0000000000        0.5000000000
Li            0.5000000000        0.0000000000        0.0000000000
Li            0.0000000000        0.5000000000        0.0000000000
Si            0.5000000000        0.5000000000        0.5000000000



     Writing config-only to output data dir ./output/LiSi.save/
     NEW-OLD atomic charge density approx. for the potential
     extrapolated charge   15.17171, renormalised to   13.00000

     total cpu time spent up to now is        3.5 secs

     Self-consistent Calculation

     iteration #  1     ecut=    80.00 Ry     beta= 0.70
     Davidson diagonalization with overlap
     ethr =  1.00E-06,  avg # of iterations =  7.5

     total cpu time spent up to now is        4.0 secs

     total energy              =     -51.47873657 Ry
     estimated scf accuracy    <       0.01670666 Ry

     iteration #  2     ecut=    80.00 Ry     beta= 0.70
     Davidson diagonalization with overlap
     ethr =  1.29E-04,  avg # of iterations =  2.9

     total cpu time spent up to now is        4.2 secs

     total energy              =     -51.53712003 Ry
     estimated scf accuracy    <       0.02286038 Ry

     iteration #  3     ecut=    80.00 Ry     beta= 0.70
     Davidson diagonalization with overlap
     ethr =  1.29E-04,  avg # of iterations =  1.1

     total cpu time spent up to now is        4.4 secs

     total energy              =     -51.53832551 Ry
     estimated scf accuracy    <       0.00503964 Ry

     iteration #  4     ecut=    80.00 Ry     beta= 0.70
     Davidson diagonalization with overlap
     ethr =  3.88E-05,  avg # of iterations =  1.0

     total cpu time spent up to now is        4.5 secs

     total energy              =     -51.53872639 Ry
     estimated scf accuracy    <       0.00491678 Ry

     iteration #  5     ecut=    80.00 Ry     beta= 0.70
     Davidson diagonalization with overlap
     ethr =  3.78E-05,  avg # of iterations =  1.0

     total cpu time spent up to now is        4.7 secs

     total energy              =     -51.53534919 Ry
     estimated scf accuracy    <       0.00556233 Ry

     iteration #  6     ecut=    80.00 Ry     beta= 0.70
     Davidson diagonalization with overlap
     ethr =  3.78E-05,  avg # of iterations =  1.2

     total cpu time spent up to now is        4.8 secs

     total energy              =     -51.53576217 Ry
     estimated scf accuracy    <       0.00043143 Ry

     iteration #  7     ecut=    80.00 Ry     beta= 0.70
     Davidson diagonalization with overlap
     ethr =  3.32E-06,  avg # of iterations =  1.1

     total cpu time spent up to now is        4.9 secs

     total energy              =     -51.53579423 Ry
     estimated scf accuracy    <       0.00025755 Ry

     iteration #  8     ecut=    80.00 Ry     beta= 0.70
     Davidson diagonalization with overlap
     ethr =  1.98E-06,  avg # of iterations =  1.0

     total cpu time spent up to now is        5.1 secs

     total energy              =     -51.53582417 Ry
     estimated scf accuracy    <       0.00023358 Ry

     iteration #  9     ecut=    80.00 Ry     beta= 0.70
     Davidson diagonalization with overlap
     ethr =  1.80E-06,  avg # of iterations =  1.0

     total cpu time spent up to now is        5.2 secs

     total energy              =     -51.53582028 Ry
     estimated scf accuracy    <       0.00009796 Ry

     iteration # 10     ecut=    80.00 Ry     beta= 0.70
     Davidson diagonalization with overlap
     ethr =  7.54E-07,  avg # of iterations =  1.0

     total cpu time spent up to now is        5.3 secs

     total energy              =     -51.53582665 Ry
     estimated scf accuracy    <       0.00004804 Ry

     iteration # 11     ecut=    80.00 Ry     beta= 0.70
     Davidson diagonalization with overlap
     ethr =  3.70E-07,  avg # of iterations =  1.1

     total cpu time spent up to now is        5.5 secs

     total energy              =     -51.53582261 Ry
     estimated scf accuracy    <       0.00010876 Ry

     iteration # 12     ecut=    80.00 Ry     beta= 0.70
     Davidson diagonalization with overlap
     ethr =  3.70E-07,  avg # of iterations =  1.0

     total cpu time spent up to now is        5.6 secs

     total energy              =     -51.53582423 Ry
     estimated scf accuracy    <       0.00000993 Ry

     iteration # 13     ecut=    80.00 Ry     beta= 0.70
     Davidson diagonalization with overlap
     ethr =  7.64E-08,  avg # of iterations =  2.0

     total cpu time spent up to now is        5.7 secs

     total energy              =     -51.53582510 Ry
     estimated scf accuracy    <       0.00000009 Ry

     iteration # 14     ecut=    80.00 Ry     beta= 0.70
     Davidson diagonalization with overlap
     ethr =  6.89E-10,  avg # of iterations =  3.0

     total cpu time spent up to now is        5.9 secs

     total energy              =     -51.53582510 Ry
     estimated scf accuracy    <       0.00000026 Ry

     iteration # 15     ecut=    80.00 Ry     beta= 0.70
     Davidson diagonalization with overlap
     ethr =  6.89E-10,  avg # of iterations =  2.0

     total cpu time spent up to now is        6.1 secs

     total energy              =     -51.53582515 Ry
     estimated scf accuracy    <       0.00000002 Ry

     iteration # 16     ecut=    80.00 Ry     beta= 0.70
     Davidson diagonalization with overlap
     ethr =  1.47E-10,  avg # of iterations =  1.9

     total cpu time spent up to now is        6.2 secs

     total energy              =     -51.53582514 Ry
     estimated scf accuracy    <       0.00000003 Ry

     iteration # 17     ecut=    80.00 Ry     beta= 0.70
     Davidson diagonalization with overlap
     ethr =  1.47E-10,  avg # of iterations =  1.0

     total cpu time spent up to now is        6.3 secs

     total energy              =     -51.53582513 Ry
     estimated scf accuracy    <       0.00000002 Ry

     iteration # 18     ecut=    80.00 Ry     beta= 0.70
     Davidson diagonalization with overlap
     ethr =  1.27E-10,  avg # of iterations =  2.0

     total cpu time spent up to now is        6.4 secs

     End of self-consistent calculation

          k = 0.0000 0.0000 0.0000 (  2469 PWs)   bands (ev):

   -37.7386 -37.4095 -37.4095  -1.9633   7.1770   7.1770   7.1770  12.7933
    12.8378  12.8378  19.6169

          k = 0.0000 0.0000 0.1344 (  2445 PWs)   bands (ev):

   -37.7234 -37.4233 -37.4088  -1.8387   6.1018   7.4260   7.4260  12.5530
    12.8096  14.4969  16.9885

          k = 0.0000 0.0000 0.2688 (  2421 PWs)   bands (ev):

   -37.6826 -37.4610 -37.4074  -1.5094   4.4371   8.1505   8.1505  12.0080
    12.8242  14.1985  14.1985

          k = 0.0000 0.0000 0.4032 (  2404 PWs)   bands (ev):

   -37.6343 -37.5069 -37.4063  -1.1652   3.3382   9.1675   9.1675  11.6364
    12.1354  12.1354  12.8450

          k = 0.0000 0.1344 0.1344 (  2428 PWs)   bands (ev):

   -37.7089 -37.4289 -37.4157  -1.7078   6.2538   6.3360   7.6742  12.2389
    14.2537  14.4641  16.0396

          k = 0.0000 0.1344 0.2688 (  2426 PWs)   bands (ev):

   -37.6697 -37.4621 -37.4172  -1.3602   4.5800   6.8440   8.3962  11.1517
    13.8820  14.4447  15.1717

          k = 0.0000 0.1344 0.4032 (  2427 PWs)   bands (ev):

   -37.6229 -37.5062 -37.4164  -0.9937   3.4509   7.5480   9.4061  10.0391
    12.3937  13.3400  15.0988

          k = 0.0000 0.2688 0.2688 (  2424 PWs)   bands (ev):

   -37.6348 -37.4723 -37.4372  -0.9603   4.9176   5.0696   9.1088   9.4084
    14.7607  14.9916  15.3725

          k = 0.0000 0.2688 0.4032 (  2413 PWs)   bands (ev):

   -37.5914 -37.5046 -37.4446  -0.5279   3.7730   5.5193   8.1549  10.0946
    13.1451  14.6154  16.1738

          k = 0.0000 0.4032 0.4032 (  2428 PWs)   bands (ev):

   -37.5493 -37.5071 -37.4805  -0.0063   4.1477   4.2001   6.9510  11.0254
    14.1377  14.2793  14.8236

          k = 0.1344 0.1344 0.1344 (  2421 PWs)   bands (ev):

   -37.6950 -37.4282 -37.4282  -1.5703   6.3983   6.3983   6.6403  13.4232
    13.8367  13.8367  16.0502

          k = 0.1344 0.1344 0.2688 (  2417 PWs)   bands (ev):

   -37.6576 -37.4626 -37.4267  -1.2038   4.7083   6.7690   7.2365  11.7106
    12.7663  15.6107  15.7691

          k = 0.1344 0.1344 0.4032 (  2422 PWs)   bands (ev):

   -37.6124 -37.5054 -37.4255  -0.8137   3.5521   7.1349   8.3362   9.8673
    12.0194  14.9083  16.3319

          k = 0.1344 0.2688 0.2688 (  2417 PWs)   bands (ev):

   -37.6247 -37.4716 -37.4458  -0.7827   4.9589   5.1893   7.4314  10.2197
    13.3799  14.3145  16.6263

          k = 0.1344 0.2688 0.4032 (  2419 PWs)   bands (ev):

   -37.5836 -37.5039 -37.4509  -0.3214   3.8364   5.4930   7.7541   9.1648
    12.5840  14.8923  16.6897

          k = 0.1344 0.4032 0.4032 (  2426 PWs)   bands (ev):

   -37.5452 -37.5063 -37.4831   0.2404   4.1403   4.2164   6.9493   9.3463
    13.4226  13.8117  15.9007

          k = 0.2688 0.2688 0.2688 (  2431 PWs)   bands (ev):

   -37.5975 -37.4700 -37.4700  -0.2978   5.0552   5.0552   6.1971   9.4816
    13.0409  13.0409  17.0179

          k = 0.2688 0.2688 0.4032 (  2417 PWs)   bands (ev):

   -37.5624 -37.5024 -37.4686   0.2544   4.0011   5.1364   6.8254   8.0391
    12.3389  13.6759  15.7342

          k = 0.2688 0.4032 0.4032 (  2415 PWs)   bands (ev):

   -37.5341 -37.5044 -37.4909   0.9536   4.1224   4.2402   6.6984   7.1890
    12.7040  13.0217  14.2877

          k = 0.4032 0.4032 0.4032 (  2404 PWs)   bands (ev):

   -37.5192 -37.5030 -37.5030   1.9409   4.1069   4.1069   5.1412   6.9964
    12.5334  12.5334  13.1396

     the Fermi energy is     7.5513 ev

!    total energy              =     -51.53582514 Ry
     estimated scf accuracy    <          3.7E-10 Ry
     smearing contrib. (-TS)   =       0.00043760 Ry
     internal energy E=F+TS    =     -51.53626273 Ry

     The total energy is F=E-TS. E is the sum of the following terms:
     one-electron contribution =     -15.05632378 Ry
     hartree contribution      =       8.69098981 Ry
     xc contribution           =     -13.75472786 Ry
     ewald contribution        =     -31.41620090 Ry

     convergence has been achieved in  18 iterations

     Forces acting on atoms (cartesian axes, Ry/au):

     atom    1 type  1   force =     0.00000000    0.00000000    0.00000000
     atom    2 type  1   force =     0.00000000    0.00000000    0.00000000
     atom    3 type  1   force =     0.00000000    0.00000000    0.00000000
     atom    4 type  2   force =     0.00000000    0.00000000    0.00000000
     The non-local contrib.  to forces
     atom    1 type  1   force =     0.00000000    0.00000000    0.00000000
     atom    2 type  1   force =     0.00000000    0.00000000    0.00000000
     atom    3 type  1   force =     0.00000000    0.00000000    0.00000000
     atom    4 type  2   force =     0.00000000    0.00000000    0.00000000
     The ionic contribution  to forces
     atom    1 type  1   force =    -0.00000000   -0.00000000    0.00000000
     atom    2 type  1   force =     0.00000000   -0.00000000   -0.00000000
     atom    3 type  1   force =    -0.00000000    0.00000000   -0.00000000
     atom    4 type  2   force =     0.00000000    0.00000000    0.00000000
     The local contribution  to forces
     atom    1 type  1   force =     0.00000000    0.00000000    0.00000000
     atom    2 type  1   force =     0.00000000    0.00000000    0.00000000
     atom    3 type  1   force =     0.00000000    0.00000000    0.00000000
     atom    4 type  2   force =    -0.00000000   -0.00000000    0.00000000
     The core correction contribution to forces
     atom    1 type  1   force =     0.00000000    0.00000000    0.00000000
     atom    2 type  1   force =     0.00000000    0.00000000    0.00000000
     atom    3 type  1   force =     0.00000000    0.00000000    0.00000000
     atom    4 type  2   force =    -0.00000000   -0.00000000   -0.00000000
     The Hubbard contrib.    to forces
     atom    1 type  1   force =     0.00000000    0.00000000    0.00000000
     atom    2 type  1   force =     0.00000000    0.00000000    0.00000000
     atom    3 type  1   force =     0.00000000    0.00000000    0.00000000
     atom    4 type  2   force =     0.00000000    0.00000000    0.00000000
     The SCF correction term to forces
     atom    1 type  1   force =    -0.00000000   -0.00000000   -0.00000000
     atom    2 type  1   force =    -0.00000000   -0.00000000   -0.00000000
     atom    3 type  1   force =    -0.00000000    0.00000000   -0.00000000
     atom    4 type  2   force =    -0.00000000    0.00000000    0.00000000

     Total force =     0.000000     Total SCF correction =     0.000000


     Computing stress (Cartesian axis) and pressure

          total   stress  (Ry/bohr**3)                   (kbar)     P=      464.26
   0.00315600   0.00000000   0.00000000          464.26        0.00        0.00
   0.00000000   0.00315600   0.00000000            0.00      464.26        0.00
   0.00000000   0.00000000   0.00315600            0.00        0.00      464.26

     Energy error            =      4.0E-02 Ry
     Gradient error          =      0.0E+00 Ry/Bohr
     Cell gradient error     =      3.6E+01 kbar

     number of scf cycles    =   2
     number of bfgs steps    =   1

     enthalpy           old  =     -50.6779139820 Ry
     enthalpy           new  =     -50.7179913443 Ry

     CASE: enthalpy          _new < enthalpy          _old

     new trust radius        =       0.0180568772 bohr
ibrav =      1
 celldm(1) =      6.18356734
Input lattice vectors:
     1.05671510     0.00000000     0.00000000
     0.00000000     1.05671510     0.00000000
     0.00000000     0.00000000     1.05671510
New lattice vectors in INITIAL alat:
     1.05671510     0.00000000     0.00000000
     0.00000000     1.05671510     0.00000000
     0.00000000     0.00000000     1.05671510
New lattice vectors in NEW alat (for information only):
     1.00000000     0.00000000     0.00000000
     0.00000000     1.00000000     0.00000000
     0.00000000     0.00000000     1.00000000
Discrepancy in bohr =     0.000000    0.000000    0.000000
     new conv_thr            =            1.0E-10 Ry

     new unit-cell volume =    236.43800 a.u.^3 (    35.03650 Ang^3 )
     density =      2.31800 g/cm^3

CELL_PARAMETERS (alat=  5.85168826)
   1.056715099   0.000000000   0.000000000
   0.000000000   1.056715099   0.000000000
   0.000000000   0.000000000   1.056715099

ATOMIC_POSITIONS (crystal)
Li            0.0000000000        0.0000000000        0.5000000000
Li            0.5000000000        0.0000000000        0.0000000000
Li            0.0000000000        0.5000000000        0.0000000000
Si            0.5000000000        0.5000000000        0.5000000000



     Writing config-only to output data dir ./output/LiSi.save/
     NEW-OLD atomic charge density approx. for the potential
     extrapolated charge   12.77059, renormalised to   13.00000

     total cpu time spent up to now is        7.2 secs

     Self-consistent Calculation

     iteration #  1     ecut=    80.00 Ry     beta= 0.70
     Davidson diagonalization with overlap
     ethr =  1.00E-06,  avg # of iterations =  4.2

     total cpu time spent up to now is        7.5 secs

     total energy              =     -51.52160125 Ry
     estimated scf accuracy    <       0.00018247 Ry

     iteration #  2     ecut=    80.00 Ry     beta= 0.70
     Davidson diagonalization with overlap
     ethr =  1.40E-06,  avg # of iterations =  2.5

     total cpu time spent up to now is        7.7 secs

     total energy              =     -51.52221010 Ry
     estimated scf accuracy    <       0.00017725 Ry

     iteration #  3     ecut=    80.00 Ry     beta= 0.70
     Davidson diagonalization with overlap
     ethr =  1.36E-06,  avg # of iterations =  1.0

     total cpu time spent up to now is        7.8 secs

     total energy              =     -51.52220702 Ry
     estimated scf accuracy    <       0.00003699 Ry

     iteration #  4     ecut=    80.00 Ry     beta= 0.70
     Davidson diagonalization with overlap
     ethr =  2.85E-07,  avg # of iterations =  1.0

     total cpu time spent up to now is        7.9 secs

     total energy              =     -51.52219860 Ry
     estimated scf accuracy    <       0.00001455 Ry

     iteration #  5     ecut=    80.00 Ry     beta= 0.70
     Davidson diagonalization with overlap
     ethr =  1.12E-07,  avg # of iterations =  1.8

     total cpu time spent up to now is        8.1 secs

     total energy              =     -51.52220038 Ry
     estimated scf accuracy    <       0.00000008 Ry

     iteration #  6     ecut=    80.00 Ry     beta= 0.70
     Davidson diagonalization with overlap
     ethr =  6.31E-10,  avg # of iterations =  3.5

     total cpu time spent up to now is        8.2 secs

     total energy              =     -51.52220044 Ry
     estimated scf accuracy    <       0.00000001 Ry

     iteration #  7     ecut=    80.00 Ry     beta= 0.70
     Davidson diagonalization with overlap
     ethr =  8.62E-11,  avg # of iterations =  1.1

     total cpu time spent up to now is        8.3 secs

     total energy              =     -51.52220043 Ry
     estimated scf accuracy    <       0.00000001 Ry

     iteration #  8     ecut=    80.00 Ry     beta= 0.70
     Davidson diagonalization with overlap
     ethr =  8.62E-11,  avg # of iterations =  2.0

     total cpu time spent up to now is        8.5 secs

     End of self-consistent calculation

          k = 0.0000 0.0000 0.0000 (  2469 PWs)   bands (ev):

   -37.5777 -37.2302 -37.2302  -1.8395   7.3411   7.3411   7.3411  13.0355
    13.0355  13.0822  19.9562

          k = 0.0000 0.0000 0.1352 (  2445 PWs)   bands (ev):

   -37.5616 -37.2448 -37.2295  -1.7154   6.2600   7.5936   7.5936  12.7432
    13.0648  14.7363  17.2532

          k = 0.0000 0.0000 0.2704 (  2421 PWs)   bands (ev):

   -37.5186 -37.2847 -37.2280  -1.3871   4.5865   8.3290   8.3290  12.1847
    13.0654  14.4254  14.4254

          k = 0.0000 0.0000 0.4056 (  2404 PWs)   bands (ev):

   -37.4675 -37.3331 -37.2268  -1.0443   3.4831   9.3667   9.3667  11.8046
    12.3290  12.3290  13.0739

          k = 0.0000 0.1352 0.1352 (  2428 PWs)   bands (ev):

   -37.5463 -37.2507 -37.2368  -1.5846   6.4094   6.5005   7.8453  12.4441
    14.5134  14.6765  16.3218

          k = 0.0000 0.1352 0.2704 (  2426 PWs)   bands (ev):

   -37.5050 -37.2857 -37.2384  -1.2374   4.7293   7.0092   8.5782  11.3392
    14.1057  14.6751  15.4423

          k = 0.0000 0.1352 0.4056 (  2427 PWs)   bands (ev):

   -37.4555 -37.3323 -37.2375  -0.8715   3.5948   7.7202   9.6089  10.2168
    12.5903  13.5537  15.3467

          k = 0.0000 0.2704 0.2704 (  2424 PWs)   bands (ev):

   -37.4680 -37.2966 -37.2595  -0.8359   5.0615   5.2262   9.3019   9.5807
    15.0273  15.2431  15.5943

          k = 0.0000 0.2704 0.4056 (  2413 PWs)   bands (ev):

   -37.4222 -37.3306 -37.2672  -0.4016   3.9144   5.6713   8.3178  10.3091
    13.3502  14.8778  16.4213

          k = 0.0000 0.4056 0.4056 (  2428 PWs)   bands (ev):

   -37.3778 -37.3331 -37.3051   0.1254   4.2849   4.3411   7.1070  11.2627
    14.3588  14.4882  15.0983

          k = 0.1352 0.1352 0.1352 (  2421 PWs)   bands (ev):

   -37.5316 -37.2500 -37.2500  -1.4470   6.5546   6.5546   6.8126  13.6790
    14.0373  14.0373  16.3565

          k = 0.1352 0.1352 0.2704 (  2417 PWs)   bands (ev):

   -37.4921 -37.2862 -37.2484  -1.0802   4.8569   6.9268   7.4117  11.9312
    12.9582  15.8594  16.0221

          k = 0.1352 0.1352 0.4056 (  2422 PWs)   bands (ev):

   -37.4444 -37.3314 -37.2471  -0.6899   3.6947   7.2932   8.5236  10.0657
    12.2128  15.1408  16.5953

          k = 0.1352 0.2704 0.2704 (  2417 PWs)   bands (ev):

   -37.4574 -37.2958 -37.2685  -0.6569   5.1007   5.3432   7.6007  10.4284
    13.5995  14.5316  16.9117

          k = 0.1352 0.2704 0.4056 (  2419 PWs)   bands (ev):

   -37.4140 -37.3298 -37.2739  -0.1929   3.9755   5.6394   7.9140   9.3819
    12.7902  15.1261  16.9653

          k = 0.1352 0.4056 0.4056 (  2426 PWs)   bands (ev):

   -37.3734 -37.3323 -37.3078   0.3753   4.2740   4.3539   7.1022   9.5721
    13.6394  14.0276  16.1489

          k = 0.2704 0.2704 0.2704 (  2431 PWs)   bands (ev):

   -37.4286 -37.2940 -37.2940  -0.1680   5.1918   5.1918   6.3732   9.6893
    13.2562  13.2562  17.2794

          k = 0.2704 0.2704 0.4056 (  2417 PWs)   bands (ev):

   -37.3916 -37.3282 -37.2925   0.3894   4.1340   5.2681   7.0001   8.2305
    12.5561  13.9030  15.9832

          k = 0.2704 0.4056 0.4056 (  2415 PWs)   bands (ev):

   -37.3616 -37.3303 -37.3160   1.0984   4.2481   4.3684   6.8715   7.3637
    12.9303  13.2485  14.5280

          k = 0.4056 0.4056 0.4056 (  2404 PWs)   bands (ev):

   -37.3459 -37.3287 -37.3287   2.1031   4.2259   4.2259   5.3175   7.1386
    12.7675  12.7675  13.3774

     the Fermi energy is     7.7213 ev

!    total energy              =     -51.52220043 Ry
     estimated scf accuracy    <          6.7E-11 Ry
     smearing contrib. (-TS)   =       0.00033555 Ry
     internal energy E=F+TS    =     -51.52253598 Ry

     The total energy is F=E-TS. E is the sum of the following terms:
     one-electron contribution =     -14.79565827 Ry
     hartree contribution      =       8.65122280 Ry
     xc contribution           =     -13.77797488 Ry
     ewald contribution        =     -31.60012562 Ry

     convergence has been achieved in   8 iterations

     Forces acting on atoms (cartesian axes, Ry/au):

     atom    1 type  1   force =     0.00000000    0.00000000    0.00000000
     atom    2 type  1   force =     0.00000000    0.00000000    0.00000000
     atom    3 type  1   force =     0.00000000    0.00000000    0.00000000
     atom    4 type  2   force =     0.00000000    0.00000000    0.00000000
     The non-local contrib.  to forces
     atom    1 type  1   force =     0.00000000    0.00000000    0.00000000
     atom    2 type  1   force =     0.00000000    0.00000000    0.00000000
     atom    3 type  1   force =     0.00000000    0.00000000    0.00000000
     atom    4 type  2   force =     0.00000000    0.00000000    0.00000000
     The ionic contribution  to forces
     atom    1 type  1   force =    -0.00000000   -0.00000000    0.00000000
     atom    2 type  1   force =     0.00000000   -0.00000000   -0.00000000
     atom    3 type  1   force =    -0.00000000    0.00000000   -0.00000000
     atom    4 type  2   force =     0.00000000    0.00000000    0.00000000
     The local contribution  to forces
     atom    1 type  1   force =     0.00000000    0.00000000    0.00000000
     atom    2 type  1   force =     0.00000000    0.00000000    0.00000000
     atom    3 type  1   force =     0.00000000    0.00000000    0.00000000
     atom    4 type  2   force =    -0.00000000   -0.00000000    0.00000000
     The core correction contribution to forces
     atom    1 type  1   force =     0.00000000    0.00000000    0.00000000
     atom    2 type  1   force =     0.00000000    0.00000000    0.00000000
     atom    3 type  1   force =     0.00000000    0.00000000    0.00000000
     atom    4 type  2   force =    -0.00000000    0.00000000   -0.00000000
     The Hubbard contrib.    to forces
     atom    1 type  1   force =     0.00000000    0.00000000    0.00000000
     atom    2 type  1   force =     0.00000000    0.00000000    0.00000000
     atom    3 type  1   force =     0.00000000    0.00000000    0.00000000
     atom    4 type  2   force =     0.00000000    0.00000000    0.00000000
     The SCF correction term to forces
     atom    1 type  1   force =     0.00000000   -0.00000000    0.00000000
     atom    2 type  1   force =    -0.00000000   -0.00000000   -0.00000000
     atom    3 type  1   force =     0.00000000   -0.00000000   -0.00000000
     atom    4 type  2   force =    -0.00000000    0.00000000   -0.00000000

     Total force =     0.000000     Total SCF correction =     0.000000


     Computing stress (Cartesian axis) and pressure

          total   stress  (Ry/bohr**3)                   (kbar)     P=      495.73
   0.00336988   0.00000000   0.00000000          495.73        0.00        0.00
   0.00000000   0.00336988   0.00000000            0.00      495.73        0.00
   0.00000000   0.00000000   0.00336988            0.00        0.00      495.73

     Energy error            =      5.7E-04 Ry
     Gradient error          =      0.0E+00 Ry/Bohr
     Cell gradient error     =      4.3E+00 kbar

     number of scf cycles    =   3
     number of bfgs steps    =   2

     enthalpy           old  =     -50.7179913443 Ry
     enthalpy           new  =     -50.7185639880 Ry

     CASE: enthalpy          _new < enthalpy          _old

     new trust radius        =       0.0024133914 bohr
ibrav =      1
 celldm(1) =      6.17871469
Input lattice vectors:
     1.05588583     0.00000000     0.00000000
     0.00000000     1.05588583     0.00000000
     0.00000000     0.00000000     1.05588583
New lattice vectors in INITIAL alat:
     1.05588583     0.00000000     0.00000000
     0.00000000     1.05588583     0.00000000
     0.00000000     0.00000000     1.05588583
New lattice vectors in NEW alat (for information only):
     1.00000000     0.00000000     0.00000000
     0.00000000     1.00000000     0.00000000
     0.00000000     0.00000000     1.00000000
Discrepancy in bohr =     0.000000    0.000000    0.000000
     new conv_thr            =            1.0E-10 Ry

     new unit-cell volume =    235.88180 a.u.^3 (    34.95408 Ang^3 )
     density =      2.32346 g/cm^3

CELL_PARAMETERS (alat=  5.85168826)
   1.055885827   0.000000000   0.000000000
   0.000000000   1.055885827   0.000000000
   0.000000000   0.000000000   1.055885827

ATOMIC_POSITIONS (crystal)
Li            0.0000000000        0.0000000000        0.5000000000
Li            0.5000000000        0.0000000000        0.0000000000
Li            0.0000000000        0.5000000000        0.0000000000
Si            0.5000000000        0.5000000000        0.5000000000



     Writing config-only to output data dir ./output/LiSi.save/
     NEW-OLD atomic charge density approx. for the potential
     extrapolated charge   12.96938, renormalised to   13.00000

     total cpu time spent up to now is        9.2 secs

     Self-consistent Calculation

     iteration #  1     ecut=    80.00 Ry     beta= 0.70
     Davidson diagonalization with overlap
     ethr =  1.00E-06,  avg # of iterations =  2.0

     Threshold (ethr) on eigenvalues was too large:
     Diagonalizing with lowered threshold

     Davidson diagonalization with overlap
     ethr =  2.23E-08,  avg # of iterations =  2.0

     total cpu time spent up to now is        9.5 secs

     total energy              =     -51.52030731 Ry
     estimated scf accuracy    <       0.00000313 Ry

     iteration #  2     ecut=    80.00 Ry     beta= 0.70
     Davidson diagonalization with overlap
     ethr =  2.41E-08,  avg # of iterations =  2.7

     total cpu time spent up to now is        9.6 secs

     total energy              =     -51.52031808 Ry
     estimated scf accuracy    <       0.00000313 Ry

     iteration #  3     ecut=    80.00 Ry     beta= 0.70
     Davidson diagonalization with overlap
     ethr =  2.41E-08,  avg # of iterations =  1.1

     total cpu time spent up to now is        9.8 secs

     total energy              =     -51.52031803 Ry
     estimated scf accuracy    <       0.00000067 Ry

     iteration #  4     ecut=    80.00 Ry     beta= 0.70
     Davidson diagonalization with overlap
     ethr =  5.14E-09,  avg # of iterations =  1.0

     total cpu time spent up to now is        9.9 secs

     total energy              =     -51.52031787 Ry
     estimated scf accuracy    <       0.00000028 Ry

     iteration #  5     ecut=    80.00 Ry     beta= 0.70
     Davidson diagonalization with overlap
     ethr =  2.18E-09,  avg # of iterations =  1.6

     total cpu time spent up to now is       10.0 secs

     total energy              =     -51.52031790 Ry
     estimated scf accuracy    <          4.1E-09 Ry

     iteration #  6     ecut=    80.00 Ry     beta= 0.70
     Davidson diagonalization with overlap
     ethr =  3.16E-11,  avg # of iterations =  2.5

     total cpu time spent up to now is       10.2 secs

     End of self-consistent calculation

          k = 0.0000 0.0000 0.0000 (  2469 PWs)   bands (ev):

   -37.5558 -37.2059 -37.2059  -1.8226   7.3634   7.3634   7.3634  13.0623
    13.0623  13.1213  20.0022

          k = 0.0000 0.0000 0.1353 (  2445 PWs)   bands (ev):

   -37.5397 -37.2206 -37.2052  -1.6986   6.2815   7.6163   7.6163  12.7690
    13.0993  14.7689  17.2890

          k = 0.0000 0.0000 0.2706 (  2421 PWs)   bands (ev):

   -37.4963 -37.2607 -37.2036  -1.3705   4.6068   8.3532   8.3532  12.2087
    13.0981  14.4562  14.4562

          k = 0.0000 0.0000 0.4059 (  2404 PWs)   bands (ev):

   -37.4449 -37.3095 -37.2024  -1.0279   3.5028   9.3937   9.3937  11.8273
    12.3553  12.3553  13.1049

          k = 0.0000 0.1353 0.1353 (  2428 PWs)   bands (ev):

   -37.5242 -37.2265 -37.2125  -1.5678   6.4306   6.5228   7.8685  12.4718
    14.5487  14.7053  16.3600

          k = 0.0000 0.1353 0.2706 (  2426 PWs)   bands (ev):

   -37.4826 -37.2618 -37.2141  -1.2207   4.7496   7.0317   8.6028  11.3646
    14.1360  14.7064  15.4789

          k = 0.0000 0.1353 0.4059 (  2427 PWs)   bands (ev):

   -37.4327 -37.3087 -37.2132  -0.8549   3.6144   7.7435   9.6364  10.2409
    12.6169  13.5826  15.3803

          k = 0.0000 0.2706 0.2706 (  2424 PWs)   bands (ev):

   -37.4454 -37.2727 -37.2353  -0.8190   5.0810   5.2474   9.3281   9.6040
    15.0635  15.2772  15.6243

          k = 0.0000 0.2706 0.4059 (  2413 PWs)   bands (ev):

   -37.3992 -37.3070 -37.2431  -0.3845   3.9336   5.6919   8.3399  10.3381
    13.3780  14.9134  16.4549

          k = 0.0000 0.4059 0.4059 (  2428 PWs)   bands (ev):

   -37.3545 -37.3095 -37.2812   0.1433   4.3035   4.3603   7.1281  11.2948
    14.3888  14.5165  15.1356

          k = 0.1353 0.1353 0.1353 (  2421 PWs)   bands (ev):

   -37.5095 -37.2258 -37.2258  -1.4302   6.5758   6.5758   6.8359  13.7136
    14.0645  14.0645  16.3980

          k = 0.1353 0.1353 0.2706 (  2417 PWs)   bands (ev):

   -37.4697 -37.2623 -37.2241  -1.0634   4.8771   6.9482   7.4354  11.9611
    12.9841  15.8930  16.0564

          k = 0.1353 0.1353 0.4059 (  2422 PWs)   bands (ev):

   -37.4216 -37.3078 -37.2228  -0.6731   3.7141   7.3147   8.5490  10.0927
    12.2390  15.1723  16.6310

          k = 0.1353 0.2706 0.2706 (  2417 PWs)   bands (ev):

   -37.4347 -37.2719 -37.2444  -0.6398   5.1199   5.3640   7.6236  10.4567
    13.6293  14.5610  16.9504

          k = 0.1353 0.2706 0.4059 (  2419 PWs)   bands (ev):

   -37.3909 -37.3062 -37.2498  -0.1755   3.9944   5.6592   7.9357   9.4114
    12.8182  15.1577  17.0026

          k = 0.1353 0.4059 0.4059 (  2426 PWs)   bands (ev):

   -37.3501 -37.3086 -37.2840   0.3936   4.2921   4.3726   7.1230   9.6028
    13.6688  14.0568  16.1825

          k = 0.2706 0.2706 0.2706 (  2431 PWs)   bands (ev):

   -37.4056 -37.2701 -37.2701  -0.1504   5.2103   5.2103   6.3971   9.7175
    13.2853  13.2853  17.3148

          k = 0.2706 0.2706 0.4059 (  2417 PWs)   bands (ev):

   -37.3684 -37.3045 -37.2686   0.4077   4.1520   5.2859   7.0237   8.2566
    12.5855  13.9338  16.0169

          k = 0.2706 0.4059 0.4059 (  2415 PWs)   bands (ev):

   -37.3381 -37.3067 -37.2922   1.1180   4.2651   4.3858   6.8948   7.3877
    12.9610  13.2793  14.5606

          k = 0.4059 0.4059 0.4059 (  2404 PWs)   bands (ev):

   -37.3223 -37.3051 -37.3051   2.1250   4.2421   4.2421   5.3416   7.1579
    12.7993  12.7993  13.4097

     the Fermi energy is     7.7444 ev

!    total energy              =     -51.52031790 Ry
     estimated scf accuracy    <          3.6E-11 Ry
     smearing contrib. (-TS)   =       0.00032145 Ry
     internal energy E=F+TS    =     -51.52063935 Ry

     The total energy is F=E-TS. E is the sum of the following terms:
     one-electron contribution =     -14.76045337 Ry
     hartree contribution      =       8.64587406 Ry
     xc contribution           =     -13.78111630 Ry
     ewald contribution        =     -31.62494374 Ry

     convergence has been achieved in   6 iterations

     Forces acting on atoms (cartesian axes, Ry/au):

     atom    1 type  1   force =     0.00000000    0.00000000    0.00000000
     atom    2 type  1   force =     0.00000000    0.00000000    0.00000000
     atom    3 type  1   force =     0.00000000    0.00000000    0.00000000
     atom    4 type  2   force =     0.00000000    0.00000000    0.00000000
     The non-local contrib.  to forces
     atom    1 type  1   force =     0.00000000    0.00000000    0.00000000
     atom    2 type  1   force =     0.00000000    0.00000000    0.00000000
     atom    3 type  1   force =     0.00000000    0.00000000    0.00000000
     atom    4 type  2   force =     0.00000000    0.00000000    0.00000000
     The ionic contribution  to forces
     atom    1 type  1   force =    -0.00000000   -0.00000000    0.00000000
     atom    2 type  1   force =     0.00000000   -0.00000000   -0.00000000
     atom    3 type  1   force =    -0.00000000    0.00000000   -0.00000000
     atom    4 type  2   force =     0.00000000   -0.00000000    0.00000000
     The local contribution  to forces
     atom    1 type  1   force =     0.00000000    0.00000000    0.00000000
     atom    2 type  1   force =     0.00000000    0.00000000    0.00000000
     atom    3 type  1   force =     0.00000000    0.00000000    0.00000000
     atom    4 type  2   force =     0.00000000    0.00000000    0.00000000
     The core correction contribution to forces
     atom    1 type  1   force =     0.00000000    0.00000000    0.00000000
     atom    2 type  1   force =     0.00000000    0.00000000    0.00000000
     atom    3 type  1   force =     0.00000000    0.00000000    0.00000000
     atom    4 type  2   force =     0.00000000    0.00000000   -0.00000000
     The Hubbard contrib.    to forces
     atom    1 type  1   force =     0.00000000    0.00000000    0.00000000
     atom    2 type  1   force =     0.00000000    0.00000000    0.00000000
     atom    3 type  1   force =     0.00000000    0.00000000    0.00000000
     atom    4 type  2   force =     0.00000000    0.00000000    0.00000000
     The SCF correction term to forces
     atom    1 type  1   force =     0.00000000    0.00000000   -0.00000000
     atom    2 type  1   force =     0.00000000    0.00000000    0.00000000
     atom    3 type  1   force =     0.00000000    0.00000000    0.00000000
     atom    4 type  2   force =     0.00000000    0.00000000    0.00000000

     Total force =     0.000000     Total SCF correction =     0.000000


     Computing stress (Cartesian axis) and pressure

          total   stress  (Ry/bohr**3)                   (kbar)     P=      500.06
   0.00339932   0.00000000   0.00000000          500.06        0.00        0.00
   0.00000000   0.00339932   0.00000000            0.00      500.06        0.00
   0.00000000   0.00000000   0.00339932            0.00        0.00      500.06

     Energy error            =      8.0E-06 Ry
     Gradient error          =      0.0E+00 Ry/Bohr
     Cell gradient error     =      5.7E-02 kbar
ibrav =      1
 celldm(1) =      6.17871469
Input lattice vectors:
     1.05588583     0.00000000     0.00000000
     0.00000000     1.05588583     0.00000000
     0.00000000     0.00000000     1.05588583
New lattice vectors in INITIAL alat:
     1.05588583     0.00000000     0.00000000
     0.00000000     1.05588583     0.00000000
     0.00000000     0.00000000     1.05588583
New lattice vectors in NEW alat (for information only):
     1.00000000     0.00000000     0.00000000
     0.00000000     1.00000000     0.00000000
     0.00000000     0.00000000     1.00000000
Discrepancy in bohr =     0.000000    0.000000    0.000000

     bfgs converged in   4 scf cycles and   3 bfgs steps
     (criteria: energy <  1.0E-04 Ry, force <  1.0E-03 Ry/Bohr, cell <  1.0E+00 kbar)

     End of BFGS Geometry Optimization

     Final enthalpy           =     -50.7185719698 Ry

     File ./output/LiSi.bfgs deleted, as requested
Begin final coordinates
     new unit-cell volume =    235.88180 a.u.^3 (    34.95408 Ang^3 )
     density =      2.32346 g/cm^3

CELL_PARAMETERS (alat=  5.85168826)
   1.055885827   0.000000000   0.000000000
   0.000000000   1.055885827   0.000000000
   0.000000000   0.000000000   1.055885827

ATOMIC_POSITIONS (crystal)
Li            0.0000000000        0.0000000000        0.5000000000
Li            0.5000000000        0.0000000000        0.0000000000
Li            0.0000000000        0.5000000000        0.0000000000
Si            0.5000000000        0.5000000000        0.5000000000
End final coordinates



     Writing config-only to output data dir ./output/LiSi.save/

     Final scf calculation at the relaxed structure.
     The G-vectors are recalculated for the final unit cell
     Results may differ from those at the preceding step.

     Parallelization info
     --------------------
     sticks:   dense  smooth     PW     G-vecs:    dense   smooth      PW
     Min         121     121     36                 2859     2859     461
     Max         122     122     38                 2862     2862     462
     Sum         973     973    293                22887    22887    3695

     Using Slab Decomposition



     bravais-lattice index     =            1
     lattice parameter (alat)  =       5.8517  a.u.
     unit-cell volume          =     235.8818 (a.u.)^3
     number of atoms/cell      =            4
     number of atomic types    =            2
     number of electrons       =        13.00
     number of Kohn-Sham states=           11
     kinetic-energy cutoff     =      80.0000  Ry
     charge density cutoff     =     320.0000  Ry
     scf convergence threshold =      1.0E-10
     mixing beta               =       0.7000
     number of iterations used =            8  plain     mixing
     press convergence thresh. =      1.0E+00
     Exchange-correlation= PBE
                           (   1   4   3   4   0   0   0)

     celldm(1)=   5.851688  celldm(2)=   0.000000  celldm(3)=   0.000000
     celldm(4)=   0.000000  celldm(5)=   0.000000  celldm(6)=   0.000000

     crystal axes: (cart. coord. in units of alat)
               a(1) = (   1.055886   0.000000   0.000000 )  
               a(2) = (   0.000000   1.055886   0.000000 )  
               a(3) = (   0.000000   0.000000   1.055886 )  

     reciprocal axes: (cart. coord. in units 2 pi/alat)
               b(1) = (  0.947072  0.000000  0.000000 )  
               b(2) = (  0.000000  0.947072  0.000000 )  
               b(3) = (  0.000000  0.000000  0.947072 )  


     PseudoPot. # 1 for Li read from file:
     ../pseudo/Li_ONCV_PBE_sr.upf
     MD5 check sum: 50ff420e78310ffa21704f3361e624a4
     Pseudo is Norm-conserving, Zval =  3.0
     Generated using ONCVPSP code by D. R. Hamann
     Using radial grid of 1944 points,  4 beta functions with: 
                l(1) =   0
                l(2) =   0
                l(3) =   1
                l(4) =   1

     PseudoPot. # 2 for Si read from file:
     ../pseudo/Si_ONCV_PBE_sr.upf
     MD5 check sum: e543d271109d17c80368dfa7c482276d
     Pseudo is Norm-conserving + core correction, Zval =  4.0
     Generated using ONCVPSP code by D. R. Hamann
     Using radial grid of 1510 points,  6 beta functions with: 
                l(1) =   0
                l(2) =   0
                l(3) =   1
                l(4) =   1
                l(5) =   2
                l(6) =   2

     atomic species   valence    mass     pseudopotential
        Li             3.00     6.94100     Li( 1.00)
        Si             4.00    28.08550     Si( 1.00)

     48 Sym. Ops., with inversion, found



   Cartesian axes

     site n.     atom                  positions (alat units)
         1           Li  tau(   1) = (   0.0000000   0.0000000   0.5279429  )
         2           Li  tau(   2) = (   0.5279429   0.0000000   0.0000000  )
         3           Li  tau(   3) = (   0.0000000   0.5279429   0.0000000  )
         4           Si  tau(   4) = (   0.5279429   0.5279429   0.5279429  )

     number of k points=    20  Marzari-Vanderbilt smearing, width (Ry)=  0.0200
                       cart. coord. in units 2pi/alat
        k(    1) = (   0.0000000   0.0000000   0.0000000), wk =   0.0058309
        k(    2) = (   0.0000000   0.0000000   0.1352960), wk =   0.0349854
        k(    3) = (   0.0000000   0.0000000   0.2705920), wk =   0.0349854
        k(    4) = (   0.0000000   0.0000000   0.4058880), wk =   0.0349854
        k(    5) = (   0.0000000   0.1352960   0.1352960), wk =   0.0699708
        k(    6) = (   0.0000000   0.1352960   0.2705920), wk =   0.1399417
        k(    7) = (   0.0000000   0.1352960   0.4058880), wk =   0.1399417
        k(    8) = (   0.0000000   0.2705920   0.2705920), wk =   0.0699708
        k(    9) = (   0.0000000   0.2705920   0.4058880), wk =   0.1399417
        k(   10) = (   0.0000000   0.4058880   0.4058880), wk =   0.0699708
        k(   11) = (   0.1352960   0.1352960   0.1352960), wk =   0.0466472
        k(   12) = (   0.1352960   0.1352960   0.2705920), wk =   0.1399417
        k(   13) = (   0.1352960   0.1352960   0.4058880), wk =   0.1399417
        k(   14) = (   0.1352960   0.2705920   0.2705920), wk =   0.1399417
        k(   15) = (   0.1352960   0.2705920   0.4058880), wk =   0.2798834
        k(   16) = (   0.1352960   0.4058880   0.4058880), wk =   0.1399417
        k(   17) = (   0.2705920   0.2705920   0.2705920), wk =   0.0466472
        k(   18) = (   0.2705920   0.2705920   0.4058880), wk =   0.1399417
        k(   19) = (   0.2705920   0.4058880   0.4058880), wk =   0.1399417
        k(   20) = (   0.4058880   0.4058880   0.4058880), wk =   0.0466472

     Dense  grid:    22887 G-vectors     FFT dimensions: (  36,  36,  36)

     Estimated max dynamical RAM per process >      15.00 MB

     Estimated total dynamical RAM >     120.00 MB

     Initial potential from superposition of free atoms

     starting charge      12.9857, renormalised to      13.0000
     Starting wfcs are   10 randomized atomic wfcs +    1 random wfcs

     total cpu time spent up to now is       10.9 secs

     Self-consistent Calculation

     iteration #  1     ecut=    80.00 Ry     beta= 0.70
     Davidson diagonalization with overlap
     c_bands:  1 eigenvalues not converged
     ethr =  1.00E-06,  avg # of iterations = 14.8

     total cpu time spent up to now is       11.4 secs

     total energy              =     -51.52022834 Ry
     estimated scf accuracy    <       0.00900982 Ry

     iteration #  2     ecut=    80.00 Ry     beta= 0.70
     Davidson diagonalization with overlap
     ethr =  6.93E-05,  avg # of iterations =  1.0

     total cpu time spent up to now is       11.5 secs

     total energy              =     -51.52040260 Ry
     estimated scf accuracy    <       0.00057636 Ry

     iteration #  3     ecut=    80.00 Ry     beta= 0.70
     Davidson diagonalization with overlap
     ethr =  4.43E-06,  avg # of iterations =  1.1

     total cpu time spent up to now is       11.6 secs

     total energy              =     -51.52043298 Ry
     estimated scf accuracy    <       0.00001728 Ry

     iteration #  4     ecut=    80.00 Ry     beta= 0.70
     Davidson diagonalization with overlap
     ethr =  1.33E-07,  avg # of iterations =  1.9

     total cpu time spent up to now is       11.8 secs

     total energy              =     -51.52043609 Ry
     estimated scf accuracy    <       0.00000088 Ry

     iteration #  5     ecut=    80.00 Ry     beta= 0.70
     Davidson diagonalization with overlap
     ethr =  6.79E-09,  avg # of iterations =  1.1

     total cpu time spent up to now is       11.9 secs

     total energy              =     -51.52043613 Ry
     estimated scf accuracy    <          1.9E-09 Ry

     iteration #  6     ecut=    80.00 Ry     beta= 0.70
     Davidson diagonalization with overlap
     ethr =  1.50E-11,  avg # of iterations =  3.8

     total cpu time spent up to now is       12.1 secs

     total energy              =     -51.52043613 Ry
     estimated scf accuracy    <          2.4E-10 Ry

     iteration #  7     ecut=    80.00 Ry     beta= 0.70
     Davidson diagonalization with overlap
     ethr =  1.84E-12,  avg # of iterations =  2.0

     total cpu time spent up to now is       12.2 secs

     End of self-consistent calculation

          k = 0.0000 0.0000 0.0000 (  2897 PWs)   bands (ev):

   -37.5548 -37.2049 -37.2049  -1.8227   7.3633   7.3633   7.3633  13.0622
    13.0622  13.1212  20.0021

          k = 0.0000 0.0000 0.1353 (  2857 PWs)   bands (ev):

   -37.5387 -37.2196 -37.2042  -1.6987   6.2814   7.6162   7.6162  12.7689
    13.0991  14.7688  17.2889

          k = 0.0000 0.0000 0.2706 (  2842 PWs)   bands (ev):

   -37.4954 -37.2598 -37.2027  -1.3706   4.6066   8.3531   8.3531  12.2086
    13.0979  14.4561  14.4561

          k = 0.0000 0.0000 0.4059 (  2850 PWs)   bands (ev):

   -37.4440 -37.3086 -37.2015  -1.0280   3.5026   9.3936   9.3936  11.8272
    12.3552  12.3552  13.1048

          k = 0.0000 0.1353 0.1353 (  2869 PWs)   bands (ev):

   -37.5233 -37.2255 -37.2115  -1.5679   6.4304   6.5227   7.8684  12.4717
    14.5485  14.7052  16.3598

          k = 0.0000 0.1353 0.2706 (  2844 PWs)   bands (ev):

   -37.4817 -37.2608 -37.2131  -1.2208   4.7495   7.0316   8.6028  11.3645
    14.1359  14.7062  15.4787

          k = 0.0000 0.1353 0.4059 (  2845 PWs)   bands (ev):

   -37.4318 -37.3077 -37.2122  -0.8550   3.6142   7.7434   9.6363  10.2408
    12.6168  13.5826  15.3802

          k = 0.0000 0.2706 0.2706 (  2848 PWs)   bands (ev):

   -37.4444 -37.2717 -37.2344  -0.8191   5.0809   5.2473   9.3280   9.6039
    15.0633  15.2771  15.6242

          k = 0.0000 0.2706 0.4059 (  2849 PWs)   bands (ev):

   -37.3983 -37.3061 -37.2422  -0.3846   3.9335   5.6918   8.3398  10.3381
    13.3778  14.9132  16.4548

          k = 0.0000 0.4059 0.4059 (  2848 PWs)   bands (ev):

   -37.3535 -37.3086 -37.2803   0.1432   4.3034   4.3602   7.1280  11.2947
    14.3887  14.5164  15.1355

          k = 0.1353 0.1353 0.1353 (  2848 PWs)   bands (ev):

   -37.5086 -37.2248 -37.2248  -1.4303   6.5757   6.5757   6.8358  13.7135
    14.0644  14.0644  16.3978

          k = 0.1353 0.1353 0.2706 (  2845 PWs)   bands (ev):

   -37.4688 -37.2613 -37.2232  -1.0635   4.8769   6.9481   7.4353  11.9610
    12.9840  15.8929  16.0563

          k = 0.1353 0.1353 0.4059 (  2848 PWs)   bands (ev):

   -37.4206 -37.3069 -37.2219  -0.6732   3.7139   7.3146   8.5489  10.0926
    12.2389  15.1722  16.6310

          k = 0.1353 0.2706 0.2706 (  2858 PWs)   bands (ev):

   -37.4337 -37.2709 -37.2435  -0.6399   5.1198   5.3639   7.6235  10.4566
    13.6291  14.5608  16.9502

          k = 0.1353 0.2706 0.4059 (  2846 PWs)   bands (ev):

   -37.3900 -37.3052 -37.2489  -0.1756   3.9943   5.6591   7.9355   9.4113
    12.8180  15.1576  17.0026

          k = 0.1353 0.4059 0.4059 (  2850 PWs)   bands (ev):

   -37.3491 -37.3077 -37.2831   0.3936   4.2920   4.3725   7.1228   9.6027
    13.6687  14.0567  16.1824

          k = 0.2706 0.2706 0.2706 (  2836 PWs)   bands (ev):

   -37.4046 -37.2691 -37.2691  -0.1505   5.2102   5.2102   6.3969   9.7174
    13.2852  13.2852  17.3147

          k = 0.2706 0.2706 0.4059 (  2855 PWs)   bands (ev):

   -37.3674 -37.3035 -37.2676   0.4077   4.1519   5.2858   7.0236   8.2565
    12.5853  13.9336  16.0167

          k = 0.2706 0.4059 0.4059 (  2858 PWs)   bands (ev):

   -37.3372 -37.3057 -37.2913   1.1179   4.2650   4.3857   6.8947   7.3876
    12.9608  13.2791  14.5605

          k = 0.4059 0.4059 0.4059 (  2878 PWs)   bands (ev):

   -37.3213 -37.3041 -37.3041   2.1249   4.2420   4.2420   5.3415   7.1578
    12.7990  12.7990  13.4095

     the Fermi energy is     7.7443 ev

!    total energy              =     -51.52043613 Ry
     estimated scf accuracy    <          5.0E-12 Ry
     smearing contrib. (-TS)   =       0.00032130 Ry
     internal energy E=F+TS    =     -51.52075744 Ry

     The total energy is F=E-TS. E is the sum of the following terms:
     one-electron contribution =     -14.76092778 Ry
     hartree contribution      =       8.64641017 Ry
     xc contribution           =     -13.78129609 Ry
     ewald contribution        =     -31.62494374 Ry

     convergence has been achieved in   7 iterations

     Forces acting on atoms (cartesian axes, Ry/au):

     atom    1 type  1   force =     0.00000000    0.00000000    0.00000000
     atom    2 type  1   force =     0.00000000    0.00000000    0.00000000
     atom    3 type  1   force =     0.00000000    0.00000000    0.00000000
     atom    4 type  2   force =     0.00000000    0.00000000    0.00000000
     The non-local contrib.  to forces
     atom    1 type  1   force =     0.00000000    0.00000000    0.00000000
     atom    2 type  1   force =     0.00000000    0.00000000    0.00000000
     atom    3 type  1   force =     0.00000000    0.00000000    0.00000000
     atom    4 type  2   force =     0.00000000    0.00000000    0.00000000
     The ionic contribution  to forces
     atom    1 type  1   force =    -0.00000000   -0.00000000    0.00000000
     atom    2 type  1   force =     0.00000000   -0.00000000   -0.00000000
     atom    3 type  1   force =    -0.00000000    0.00000000   -0.00000000
     atom    4 type  2   force =     0.00000000   -0.00000000    0.00000000
     The local contribution  to forces
     atom    1 type  1   force =     0.00000000    0.00000000    0.00000000
     atom    2 type  1   force =     0.00000000    0.00000000    0.00000000
     atom    3 type  1   force =     0.00000000    0.00000000    0.00000000
     atom    4 type  2   force =     0.00000000    0.00000000   -0.00000000
     The core correction contribution to forces
     atom    1 type  1   force =     0.00000000    0.00000000    0.00000000
     atom    2 type  1   force =     0.00000000    0.00000000    0.00000000
     atom    3 type  1   force =     0.00000000    0.00000000    0.00000000
     atom    4 type  2   force =     0.00000000    0.00000000    0.00000000
     The Hubbard contrib.    to forces
     atom    1 type  1   force =     0.00000000    0.00000000    0.00000000
     atom    2 type  1   force =     0.00000000    0.00000000    0.00000000
     atom    3 type  1   force =     0.00000000    0.00000000    0.00000000
     atom    4 type  2   force =     0.00000000    0.00000000    0.00000000
     The SCF correction term to forces
     atom    1 type  1   force =    -0.00000000   -0.00000000    0.00000000
     atom    2 type  1   force =     0.00000000    0.00000000    0.00000000
     atom    3 type  1   force =     0.00000000   -0.00000000    0.00000000
     atom    4 type  2   force =    -0.00000000   -0.00000000    0.00000000

     Total force =     0.000000     Total SCF correction =     0.000000


     Computing stress (Cartesian axis) and pressure

          total   stress  (Ry/bohr**3)                   (kbar)     P=      501.26
   0.00340746   0.00000000   0.00000000          501.26        0.00        0.00
   0.00000000   0.00340746   0.00000000            0.00      501.26        0.00
   0.00000000   0.00000000   0.00340746            0.00        0.00      501.26


     Writing all to output data dir ./output/LiSi.save/

     init_run     :      0.65s CPU      0.87s WALL (       2 calls)
     electrons    :      6.20s CPU      8.04s WALL (       5 calls)
     update_pot   :      0.67s CPU      0.70s WALL (       3 calls)
     forces       :      0.72s CPU      0.88s WALL (       5 calls)
     stress       :      1.88s CPU      2.10s WALL (       5 calls)

     Called by init_run:
     wfcinit      :      0.08s CPU      0.08s WALL (       2 calls)
     potinit      :      0.22s CPU      0.37s WALL (       2 calls)
     hinit0       :      0.33s CPU      0.39s WALL (       2 calls)

     Called by electrons:
     c_bands      :      4.92s CPU      5.65s WALL (      46 calls)
     sum_band     :      0.82s CPU      0.92s WALL (      46 calls)
     v_of_rho     :      0.44s CPU      1.43s WALL (      49 calls)
     mix_rho      :      0.09s CPU      0.19s WALL (      46 calls)

     Called by c_bands:
     init_us_2    :      0.17s CPU      0.19s WALL (    2080 calls)
     init_us_2:cp :      0.17s CPU      0.19s WALL (    2080 calls)
     cegterg      :      4.59s CPU      4.89s WALL (     920 calls)

     Called by *egterg:
     cdiaghg      :      0.41s CPU      0.43s WALL (    2927 calls)
     h_psi        :      3.77s CPU      4.03s WALL (    3067 calls)
     g_psi        :      0.02s CPU      0.02s WALL (    2107 calls)

     Called by h_psi:
     h_psi:calbec :      0.25s CPU      0.27s WALL (    3067 calls)
     vloc_psi     :      3.33s CPU      3.55s WALL (    3067 calls)
     add_vuspsi   :      0.17s CPU      0.17s WALL (    3067 calls)

     General routines
     calbec       :      0.31s CPU      0.33s WALL (    3567 calls)
     fft          :      0.86s CPU      2.31s WALL (     615 calls)
     ffts         :      0.04s CPU      0.08s WALL (      46 calls)
     fftw         :      3.47s CPU      3.68s WALL (   61898 calls)

     Parallel routines

     PWSCF        :     10.26s CPU     12.90s WALL


   This run was terminated on:  11:31:48  29Dec2024            

=------------------------------------------------------------------------------=
   JOB DONE.
=------------------------------------------------------------------------------=
