
     Program PWSCF v.7.2 starts on 29Dec2024 at 16: 5:25 

     This program is part of the open-source Quantum ESPRESSO suite
     for quantum simulation of materials; please cite
         "P. Giannozzi et al., J. Phys.:Condens. Matter 21 395502 (2009);
         "P. Giannozzi et al., J. Phys.:Condens. Matter 29 465901 (2017);
         "P. Giannozzi et al., J. Chem. Phys. 152 154105 (2020);
          URL http://www.quantum-espresso.org", 
     in publications or presentations arising from this work. More details at
     http://www.quantum-espresso.org/quote

     Parallel version (MPI & OpenMP), running on       8 processor cores
     Number of MPI processes:                 8
     Threads/MPI process:                     1

     MPI processes distributed on     1 nodes
     483544 MiB available memory on the printing compute node when the environment starts

     Waiting for input...
     Reading input from standard input

     Current dimensions of program PWSCF are:
     Max number of different atomic species (ntypx) = 10
     Max number of k-points (npk) =  40000
     Max angular momentum in pseudopotentials (lmaxx) =  4

     R & G space division:  proc/nbgrp/npool/nimage =       8
     Subspace diagonalization in iterative solution of the eigenvalue problem:
     a serial algorithm will be used


     Parallelization info
     --------------------
     sticks:   dense  smooth     PW     G-vecs:    dense   smooth      PW
     Min         126     126     35                13743    13743    2055
     Max         127     127     36                13753    13753    2068
     Sum        1015    1015    283               109981   109981   16485

     Using Slab Decomposition



     bravais-lattice index     =            4
     lattice parameter (alat)  =       6.7638  a.u.
     unit-cell volume          =    1136.6046 (a.u.)^3
     number of atoms/cell      =            8
     number of atomic types    =            2
     number of electrons       =        30.00
     number of Kohn-Sham states=           19
     kinetic-energy cutoff     =      80.0000  Ry
     charge density cutoff     =     320.0000  Ry
     scf convergence threshold =      1.0E-08
     mixing beta               =       0.7000
     number of iterations used =            8  plain     mixing
     energy convergence thresh.=      1.0E-04
     force convergence thresh. =      1.0E-03
     press convergence thresh. =      1.0E+00
     Exchange-correlation= PBE
                           (   1   4   3   4   0   0   0)
     nstep                     =           50


     celldm(1)=   6.763765  celldm(2)=   0.000000  celldm(3)=   4.241438
     celldm(4)=   0.000000  celldm(5)=   0.000000  celldm(6)=   0.000000

     crystal axes: (cart. coord. in units of alat)
               a(1) = (   1.000000   0.000000   0.000000 )  
               a(2) = (  -0.500000   0.866025   0.000000 )  
               a(3) = (   0.000000   0.000000   4.241438 )  

     reciprocal axes: (cart. coord. in units 2 pi/alat)
               b(1) = (  1.000000  0.577350 -0.000000 )  
               b(2) = (  0.000000  1.154701  0.000000 )  
               b(3) = (  0.000000 -0.000000  0.235769 )  


     PseudoPot. # 1 for Li read from file:
     ../pseudo/Li_ONCV_PBE_sr.upf
     MD5 check sum: 50ff420e78310ffa21704f3361e624a4
     Pseudo is Norm-conserving, Zval =  3.0
     Generated using ONCVPSP code by D. R. Hamann
     Using radial grid of 1944 points,  4 beta functions with: 
                l(1) =   0
                l(2) =   0
                l(3) =   1
                l(4) =   1

     PseudoPot. # 2 for Si read from file:
     ../pseudo/Si_ONCV_PBE_sr.upf
     MD5 check sum: e543d271109d17c80368dfa7c482276d
     Pseudo is Norm-conserving + core correction, Zval =  4.0
     Generated using ONCVPSP code by D. R. Hamann
     Using radial grid of 1510 points,  6 beta functions with: 
                l(1) =   0
                l(2) =   0
                l(3) =   1
                l(4) =   1
                l(5) =   2
                l(6) =   2

     atomic species   valence    mass     pseudopotential
        Li             3.00     6.94100     Li( 1.00)
        Si             4.00    28.08550     Si( 1.00)

     12 Sym. Ops., with inversion, found



   Cartesian axes

     site n.     atom                  positions (alat units)
         1           Li  tau(   1) = (   0.0000000   0.0000000   0.4450562  )
         2           Li  tau(   2) = (   0.0000000   0.0000000   3.7963821  )
         3           Si  tau(   3) = (   0.0000000   0.0000000   1.1994300  )
         4           Si  tau(   4) = (   0.0000000   0.0000000   3.0420084  )
         5           Si  tau(   5) = (  -0.0000000   0.5773503   2.0190201  )
         6           Si  tau(   6) = (   0.5000000   0.2886751   2.2224183  )
         7           Si  tau(   7) = (  -0.0000000   0.5773503   1.3975688  )
         8           Si  tau(   8) = (   0.5000000   0.2886751   2.8438696  )

     number of k points=    28  Marzari-Vanderbilt smearing, width (Ry)=  0.0200
                       cart. coord. in units 2pi/alat
        k(    1) = (   0.0000000   0.0000000   0.0000000), wk =   0.0100000
        k(    2) = (   0.0000000   0.0000000  -0.1178845), wk =   0.0100000
        k(    3) = (   0.0000000   0.1154701   0.0000000), wk =   0.0600000
        k(    4) = (   0.0000000   0.1154701  -0.1178845), wk =   0.0600000
        k(    5) = (   0.0000000   0.2309401   0.0000000), wk =   0.0600000
        k(    6) = (   0.0000000   0.2309401  -0.1178845), wk =   0.0600000
        k(    7) = (   0.0000000   0.3464102   0.0000000), wk =   0.0600000
        k(    8) = (   0.0000000   0.3464102  -0.1178845), wk =   0.0600000
        k(    9) = (   0.0000000   0.4618802   0.0000000), wk =   0.0600000
        k(   10) = (   0.0000000   0.4618802  -0.1178845), wk =   0.0600000
        k(   11) = (   0.0000000  -0.5773503   0.0000000), wk =   0.0300000
        k(   12) = (   0.0000000  -0.5773503  -0.1178845), wk =   0.0300000
        k(   13) = (   0.1000000   0.1732051   0.0000000), wk =   0.0600000
        k(   14) = (   0.1000000   0.1732051  -0.1178845), wk =   0.0600000
        k(   15) = (   0.1000000   0.2886751   0.0000000), wk =   0.1200000
        k(   16) = (   0.1000000   0.2886751  -0.1178845), wk =   0.1200000
        k(   17) = (   0.1000000   0.4041452   0.0000000), wk =   0.1200000
        k(   18) = (   0.1000000   0.4041452  -0.1178845), wk =   0.1200000
        k(   19) = (   0.1000000   0.5196152   0.0000000), wk =   0.1200000
        k(   20) = (   0.1000000   0.5196152  -0.1178845), wk =   0.1200000
        k(   21) = (   0.2000000   0.3464102   0.0000000), wk =   0.0600000
        k(   22) = (   0.2000000   0.3464102  -0.1178845), wk =   0.0600000
        k(   23) = (   0.2000000   0.4618802   0.0000000), wk =   0.1200000
        k(   24) = (   0.2000000   0.4618802  -0.1178845), wk =   0.1200000
        k(   25) = (   0.2000000   0.5773503   0.0000000), wk =   0.0600000
        k(   26) = (   0.2000000   0.5773503  -0.1178845), wk =   0.0600000
        k(   27) = (   0.3000000   0.5196152   0.0000000), wk =   0.0600000
        k(   28) = (   0.3000000   0.5196152  -0.1178845), wk =   0.0600000

     Dense  grid:   109981 G-vectors     FFT dimensions: (  40,  40, 180)

     Estimated max dynamical RAM per process >      39.92 MB

     Estimated total dynamical RAM >     319.36 MB

     Initial potential from superposition of free atoms

     starting charge      29.9872, renormalised to      30.0000
     Starting wfcs are   28 randomized atomic wfcs

     total cpu time spent up to now is        3.4 secs

     Self-consistent Calculation

     iteration #  1     ecut=    80.00 Ry     beta= 0.70
     Davidson diagonalization with overlap
     ethr =  1.00E-02,  avg # of iterations =  4.2
     Minimization algorithm failed to find Fermi energy: reverting to bisection
     Possible cause: smearing is larger than the electronic band-gap.

     total cpu time spent up to now is        5.9 secs

     total energy              =     -78.44886027 Ry
     estimated scf accuracy    <       1.34821937 Ry

     iteration #  2     ecut=    80.00 Ry     beta= 0.70
     Davidson diagonalization with overlap
     ethr =  4.49E-03,  avg # of iterations =  9.6

     total cpu time spent up to now is       10.5 secs

     total energy              =     -68.84792671 Ry
     estimated scf accuracy    <     217.59766066 Ry

     iteration #  3     ecut=    80.00 Ry     beta= 0.70
     Davidson diagonalization with overlap
     ethr =  4.49E-03,  avg # of iterations =  8.7

     total cpu time spent up to now is       14.6 secs

     total energy              =     -79.25234107 Ry
     estimated scf accuracy    <       1.34646458 Ry

     iteration #  4     ecut=    80.00 Ry     beta= 0.70
     Davidson diagonalization with overlap
     ethr =  4.49E-03,  avg # of iterations =  1.8

     total cpu time spent up to now is       16.4 secs

     total energy              =     -79.34086224 Ry
     estimated scf accuracy    <       0.32483021 Ry

     iteration #  5     ecut=    80.00 Ry     beta= 0.70
     Davidson diagonalization with overlap
     ethr =  1.08E-03,  avg # of iterations =  1.5

     total cpu time spent up to now is       18.0 secs

     total energy              =     -79.35425150 Ry
     estimated scf accuracy    <       0.02728213 Ry

     iteration #  6     ecut=    80.00 Ry     beta= 0.70
     Davidson diagonalization with overlap
     ethr =  9.09E-05,  avg # of iterations =  8.5

     total cpu time spent up to now is       20.6 secs

     total energy              =     -79.35697474 Ry
     estimated scf accuracy    <       0.00201498 Ry

     iteration #  7     ecut=    80.00 Ry     beta= 0.70
     Davidson diagonalization with overlap
     c_bands:  2 eigenvalues not converged
     ethr =  6.72E-06,  avg # of iterations =  7.8

     total cpu time spent up to now is       23.0 secs

     total energy              =     -79.35724867 Ry
     estimated scf accuracy    <       0.00010831 Ry

     iteration #  8     ecut=    80.00 Ry     beta= 0.70
     Davidson diagonalization with overlap
     ethr =  3.61E-07,  avg # of iterations =  4.4

     total cpu time spent up to now is       25.3 secs

     total energy              =     -79.35727804 Ry
     estimated scf accuracy    <       0.00001740 Ry

     iteration #  9     ecut=    80.00 Ry     beta= 0.70
     Davidson diagonalization with overlap
     ethr =  5.80E-08,  avg # of iterations =  2.3

     total cpu time spent up to now is       27.2 secs

     total energy              =     -79.35728001 Ry
     estimated scf accuracy    <       0.00000302 Ry

     iteration # 10     ecut=    80.00 Ry     beta= 0.70
     Davidson diagonalization with overlap
     ethr =  1.01E-08,  avg # of iterations =  2.9

     total cpu time spent up to now is       29.1 secs

     total energy              =     -79.35728035 Ry
     estimated scf accuracy    <       0.00000049 Ry

     iteration # 11     ecut=    80.00 Ry     beta= 0.70
     Davidson diagonalization with overlap
     ethr =  1.65E-09,  avg # of iterations =  2.5

     total cpu time spent up to now is       31.1 secs

     total energy              =     -79.35728041 Ry
     estimated scf accuracy    <       0.00000011 Ry

     iteration # 12     ecut=    80.00 Ry     beta= 0.70
     Davidson diagonalization with overlap
     ethr =  3.61E-10,  avg # of iterations =  3.0

     total cpu time spent up to now is       33.0 secs

     End of self-consistent calculation

          k = 0.0000 0.0000 0.0000 ( 13797 PWs)   bands (ev):

   -42.7810 -42.7792  -8.3558  -7.3561  -6.2881  -2.1111   0.1873   2.3399
     2.6671   3.6313   3.6313   4.2223   4.2223   4.6674   4.6674   4.8814
     6.2420   7.2947   7.9799

          k = 0.0000 0.0000-0.1179 ( 13834 PWs)   bands (ev):

   -42.7810 -42.7792  -8.3558  -7.3561  -6.2881  -2.1125   0.2141   1.9738
     3.4126   3.6313   3.6313   4.1367   4.2223   4.2223   4.6674   4.6674
     6.8663   7.2878   7.9811

          k = 0.0000 0.1155 0.0000 ( 13759 PWs)   bands (ev):

   -42.7809 -42.7791  -8.2175  -7.2185  -6.1501  -2.0109   0.2871   2.4376
     2.5436   2.8629   3.2845   3.3022   3.8427   3.9602   4.4815   4.9301
     6.3230   7.3556   7.7272

          k = 0.0000 0.1155-0.1179 ( 13810 PWs)   bands (ev):

   -42.7809 -42.7791  -8.2175  -7.2185  -6.1500  -2.0123   0.3121   2.0825
     2.6203   3.2543   3.2845   3.5373   3.8401   3.9601   4.2687   4.4815
     6.7122   7.4615   7.9621

          k = 0.0000 0.2309 0.0000 ( 13735 PWs)   bands (ev):

   -42.7805 -42.7787  -7.8067  -6.8105  -5.7406  -1.7691   0.4333   0.9289
     1.6689   2.2090   2.6650   2.8878   3.1530   3.4064   4.0191   4.7611
     6.4437   6.6709   7.1867

          k = 0.0000 0.2309-0.1179 ( 13750 PWs)   bands (ev):

   -42.7805 -42.7787  -7.8067  -6.8105  -5.7405  -1.7702   0.4452   0.9320
     1.6803   2.2175   2.5253   2.6650   3.4064   3.8592   4.0191   4.3031
     6.1939   6.7776   7.6224

          k = 0.0000 0.3464 0.0000 ( 13733 PWs)   bands (ev):

   -42.7800 -42.7782  -7.1393  -6.1529  -5.0816  -1.8566  -0.7441   0.1000
     0.3782   1.4658   2.1284   2.8958   3.3469   3.5500   3.6096   4.3590
     5.9730   6.4817   6.8832

          k = 0.0000 0.3464-0.1179 ( 13738 PWs)   bands (ev):

   -42.7800 -42.7782  -7.1393  -6.1530  -5.0816  -1.8569  -0.7442   0.0981
     0.3783   1.4896   2.1284   2.8957   3.1015   3.5501   3.8545   4.4501
     5.9276   6.2233   6.9727

          k = 0.0000 0.4619 0.0000 ( 13712 PWs)   bands (ev):

   -42.7796 -42.7778  -6.2703  -5.3398  -4.2989  -2.7940  -2.1290  -1.1975
     0.3338   1.7130   1.7839   2.5617   3.2332   3.2710   4.2413   4.4878
     5.5706   5.9481   6.5357

          k = 0.0000 0.4619-0.1179 ( 13734 PWs)   bands (ev):

   -42.7796 -42.7778  -6.2703  -5.3398  -4.2989  -2.7940  -2.1290  -1.1974
     0.3319   1.7195   1.7839   2.5616   3.2333   3.3132   3.9863   4.7137
     5.5920   6.0689   6.4762

          k = 0.0000-0.5774 0.0000 ( 13714 PWs)   bands (ev):

   -42.7794 -42.7777  -5.5969  -4.9665  -4.0157  -3.0028  -2.7237  -2.3386
     0.9388   1.3523   1.6662   2.4469   3.1233   3.5433   4.0075   5.0140
     5.4427   6.1349   6.1700

          k = 0.0000-0.5774-0.1179 ( 13736 PWs)   bands (ev):

   -42.7794 -42.7777  -5.5969  -4.9665  -4.0157  -3.0028  -2.7237  -2.3384
     0.9368   1.3531   1.6662   2.4469   3.1234   3.5494   4.0461   4.9500
     5.4446   5.7910   6.2289

          k = 0.1000 0.1732 0.0000 ( 13769 PWs)   bands (ev):

   -42.7806 -42.7788  -7.9428  -6.9455  -5.8761  -1.8355   0.4404   1.5257
     1.9805   2.5037   2.7376   2.9898   3.0273   3.5892   3.7095   4.9282
     6.4497   7.5997   7.6252

          k = 0.1000 0.1732-0.1179 ( 13762 PWs)   bands (ev):

   -42.7806 -42.7788  -7.9428  -6.9455  -5.8760  -1.8367   0.4595   1.5175
     2.0117   2.3843   2.5042   2.9551   3.5595   3.7081   3.7837   4.3573
     6.5669   7.6178   7.8628

          k = 0.1000 0.2887 0.0000 ( 13754 PWs)   bands (ev):

   -42.7802 -42.7784  -7.4025  -6.4107  -5.3389  -1.6830  -0.0405   0.4083
     0.9975   1.3502   2.1015   2.5889   3.0580   3.2347   3.4614   4.7190
     6.4742   7.0976   7.6386

          k = 0.1000 0.2887-0.1179 ( 13740 PWs)   bands (ev):

   -42.7802 -42.7784  -7.4025  -6.4107  -5.3389  -1.6836  -0.0402   0.4079
     0.9983   1.3737   2.1060   2.5835   2.8681   3.0959   4.1077   4.3732
     6.3447   7.0737   7.7067

          k = 0.1000 0.4041 0.0000 ( 13732 PWs)   bands (ev):

   -42.7797 -42.7779  -6.6247  -5.6555  -4.5843  -2.3107  -1.4149  -0.4765
     0.1539   1.3369   1.6030   2.1447   2.6080   3.5404   3.9906   4.4862
     6.1217   6.7160   7.2580

          k = 0.1000 0.4041-0.1179 ( 13732 PWs)   bands (ev):

   -42.7797 -42.7779  -6.6247  -5.6556  -4.5842  -2.3108  -1.4149  -0.4765
     0.1519   1.3375   1.6122   2.1509   2.6063   3.4957   3.9148   4.6334
     6.3670   6.5305   6.9595

          k = 0.1000 0.5196 0.0000 ( 13720 PWs)   bands (ev):

   -42.7794 -42.7777  -5.7356  -4.9407  -3.9718  -2.9194  -2.6760  -1.8672
     0.6936   1.0541   1.3837   2.1030   2.3698   3.5587   4.1854   4.9044
     6.0702   6.3930   6.4545

          k = 0.1000 0.5196-0.1179 ( 13706 PWs)   bands (ev):

   -42.7794 -42.7777  -5.7356  -4.9408  -3.9718  -2.9194  -2.6760  -1.8671
     0.6922   1.0542   1.3843   2.1032   2.3696   3.5878   4.1575   4.8769
     6.0233   6.3989   6.4536

          k = 0.2000 0.3464 0.0000 ( 13758 PWs)   bands (ev):

   -42.7798 -42.7780  -6.7468  -5.7691  -4.6917  -2.0247  -0.9040  -0.2556
     0.2255   0.9350   1.6507   1.7369   1.8617   3.7258   3.8076   4.5797
     6.2347   7.8289   7.9509

          k = 0.2000 0.3464-0.1179 ( 13754 PWs)   bands (ev):

   -42.7798 -42.7780  -6.7468  -5.7691  -4.6917  -2.0248  -0.9040  -0.2556
     0.2234   0.9371   1.6513   1.7349   1.8799   3.4582   4.1955   4.4307
     6.5456   7.0338   7.9412

          k = 0.2000 0.4619 0.0000 ( 13732 PWs)   bands (ev):

   -42.7794 -42.7777  -5.8929  -4.9849  -3.9016  -2.8383  -2.0622  -1.3598
     0.2701   0.4728   0.8635   1.2850   2.1428   3.7127   4.0703   4.8887
     6.1964   6.8891   7.6259

          k = 0.2000 0.4619-0.1179 ( 13726 PWs)   bands (ev):

   -42.7794 -42.7777  -5.8929  -4.9849  -3.9015  -2.8383  -2.0622  -1.3598
     0.2701   0.4727   0.8627   1.2838   2.1478   3.7321   4.0677   4.7835
     6.4254   7.0477   7.4526

          k = 0.2000 0.5774 0.0000 ( 13726 PWs)   bands (ev):

   -42.7793 -42.7775  -5.2126  -4.6676  -3.6062  -2.9721  -2.6052  -2.2841
     0.0079   0.3300   0.9241   1.4527   1.9459   3.8227   3.9683   5.2932
     6.4029   6.6203   6.9772

          k = 0.2000 0.5774-0.1179 ( 13716 PWs)   bands (ev):

   -42.7793 -42.7775  -5.2126  -4.6676  -3.6062  -2.9721  -2.6053  -2.2840
     0.0079   0.3303   0.9241   1.4508   1.9455   3.8266   3.9745   5.4094
     6.0657   6.3507   7.7299

          k = 0.3000 0.5196 0.0000 ( 13716 PWs)   bands (ev):

   -42.7793 -42.7775  -5.0542  -4.4892  -3.2447  -3.2104  -2.5615  -2.2091
    -0.3038   0.0358   0.0688   1.4985   2.0794   3.5859   4.1129   5.5442
     6.4522   6.8367   6.9989

          k = 0.3000 0.5196-0.1179 ( 13718 PWs)   bands (ev):

   -42.7793 -42.7775  -5.0542  -4.4892  -3.2447  -3.2104  -2.5615  -2.2092
    -0.3038   0.0360   0.0690   1.4967   2.0791   3.5848   4.1238   5.5977
     6.3489   6.7693   6.9318

     the Fermi energy is     4.3168 ev

!    total energy              =     -79.35728042 Ry
     estimated scf accuracy    <          3.4E-09 Ry
     smearing contrib. (-TS)   =       0.00189836 Ry
     internal energy E=F+TS    =     -79.35917878 Ry

     The total energy is F=E-TS. E is the sum of the following terms:
     one-electron contribution =     -69.64149393 Ry
     hartree contribution      =      42.44499133 Ry
     xc contribution           =     -25.66633807 Ry
     ewald contribution        =     -26.49633812 Ry

     convergence has been achieved in  12 iterations

     Forces acting on atoms (cartesian axes, Ry/au):

     atom    1 type  1   force =     0.00000000    0.00000000    0.00715512
     atom    2 type  1   force =     0.00000000    0.00000000   -0.00715512
     atom    3 type  2   force =     0.00000000    0.00000000   -0.08084607
     atom    4 type  2   force =     0.00000000    0.00000000    0.08084607
     atom    5 type  2   force =     0.00000000   -0.00000000   -0.00689788
     atom    6 type  2   force =    -0.00000000   -0.00000000    0.00689788
     atom    7 type  2   force =     0.00000000    0.00000000   -0.00642664
     atom    8 type  2   force =     0.00000000    0.00000000    0.00642664
     The non-local contrib.  to forces
     atom    1 type  1   force =     0.00000000    0.00000000   -0.07711686
     atom    2 type  1   force =     0.00000000   -0.00000000    0.07711686
     atom    3 type  2   force =     0.00000000   -0.00000000   -0.06240301
     atom    4 type  2   force =     0.00000000    0.00000000    0.06240301
     atom    5 type  2   force =     0.00000000   -0.00000000   -0.00913888
     atom    6 type  2   force =     0.00000000    0.00000000    0.00913888
     atom    7 type  2   force =     0.00000000    0.00000000    0.01191761
     atom    8 type  2   force =     0.00000000    0.00000000   -0.01191761
     The ionic contribution  to forces
     atom    1 type  1   force =    -0.00000000    0.00000000   -3.19545442
     atom    2 type  1   force =     0.00000000   -0.00000000    3.19545442
     atom    3 type  2   force =    -0.00000003    0.00000002   -6.47438148
     atom    4 type  2   force =     0.00000003   -0.00000002    6.47438148
     atom    5 type  2   force =     0.00000006   -0.00000003   -0.73023741
     atom    6 type  2   force =    -0.00000006    0.00000003    0.73023741
     atom    7 type  2   force =     0.00000003   -0.00000002   -4.78990659
     atom    8 type  2   force =    -0.00000003    0.00000002    4.78990659
     The local contribution  to forces
     atom    1 type  1   force =    -0.00000000   -0.00000000    3.27971368
     atom    2 type  1   force =    -0.00000000    0.00000000   -3.27971368
     atom    3 type  2   force =    -0.00000000   -0.00000000    6.44881134
     atom    4 type  2   force =     0.00000000    0.00000000   -6.44881134
     atom    5 type  2   force =     0.00000001   -0.00000001    0.73147650
     atom    6 type  2   force =    -0.00000001    0.00000001   -0.73147650
     atom    7 type  2   force =     0.00000001   -0.00000001    4.77239475
     atom    8 type  2   force =    -0.00000001    0.00000001   -4.77239475
     The core correction contribution to forces
     atom    1 type  1   force =     0.00000000    0.00000000    0.00000000
     atom    2 type  1   force =     0.00000000    0.00000000    0.00000000
     atom    3 type  2   force =     0.00000000   -0.00000000    0.00706115
     atom    4 type  2   force =    -0.00000000    0.00000000   -0.00706115
     atom    5 type  2   force =    -0.00000000    0.00000000    0.00098814
     atom    6 type  2   force =     0.00000000   -0.00000000   -0.00098814
     atom    7 type  2   force =    -0.00000000    0.00000000   -0.00088973
     atom    8 type  2   force =     0.00000000   -0.00000000    0.00088973
     The Hubbard contrib.    to forces
     atom    1 type  1   force =     0.00000000    0.00000000    0.00000000
     atom    2 type  1   force =     0.00000000    0.00000000    0.00000000
     atom    3 type  2   force =     0.00000000    0.00000000    0.00000000
     atom    4 type  2   force =     0.00000000    0.00000000    0.00000000
     atom    5 type  2   force =     0.00000000    0.00000000    0.00000000
     atom    6 type  2   force =     0.00000000    0.00000000    0.00000000
     atom    7 type  2   force =     0.00000000    0.00000000    0.00000000
     atom    8 type  2   force =     0.00000000    0.00000000    0.00000000
     The SCF correction term to forces
     atom    1 type  1   force =     0.00000000    0.00000000    0.00001272
     atom    2 type  1   force =    -0.00000000    0.00000000   -0.00001272
     atom    3 type  2   force =     0.00000000   -0.00000000    0.00006592
     atom    4 type  2   force =    -0.00000000    0.00000000   -0.00006592
     atom    5 type  2   force =    -0.00000000    0.00000000    0.00001377
     atom    6 type  2   force =     0.00000000   -0.00000000   -0.00001377
     atom    7 type  2   force =     0.00000000   -0.00000000    0.00005731
     atom    8 type  2   force =    -0.00000000    0.00000000   -0.00005731

     Total force =     0.115552     Total SCF correction =     0.000126


     Computing stress (Cartesian axis) and pressure

          total   stress  (Ry/bohr**3)                   (kbar)     P=      151.15
   0.00118661   0.00000000  -0.00000000          174.56        0.00       -0.00
   0.00000000   0.00118661  -0.00000000            0.00      174.56       -0.00
   0.00000000   0.00000000   0.00070919            0.00        0.00      104.33


     BFGS Geometry Optimization
     Energy error            =      0.0E+00 Ry
     Gradient error          =      8.1E-02 Ry/Bohr
     Cell gradient error     =      4.0E+02 kbar

     number of scf cycles    =   1
     number of bfgs steps    =   0

     enthalpy           new  =     -75.4940399775 Ry

     new trust radius        =       0.4534041054 bohr
ibrav =      4
 celldm(1) =      6.38967516
 celldm(3) =      4.18785050
Input lattice vectors:
     0.94469201     0.00000000     0.00000000
    -0.47234601     0.81812728     0.00000000
    -0.00000000    -0.00000000     3.95622892
New lattice vectors in INITIAL alat:
     0.94469201     0.00000000     0.00000000
    -0.47234601     0.81812728     0.00000000
     0.00000000     0.00000000     3.95622892
New lattice vectors in NEW alat (for information only):
     1.00000000     0.00000000     0.00000000
    -0.50000000     0.86602540     0.00000000
     0.00000000     0.00000000     4.18785050
Discrepancy in bohr =     0.000000    0.000000    0.000000
     new conv_thr            =       0.0000000100 Ry

     new unit-cell volume =    946.14596 a.u.^3 (   140.20437 Ang^3 )
     density =      2.16023 g/cm^3

CELL_PARAMETERS (alat=  6.76376540)
   0.944692014   0.000000000   0.000000000
  -0.472346007   0.818127283   0.000000000
   0.000000000   0.000000000   3.956228919

ATOMIC_POSITIONS (crystal)
Li            0.0000000000        0.0000000000        0.1051799109
Li            0.0000000000        0.0000000000        0.8948200891
Si            0.0000000000        0.0000000000        0.2799703947
Si            0.0000000000        0.0000000000        0.7200296053
Si            0.3333333300        0.6666666700        0.4757820562
Si            0.6666666700        0.3333333300        0.5242179438
Si            0.3333333300        0.6666666700        0.3292794823
Si            0.6666666700        0.3333333300        0.6707205177



     Writing config-only to output data dir ./output/LiSi.save/
     NEW-OLD atomic charge density approx. for the potential
     extrapolated charge   23.96359, renormalised to   30.00000

     total cpu time spent up to now is       40.1 secs

     Self-consistent Calculation

     iteration #  1     ecut=    80.00 Ry     beta= 0.70
     Davidson diagonalization with overlap
     c_bands:  2 eigenvalues not converged
     c_bands:  5 eigenvalues not converged
     c_bands:  5 eigenvalues not converged
     c_bands:  3 eigenvalues not converged
     c_bands:  3 eigenvalues not converged
     c_bands:  3 eigenvalues not converged
     c_bands:  2 eigenvalues not converged
     c_bands:  1 eigenvalues not converged
     c_bands:  3 eigenvalues not converged
     c_bands:  3 eigenvalues not converged
     c_bands:  2 eigenvalues not converged
     c_bands:  2 eigenvalues not converged
     c_bands:  4 eigenvalues not converged
     c_bands:  3 eigenvalues not converged
     c_bands:  4 eigenvalues not converged
     c_bands:  2 eigenvalues not converged
     c_bands:  3 eigenvalues not converged
     c_bands:  3 eigenvalues not converged
     c_bands:  1 eigenvalues not converged
     ethr =  1.00E-06,  avg # of iterations = 22.6

     total cpu time spent up to now is       50.6 secs

     total energy              =     -34.89124163 Ry
     estimated scf accuracy    <      46.12519318 Ry

     iteration #  2     ecut=    80.00 Ry     beta= 0.70
     Davidson diagonalization with overlap
     c_bands:  2 eigenvalues not converged
     c_bands:  1 eigenvalues not converged
     c_bands:  1 eigenvalues not converged
     c_bands:  2 eigenvalues not converged
     c_bands:  2 eigenvalues not converged
     c_bands:  1 eigenvalues not converged
     c_bands:  2 eigenvalues not converged
     c_bands:  2 eigenvalues not converged
     c_bands:  2 eigenvalues not converged
     c_bands:  3 eigenvalues not converged
     ethr =  1.00E-02,  avg # of iterations = 19.1

     total cpu time spent up to now is       59.6 secs

     total energy              =     -66.93708885 Ry
     estimated scf accuracy    <     678.51892850 Ry

     iteration #  3     ecut=    80.00 Ry     beta= 0.70
     Davidson diagonalization with overlap
     ethr =  1.00E-02,  avg # of iterations = 10.4

     total cpu time spent up to now is       64.2 secs

     total energy              =     -85.15836868 Ry
     estimated scf accuracy    <     138.02733399 Ry

     iteration #  4     ecut=    80.00 Ry     beta= 0.70
     Davidson diagonalization with overlap
     ethr =  1.00E-02,  avg # of iterations =  5.1

     total cpu time spent up to now is       66.7 secs

     total energy              =     -81.82328934 Ry
     estimated scf accuracy    <      90.16167144 Ry

     iteration #  5     ecut=    80.00 Ry     beta= 0.70
     Davidson diagonalization with overlap
     ethr =  1.00E-02,  avg # of iterations =  3.5

     total cpu time spent up to now is       68.6 secs

     total energy              =     -81.54771042 Ry
     estimated scf accuracy    <      55.12422758 Ry

     iteration #  6     ecut=    80.00 Ry     beta= 0.70
     Davidson diagonalization with overlap
     ethr =  1.00E-02,  avg # of iterations =  1.4

     total cpu time spent up to now is       70.1 secs

     total energy              =     -77.20858027 Ry
     estimated scf accuracy    <      45.75488485 Ry

     iteration #  7     ecut=    80.00 Ry     beta= 0.70
     Davidson diagonalization with overlap
     ethr =  1.00E-02,  avg # of iterations =  4.5

     total cpu time spent up to now is       72.3 secs

     total energy              =     -78.77251087 Ry
     estimated scf accuracy    <       1.83345055 Ry

     iteration #  8     ecut=    80.00 Ry     beta= 0.70
     Davidson diagonalization with overlap
     ethr =  6.11E-03,  avg # of iterations =  3.3

     total cpu time spent up to now is       74.2 secs

     total energy              =     -79.08551610 Ry
     estimated scf accuracy    <       0.89714940 Ry

     iteration #  9     ecut=    80.00 Ry     beta= 0.70
     Davidson diagonalization with overlap
     ethr =  2.99E-03,  avg # of iterations =  1.3

     total cpu time spent up to now is       75.8 secs

     total energy              =     -79.05201958 Ry
     estimated scf accuracy    <       0.44519458 Ry

     iteration # 10     ecut=    80.00 Ry     beta= 0.70
     Davidson diagonalization with overlap
     ethr =  1.48E-03,  avg # of iterations =  1.1

     total cpu time spent up to now is       77.3 secs

     total energy              =     -78.98526744 Ry
     estimated scf accuracy    <       0.15958712 Ry

     iteration # 11     ecut=    80.00 Ry     beta= 0.70
     Davidson diagonalization with overlap
     ethr =  5.32E-04,  avg # of iterations =  7.2

     total cpu time spent up to now is       79.9 secs

     total energy              =     -78.53447625 Ry
     estimated scf accuracy    <       6.73222464 Ry

     iteration # 12     ecut=    80.00 Ry     beta= 0.70
     Davidson diagonalization with overlap
     ethr =  5.32E-04,  avg # of iterations =  6.3

     total cpu time spent up to now is       82.6 secs

     total energy              =     -79.03167313 Ry
     estimated scf accuracy    <       0.05464862 Ry

     iteration # 13     ecut=    80.00 Ry     beta= 0.70
     Davidson diagonalization with overlap
     ethr =  1.82E-04,  avg # of iterations =  2.8

     total cpu time spent up to now is       84.4 secs

     total energy              =     -79.03771759 Ry
     estimated scf accuracy    <       0.00771886 Ry

     iteration # 14     ecut=    80.00 Ry     beta= 0.70
     Davidson diagonalization with overlap
     ethr =  2.57E-05,  avg # of iterations =  7.0

     total cpu time spent up to now is       86.6 secs

     total energy              =     -79.04008285 Ry
     estimated scf accuracy    <       0.01595918 Ry

     iteration # 15     ecut=    80.00 Ry     beta= 0.70
     Davidson diagonalization with overlap
     ethr =  2.57E-05,  avg # of iterations =  1.0

     total cpu time spent up to now is       88.2 secs

     total energy              =     -79.03803880 Ry
     estimated scf accuracy    <       0.00722418 Ry

     iteration # 16     ecut=    80.00 Ry     beta= 0.70
     Davidson diagonalization with overlap
     ethr =  2.41E-05,  avg # of iterations =  3.5

     total cpu time spent up to now is       90.1 secs

     total energy              =     -79.03943401 Ry
     estimated scf accuracy    <       0.00153516 Ry

     iteration # 17     ecut=    80.00 Ry     beta= 0.70
     Davidson diagonalization with overlap
     ethr =  5.12E-06,  avg # of iterations =  4.4

     total cpu time spent up to now is       91.8 secs

     total energy              =     -79.03924201 Ry
     estimated scf accuracy    <       0.00224239 Ry

     iteration # 18     ecut=    80.00 Ry     beta= 0.70
     Davidson diagonalization with overlap
     ethr =  5.12E-06,  avg # of iterations =  1.0

     total cpu time spent up to now is       93.3 secs

     total energy              =     -79.03926364 Ry
     estimated scf accuracy    <       0.00035046 Ry

     iteration # 19     ecut=    80.00 Ry     beta= 0.70
     Davidson diagonalization with overlap
     c_bands:  2 eigenvalues not converged
     ethr =  1.17E-06,  avg # of iterations =  2.6

     total cpu time spent up to now is       94.9 secs

     total energy              =     -79.03927596 Ry
     estimated scf accuracy    <       0.00005149 Ry

     iteration # 20     ecut=    80.00 Ry     beta= 0.70
     Davidson diagonalization with overlap
     ethr =  1.72E-07,  avg # of iterations =  2.8

     total cpu time spent up to now is       96.7 secs

     total energy              =     -79.03927782 Ry
     estimated scf accuracy    <       0.00001027 Ry

     iteration # 21     ecut=    80.00 Ry     beta= 0.70
     Davidson diagonalization with overlap
     ethr =  3.42E-08,  avg # of iterations =  3.6

     total cpu time spent up to now is       98.5 secs

     total energy              =     -79.03927956 Ry
     estimated scf accuracy    <       0.00000001 Ry

     iteration # 22     ecut=    80.00 Ry     beta= 0.70
     Davidson diagonalization with overlap
     c_bands:  1 eigenvalues not converged
     ethr =  4.60E-11,  avg # of iterations =  7.5

     total cpu time spent up to now is      101.7 secs

     total energy              =     -79.03927970 Ry
     estimated scf accuracy    <       0.00000010 Ry

     iteration # 23     ecut=    80.00 Ry     beta= 0.70
     Davidson diagonalization with overlap
     ethr =  4.60E-11,  avg # of iterations =  2.9

     total cpu time spent up to now is      103.6 secs

     End of self-consistent calculation

          k = 0.0000 0.0000 0.0000 ( 13797 PWs)   bands (ev):

   -40.9406 -40.9365  -8.1457  -6.9217  -5.5973  -1.4436   1.1751   3.6777
     3.9203   5.1672   5.1672   5.9121   5.9121   6.3935   6.4226   6.4226
     8.2411   9.4707   9.6973

          k = 0.0000 0.0000-0.1264 ( 13834 PWs)   bands (ev):

   -40.9406 -40.9365  -8.1457  -6.9217  -5.5972  -1.4455   1.2065   3.2187
     4.7604   5.1672   5.1672   5.6783   5.9121   5.9121   6.4225   6.4225
     8.8532   9.4366   9.6970

          k = 0.0000 0.1222 0.0000 ( 13759 PWs)   bands (ev):

   -40.9402 -40.9362  -7.9876  -6.7646  -5.4403  -1.3134   1.3040   3.7967
     3.9029   4.1655   4.7279   4.8942   5.5721   5.6007   6.2188   6.4560
     8.3350   8.9861   9.4877

          k = 0.0000 0.1222-0.1264 ( 13810 PWs)   bands (ev):

   -40.9402 -40.9362  -7.9876  -6.7646  -5.4403  -1.3153   1.3344   3.3433
     4.0167   4.7279   4.8105   4.9409   5.5593   5.6007   5.8295   6.2188
     8.5798   9.1304   9.7914

          k = 0.0000 0.2445 0.0000 ( 13735 PWs)   bands (ev):

   -40.9394 -40.9353  -7.5169  -6.2979  -4.9740  -0.9605   1.6100   2.0264
     2.9927   3.8094   3.9889   4.2764   4.4575   4.9419   5.6880   6.2620
     8.0395   8.4956   8.8841

          k = 0.0000 0.2445-0.1264 ( 13750 PWs)   bands (ev):

   -40.9394 -40.9353  -7.5169  -6.2979  -4.9739  -0.9622   1.6309   2.0294
     2.9974   3.8003   3.8404   3.9889   4.9418   5.2696   5.6881   5.8162
     7.8362   8.3730   9.4618

          k = 0.0000 0.3667 0.0000 ( 13733 PWs)   bands (ev):

   -40.9383 -40.9343  -6.7483  -5.5409  -4.2197  -0.8137   0.2704   1.0546
     1.8350   2.5351   3.3683   4.3497   4.7451   5.0041   5.1507   5.7764
     7.3453   8.1208   8.5090

          k = 0.0000 0.3667-0.1264 ( 13738 PWs)   bands (ev):

   -40.9383 -40.9343  -6.7483  -5.5409  -4.2196  -0.8143   0.2701   1.0526
     1.8354   2.5642   3.3683   4.3496   4.4515   5.1508   5.2581   5.9181
     7.3068   7.9589   8.6882

          k = 0.0000 0.4889 0.0000 ( 13712 PWs)   bands (ev):

   -40.9374 -40.9334  -5.7305  -4.5845  -3.3189  -1.9403  -1.1350   0.0516
     1.1815   2.8818   2.9749   3.9675   4.5325   4.7911   5.6703   5.9643
     6.8526   7.4113   8.0296

          k = 0.0000 0.4889-0.1264 ( 13734 PWs)   bands (ev):

   -40.9374 -40.9334  -5.7305  -4.5845  -3.3188  -1.9403  -1.1351   0.0519
     1.1786   2.8908   2.9749   3.9674   4.5842   4.7913   5.3821   6.1873
     6.8493   7.5988   8.0759

          k = 0.0000-0.6112 0.0000 ( 13714 PWs)   bands (ev):

   -40.9371 -40.9331  -4.8837  -4.1840  -3.0671  -2.2743  -1.6518  -1.2976
     1.9256   2.4277   2.8412   3.8369   4.6669   4.9051   5.2860   6.4732
     6.6700   7.7221   7.9730

          k = 0.0000-0.6112-0.1264 ( 13736 PWs)   bands (ev):

   -40.9371 -40.9331  -4.8837  -4.1840  -3.0671  -2.2744  -1.6518  -1.2972
     1.9220   2.4286   2.8412   3.8368   4.6671   4.9098   5.3552   6.3839
     6.6714   7.2171   8.0502

          k = 0.1059 0.1833 0.0000 ( 13769 PWs)   bands (ev):

   -40.9396 -40.9356  -7.6731  -6.4526  -5.1285  -1.0688   1.5380   2.7944
     3.3063   4.0296   4.1003   4.3629   4.4218   5.1972   5.2869   6.4749
     8.4504   9.2392   9.3203

          k = 0.1059 0.1833-0.1264 ( 13762 PWs)   bands (ev):

   -40.9396 -40.9356  -7.6731  -6.4526  -5.1284  -1.0706   1.5650   2.7862
     3.3291   3.6495   4.0760   4.3790   5.1548   5.2030   5.2834   5.9196
     8.4409   9.3101   9.3882

          k = 0.1059 0.3056 0.0000 ( 13754 PWs)   bands (ev):

   -40.9387 -40.9346  -7.0524  -5.8389  -4.5155  -0.7195   1.0687   1.5843
     2.3179   2.5085   3.3439   3.9340   4.5791   4.6544   4.8084   6.2329
     8.2489   8.7085   9.3723

          k = 0.1059 0.3056-0.1264 ( 13740 PWs)   bands (ev):

   -40.9387 -40.9346  -7.0524  -5.8389  -4.5154  -0.7208   1.0681   1.5865
     2.3365   2.5160   3.3499   3.9240   4.2170   4.6027   5.5552   5.8889
     8.1176   8.6962   9.3172

          k = 0.1059 0.4278 0.0000 ( 13732 PWs)   bands (ev):

   -40.9377 -40.9337  -6.1511  -4.9624  -3.6471  -1.3015  -0.3234   0.8314
     1.0189   2.3915   2.7440   3.3915   4.0749   4.8830   5.4430   5.9430
     7.6750   8.1367   8.9542

          k = 0.1059 0.4278-0.1264 ( 13732 PWs)   bands (ev):

   -40.9377 -40.9337  -6.1510  -4.9625  -3.6470  -1.3015  -0.3234   0.8305
     1.0172   2.3921   2.7579   3.3983   4.0734   4.8560   5.2869   6.1424
     8.0384   8.0681   8.4505

          k = 0.1059 0.5500 0.0000 ( 13720 PWs)   bands (ev):

   -40.9371 -40.9331  -5.0846  -4.1136  -3.0155  -2.0163  -1.7555  -0.6935
     1.6379   2.0595   2.5235   3.3123   3.8171   4.8292   5.5931   6.3836
     7.6052   7.7971   8.1378

          k = 0.1059 0.5500-0.1264 ( 13706 PWs)   bands (ev):

   -40.9371 -40.9331  -5.0846  -4.1136  -3.0155  -2.0163  -1.7556  -0.6933
     1.6355   2.0595   2.5243   3.3124   3.8171   4.8672   5.5723   6.3281
     7.4870   7.7957   8.2401

          k = 0.2117 0.3667 0.0000 ( 13758 PWs)   bands (ev):

   -40.9378 -40.9338  -6.2949  -5.0973  -3.7737  -0.8903   0.3085   0.8031
     1.2706   1.9311   2.8782   2.9999   3.0013   5.1698   5.1994   6.0537
     7.7828   9.5089   9.6880

          k = 0.2117 0.3667-0.1264 ( 13754 PWs)   bands (ev):

   -40.9378 -40.9338  -6.2949  -5.0973  -3.7736  -0.8905   0.3085   0.8021
     1.2685   1.9335   2.8826   2.9994   3.0201   4.8384   5.6367   5.8971
     8.3401   8.5579   9.4883

          k = 0.2117 0.4889 0.0000 ( 13732 PWs)   bands (ev):

   -40.9371 -40.9331  -5.2932  -4.1717  -2.8666  -1.8439  -1.0068  -0.1223
     1.1333   1.3865   1.8677   2.4870   3.3578   5.0038   5.4779   6.4012
     7.6871   8.4521   9.2131

          k = 0.2117 0.4889-0.1264 ( 13726 PWs)   bands (ev):

   -40.9371 -40.9331  -5.2932  -4.1717  -2.8665  -1.8439  -1.0068  -0.1223
     1.1333   1.3860   1.8663   2.4862   3.3651   5.0350   5.4693   6.2454
     7.9458   8.7187   9.1091

          k = 0.2117 0.6112 0.0000 ( 13726 PWs)   bands (ev):

   -40.9368 -40.9329  -4.4449  -3.8314  -2.6075  -2.0195  -1.5836  -1.1170
     0.7799   1.2699   2.0766   2.5661   3.0680   5.1339   5.3451   6.6982
     8.1630   8.2052   8.5333

          k = 0.2117 0.6112-0.1264 ( 13716 PWs)   bands (ev):

   -40.9368 -40.9329  -4.4449  -3.8314  -2.6075  -2.0195  -1.5836  -1.1168
     0.7799   1.2703   2.0763   2.5634   3.0672   5.1433   5.3510   6.8891
     7.4335   8.0999   9.3729

          k = 0.3176 0.5500 0.0000 ( 13716 PWs)   bands (ev):

   -40.9367 -40.9328  -4.2870  -3.5780  -2.1986  -2.1795  -1.4854  -1.1032
     0.4378   0.9592   1.0032   2.5520   3.2760   4.8169   5.5110   7.0000
     7.9163   8.4124   8.5847

          k = 0.3176 0.5500-0.1264 ( 13718 PWs)   bands (ev):

   -40.9367 -40.9328  -4.2870  -3.5780  -2.1987  -2.1794  -1.4854  -1.1032
     0.4379   0.9595   1.0036   2.5490   3.2752   4.8160   5.5258   7.1172
     7.7188   8.3903   8.4145

     the Fermi energy is     5.8156 ev

!    total energy              =     -79.03927970 Ry
     estimated scf accuracy    <          4.1E-09 Ry
     smearing contrib. (-TS)   =       0.00174403 Ry
     internal energy E=F+TS    =     -79.04102373 Ry

     The total energy is F=E-TS. E is the sum of the following terms:
     one-electron contribution =     -64.26824595 Ry
     hartree contribution      =      41.51054576 Ry
     xc contribution           =     -26.36528660 Ry
     ewald contribution        =     -29.91803695 Ry

     convergence has been achieved in  23 iterations

     Forces acting on atoms (cartesian axes, Ry/au):

     atom    1 type  1   force =    -0.00000000   -0.00000000   -0.01050521
     atom    2 type  1   force =     0.00000000    0.00000000    0.01050521
     atom    3 type  2   force =     0.00000000    0.00000000   -0.15085426
     atom    4 type  2   force =    -0.00000000   -0.00000000    0.15085426
     atom    5 type  2   force =    -0.00000000   -0.00000000    0.00337658
     atom    6 type  2   force =     0.00000000    0.00000000   -0.00337658
     atom    7 type  2   force =     0.00000000    0.00000000   -0.03111913
     atom    8 type  2   force =    -0.00000000    0.00000000    0.03111913
     The non-local contrib.  to forces
     atom    1 type  1   force =     0.00000000   -0.00000000   -0.09351918
     atom    2 type  1   force =     0.00000000    0.00000000    0.09351918
     atom    3 type  2   force =     0.00000000    0.00000000   -0.12216088
     atom    4 type  2   force =     0.00000000    0.00000000    0.12216088
     atom    5 type  2   force =     0.00000000    0.00000000    0.00376749
     atom    6 type  2   force =     0.00000000   -0.00000000   -0.00376749
     atom    7 type  2   force =     0.00000000   -0.00000000   -0.00664634
     atom    8 type  2   force =     0.00000000    0.00000000    0.00664634
     The ionic contribution  to forces
     atom    1 type  1   force =    -0.00000000    0.00000000   -3.61277108
     atom    2 type  1   force =     0.00000000   -0.00000000    3.61277108
     atom    3 type  2   force =    -0.00000003    0.00000002   -7.09890887
     atom    4 type  2   force =     0.00000003   -0.00000002    7.09890887
     atom    5 type  2   force =     0.00000006   -0.00000004   -0.76381464
     atom    6 type  2   force =    -0.00000006    0.00000004    0.76381464
     atom    7 type  2   force =     0.00000003   -0.00000002   -5.26670096
     atom    8 type  2   force =    -0.00000003    0.00000002    5.26670096
     The local contribution  to forces
     atom    1 type  1   force =    -0.00000000   -0.00000000    3.69579195
     atom    2 type  1   force =    -0.00000000    0.00000000   -3.69579195
     atom    3 type  2   force =    -0.00000000   -0.00000000    7.05875210
     atom    4 type  2   force =     0.00000000    0.00000000   -7.05875210
     atom    5 type  2   force =     0.00000001   -0.00000000    0.76345861
     atom    6 type  2   force =    -0.00000001    0.00000000   -0.76345861
     atom    7 type  2   force =     0.00000001   -0.00000000    5.24191848
     atom    8 type  2   force =    -0.00000001    0.00000000   -5.24191848
     The core correction contribution to forces
     atom    1 type  1   force =     0.00000000    0.00000000    0.00000000
     atom    2 type  1   force =     0.00000000    0.00000000    0.00000000
     atom    3 type  2   force =     0.00000000   -0.00000000    0.01152651
     atom    4 type  2   force =    -0.00000000    0.00000000   -0.01152651
     atom    5 type  2   force =    -0.00000000    0.00000000   -0.00001196
     atom    6 type  2   force =     0.00000000   -0.00000000    0.00001196
     atom    7 type  2   force =    -0.00000000    0.00000000    0.00038374
     atom    8 type  2   force =     0.00000000   -0.00000000   -0.00038374
     The Hubbard contrib.    to forces
     atom    1 type  1   force =     0.00000000    0.00000000    0.00000000
     atom    2 type  1   force =     0.00000000    0.00000000    0.00000000
     atom    3 type  2   force =     0.00000000    0.00000000    0.00000000
     atom    4 type  2   force =     0.00000000    0.00000000    0.00000000
     atom    5 type  2   force =     0.00000000    0.00000000    0.00000000
     atom    6 type  2   force =     0.00000000    0.00000000    0.00000000
     atom    7 type  2   force =     0.00000000    0.00000000    0.00000000
     atom    8 type  2   force =     0.00000000    0.00000000    0.00000000
     The SCF correction term to forces
     atom    1 type  1   force =    -0.00000000    0.00000000   -0.00000690
     atom    2 type  1   force =     0.00000000   -0.00000000    0.00000690
     atom    3 type  2   force =    -0.00000000    0.00000000   -0.00006312
     atom    4 type  2   force =     0.00000000   -0.00000000    0.00006312
     atom    5 type  2   force =     0.00000000   -0.00000000   -0.00002292
     atom    6 type  2   force =    -0.00000000    0.00000000    0.00002292
     atom    7 type  2   force =     0.00000000   -0.00000000   -0.00007405
     atom    8 type  2   force =    -0.00000000    0.00000000    0.00007405

     Total force =     0.218390     Total SCF correction =     0.000142


     Computing stress (Cartesian axis) and pressure

          total   stress  (Ry/bohr**3)                   (kbar)     P=      406.27
   0.00294836   0.00000000   0.00000000          433.72        0.00        0.00
   0.00000000   0.00294836   0.00000000            0.00      433.72        0.00
   0.00000000   0.00000000   0.00238854            0.00        0.00      351.37

     Energy error            =      3.3E-01 Ry
     Gradient error          =      1.5E-01 Ry/Bohr
     Cell gradient error     =      1.5E+02 kbar

     number of scf cycles    =   2
     number of bfgs steps    =   1

     enthalpy           old  =     -75.4940399775 Ry
     enthalpy           new  =     -75.8233949327 Ry

     CASE: enthalpy          _new < enthalpy          _old

     new trust radius        =       0.2658460410 bohr
ibrav =      4
 celldm(1) =      6.24696354
 celldm(3) =      4.09841508
Input lattice vectors:
     0.92359258     0.00000000     0.00000000
    -0.46179629     0.79985464     0.00000000
     0.00000000     0.00000000     3.78526576
New lattice vectors in INITIAL alat:
     0.92359258     0.00000000     0.00000000
    -0.46179629     0.79985464     0.00000000
     0.00000000     0.00000000     3.78526576
New lattice vectors in NEW alat (for information only):
     1.00000000     0.00000000     0.00000000
    -0.50000000     0.86602540     0.00000000
     0.00000000     0.00000000     4.09841508
Discrepancy in bohr =     0.000000    0.000000    0.000000
     new conv_thr            =       0.0000000100 Ry

     new unit-cell volume =    865.27366 a.u.^3 (   128.22033 Ang^3 )
     density =      2.36214 g/cm^3

CELL_PARAMETERS (alat=  6.76376540)
   0.923592580   0.000000000   0.000000000
  -0.461796290   0.799854637   0.000000000
   0.000000000   0.000000000   3.785265756

ATOMIC_POSITIONS (crystal)
Li           -0.0000000000       -0.0000000000        0.1047345807
Li            0.0000000000        0.0000000000        0.8952654193
Si            0.0000000000        0.0000000000        0.2727408548
Si           -0.0000000000       -0.0000000000        0.7272591452
Si            0.3333333300        0.6666666700        0.4759042910
Si            0.6666666700        0.3333333300        0.5240957090
Si            0.3333333300        0.6666666700        0.3278347292
Si            0.6666666700        0.3333333300        0.6721652708



     Writing config-only to output data dir ./output/LiSi.save/
     NEW-OLD atomic charge density approx. for the potential
     extrapolated charge   27.19726, renormalised to   30.00000

     total cpu time spent up to now is      110.5 secs

     Self-consistent Calculation

     iteration #  1     ecut=    80.00 Ry     beta= 0.70
     Davidson diagonalization with overlap
     c_bands:  4 eigenvalues not converged
     c_bands:  1 eigenvalues not converged
     c_bands:  1 eigenvalues not converged
     c_bands:  2 eigenvalues not converged
     c_bands:  3 eigenvalues not converged
     c_bands:  2 eigenvalues not converged
     c_bands:  3 eigenvalues not converged
     c_bands:  2 eigenvalues not converged
     c_bands:  1 eigenvalues not converged
     c_bands:  1 eigenvalues not converged
     c_bands:  1 eigenvalues not converged
     c_bands:  2 eigenvalues not converged
     c_bands:  2 eigenvalues not converged
     c_bands:  1 eigenvalues not converged
     c_bands:  1 eigenvalues not converged
     c_bands:  2 eigenvalues not converged
     c_bands:  1 eigenvalues not converged
     ethr =  1.00E-06,  avg # of iterations = 19.4

     total cpu time spent up to now is      118.3 secs

     total energy              =     -58.57308500 Ry
     estimated scf accuracy    <      21.33712707 Ry

     iteration #  2     ecut=    80.00 Ry     beta= 0.70
     Davidson diagonalization with overlap
     c_bands:  1 eigenvalues not converged
     ethr =  1.00E-02,  avg # of iterations = 15.5

     total cpu time spent up to now is      125.0 secs

     total energy              =     -64.69503504 Ry
     estimated scf accuracy    <     598.45803688 Ry

     iteration #  3     ecut=    80.00 Ry     beta= 0.70
     Davidson diagonalization with overlap
     ethr =  1.00E-02,  avg # of iterations =  7.8

     total cpu time spent up to now is      128.7 secs

     total energy              =     -77.68415439 Ry
     estimated scf accuracy    <     109.84777721 Ry

     iteration #  4     ecut=    80.00 Ry     beta= 0.70
     Davidson diagonalization with overlap
     ethr =  1.00E-02,  avg # of iterations =  5.5

     total cpu time spent up to now is      131.1 secs

     total energy              =     -79.64950121 Ry
     estimated scf accuracy    <      47.26150235 Ry

     iteration #  5     ecut=    80.00 Ry     beta= 0.70
     Davidson diagonalization with overlap
     ethr =  1.00E-02,  avg # of iterations =  2.7

     total cpu time spent up to now is      132.7 secs

     total energy              =     -78.30990405 Ry
     estimated scf accuracy    <      24.66582762 Ry

     iteration #  6     ecut=    80.00 Ry     beta= 0.70
     Davidson diagonalization with overlap
     ethr =  1.00E-02,  avg # of iterations =  3.2

     total cpu time spent up to now is      134.4 secs

     total energy              =     -78.87563877 Ry
     estimated scf accuracy    <       3.76687923 Ry

     iteration #  7     ecut=    80.00 Ry     beta= 0.70
     Davidson diagonalization with overlap
     ethr =  1.00E-02,  avg # of iterations =  1.1

     total cpu time spent up to now is      135.9 secs

     total energy              =     -78.79563042 Ry
     estimated scf accuracy    <       2.70211778 Ry

     iteration #  8     ecut=    80.00 Ry     beta= 0.70
     Davidson diagonalization with overlap
     ethr =  9.01E-03,  avg # of iterations =  1.2

     total cpu time spent up to now is      137.4 secs

     total energy              =     -78.70974996 Ry
     estimated scf accuracy    <       1.40823063 Ry

     iteration #  9     ecut=    80.00 Ry     beta= 0.70
     Davidson diagonalization with overlap
     ethr =  4.69E-03,  avg # of iterations =  2.9

     total cpu time spent up to now is      139.0 secs

     total energy              =     -78.83475619 Ry
     estimated scf accuracy    <       0.04820787 Ry

     iteration # 10     ecut=    80.00 Ry     beta= 0.70
     Davidson diagonalization with overlap
     ethr =  1.61E-04,  avg # of iterations =  6.6

     total cpu time spent up to now is      141.4 secs

     total energy              =     -78.84286240 Ry
     estimated scf accuracy    <       0.01720731 Ry

     iteration # 11     ecut=    80.00 Ry     beta= 0.70
     Davidson diagonalization with overlap
     ethr =  5.74E-05,  avg # of iterations =  7.6

     total cpu time spent up to now is      143.9 secs

     total energy              =     -78.85880309 Ry
     estimated scf accuracy    <       0.13128303 Ry

     iteration # 12     ecut=    80.00 Ry     beta= 0.70
     Davidson diagonalization with overlap
     ethr =  5.74E-05,  avg # of iterations =  1.1

     total cpu time spent up to now is      145.4 secs

     total energy              =     -78.87140231 Ry
     estimated scf accuracy    <       0.12112320 Ry

     iteration # 13     ecut=    80.00 Ry     beta= 0.70
     Davidson diagonalization with overlap
     ethr =  5.74E-05,  avg # of iterations =  2.5

     total cpu time spent up to now is      147.0 secs

     total energy              =     -78.82712323 Ry
     estimated scf accuracy    <       0.24652590 Ry

     iteration # 14     ecut=    80.00 Ry     beta= 0.70
     Davidson diagonalization with overlap
     ethr =  5.74E-05,  avg # of iterations =  5.0

     total cpu time spent up to now is      149.1 secs

     total energy              =     -78.84166424 Ry
     estimated scf accuracy    <       0.01045629 Ry

     iteration # 15     ecut=    80.00 Ry     beta= 0.70
     Davidson diagonalization with overlap
     ethr =  3.49E-05,  avg # of iterations =  5.3

     total cpu time spent up to now is      151.4 secs

     total energy              =     -78.84452545 Ry
     estimated scf accuracy    <       0.02938202 Ry

     iteration # 16     ecut=    80.00 Ry     beta= 0.70
     Davidson diagonalization with overlap
     ethr =  3.49E-05,  avg # of iterations =  1.1

     total cpu time spent up to now is      152.8 secs

     total energy              =     -78.84404995 Ry
     estimated scf accuracy    <       0.01310531 Ry

     iteration # 17     ecut=    80.00 Ry     beta= 0.70
     Davidson diagonalization with overlap
     ethr =  3.49E-05,  avg # of iterations =  1.0

     total cpu time spent up to now is      154.3 secs

     total energy              =     -78.84224525 Ry
     estimated scf accuracy    <       0.00558644 Ry

     iteration # 18     ecut=    80.00 Ry     beta= 0.70
     Davidson diagonalization with overlap
     ethr =  1.86E-05,  avg # of iterations =  4.4

     total cpu time spent up to now is      156.3 secs

     total energy              =     -78.84292218 Ry
     estimated scf accuracy    <       0.00629365 Ry

     iteration # 19     ecut=    80.00 Ry     beta= 0.70
     Davidson diagonalization with overlap
     ethr =  1.86E-05,  avg # of iterations =  1.5

     total cpu time spent up to now is      157.7 secs

     total energy              =     -78.84332348 Ry
     estimated scf accuracy    <       0.00019071 Ry

     iteration # 20     ecut=    80.00 Ry     beta= 0.70
     Davidson diagonalization with overlap
     ethr =  6.36E-07,  avg # of iterations =  5.6

     total cpu time spent up to now is      159.9 secs

     total energy              =     -78.84336405 Ry
     estimated scf accuracy    <       0.00061253 Ry

     iteration # 21     ecut=    80.00 Ry     beta= 0.70
     Davidson diagonalization with overlap
     ethr =  6.36E-07,  avg # of iterations =  1.9

     total cpu time spent up to now is      161.4 secs

     total energy              =     -78.84336473 Ry
     estimated scf accuracy    <       0.00008787 Ry

     iteration # 22     ecut=    80.00 Ry     beta= 0.70
     Davidson diagonalization with overlap
     ethr =  2.93E-07,  avg # of iterations =  2.2

     total cpu time spent up to now is      163.0 secs

     total energy              =     -78.84337940 Ry
     estimated scf accuracy    <       0.00000520 Ry

     iteration # 23     ecut=    80.00 Ry     beta= 0.70
     Davidson diagonalization with overlap
     ethr =  1.73E-08,  avg # of iterations =  2.8

     total cpu time spent up to now is      164.6 secs

     total energy              =     -78.84338036 Ry
     estimated scf accuracy    <       0.00000013 Ry

     iteration # 24     ecut=    80.00 Ry     beta= 0.70
     Davidson diagonalization with overlap
     ethr =  4.41E-10,  avg # of iterations =  5.0

     total cpu time spent up to now is      166.9 secs

     total energy              =     -78.84338047 Ry
     estimated scf accuracy    <       0.00000018 Ry

     iteration # 25     ecut=    80.00 Ry     beta= 0.70
     Davidson diagonalization with overlap
     ethr =  4.41E-10,  avg # of iterations =  2.0

     total cpu time spent up to now is      168.5 secs

     End of self-consistent calculation

          k = 0.0000 0.0000 0.0000 ( 13797 PWs)   bands (ev):

   -39.8911 -39.8841  -7.9096  -6.5128  -5.1238  -1.0554   1.7324   4.4883
     4.5616   5.9628   5.9628   6.9333   6.9333   7.1956   7.4406   7.4406
     9.5838  10.4872  10.4877

          k = 0.0000 0.0000-0.1321 ( 13834 PWs)   bands (ev):

   -39.8911 -39.8841  -7.9096  -6.5129  -5.1237  -1.0580   1.7694   3.9119
     5.5058   5.9628   5.9628   6.5464   6.9334   6.9334   7.4405   7.4405
    10.1224  10.4873  10.4875

          k = 0.0000 0.1250 0.0000 ( 13759 PWs)   bands (ev):

   -39.8906 -39.8836  -7.7432  -6.3475  -4.9588  -0.9145   1.8711   4.5792
     4.6260   4.8644   5.4914   5.8483   6.5469   6.6010   7.2132   7.2642
     9.6774   9.7996  10.4363

          k = 0.0000 0.1250-0.1321 ( 13810 PWs)   bands (ev):

   -39.8906 -39.8836  -7.7432  -6.3475  -4.9586  -0.9170   1.9076   4.0389
     4.7634   5.4914   5.6321   5.8087   6.5244   6.6010   6.7262   7.2133
     9.6144  10.0435  10.8146

          k = 0.0000 0.2500 0.0000 ( 13735 PWs)   bands (ev):

   -39.8894 -39.8825  -7.2475  -5.8559  -4.4681  -0.5221   2.2309   2.6537
     3.8137   4.6923   4.7069   5.1161   5.1258   5.8898   6.6415   7.0273
     8.8165   9.7146   9.8244

          k = 0.0000 0.2500-0.1321 ( 13750 PWs)   bands (ev):

   -39.8894 -39.8825  -7.2475  -5.8559  -4.4680  -0.5246   2.2596   2.6562
     3.8111   4.5367   4.7069   4.7205   5.8897   6.0325   6.6306   6.6417
     8.7004   9.3201  10.4871

          k = 0.0000 0.3751 0.0000 ( 13733 PWs)   bands (ev):

   -39.8880 -39.8811  -6.4367  -5.0567  -3.6724  -0.2605   0.8156   1.7181
     2.6411   3.1528   4.0532   5.2582   5.4805   5.7596   6.0696   6.5128
     8.0635   8.9953   9.4112

          k = 0.0000 0.3751-0.1321 ( 13738 PWs)   bands (ev):

   -39.8880 -39.8811  -6.4367  -5.0568  -3.6722  -0.2615   0.8148   1.7156
     2.6419   3.1894   4.0532   5.1726   5.2580   5.9687   6.0699   6.7041
     8.0386   8.9829   9.5018

          k = 0.0000 0.5001 0.0000 ( 13712 PWs)   bands (ev):

   -39.8868 -39.8799  -5.3574  -4.0411  -2.7176  -1.4504  -0.4892   0.7734
     1.6714   3.5300   3.6404   4.8531   5.1547   5.6896   6.3826   6.7874
     7.5245   8.2090   8.8851

          k = 0.0000 0.5001-0.1321 ( 13734 PWs)   bands (ev):

   -39.8868 -39.8799  -5.3574  -4.0411  -2.7174  -1.4503  -0.4893   0.7739
     1.6669   3.5420   3.6405   4.8529   5.2102   5.6899   6.1071   6.9722
     7.5222   8.3819   8.9524

          k = 0.0000-0.6251 0.0000 ( 13714 PWs)   bands (ev):

   -39.8863 -39.8795  -4.4387  -3.6650  -2.4582  -1.7757  -1.0323  -0.6436
     2.4675   3.0155   3.5004   4.7151   5.5586   5.5825   5.9351   7.2476
     7.3286   8.5587   8.6201

          k = 0.0000-0.6251-0.1321 ( 13736 PWs)   bands (ev):

   -39.8863 -39.8795  -4.4387  -3.6650  -2.4583  -1.7759  -1.0322  -0.6429
     2.4615   3.0165   3.5004   4.7148   5.5590   5.5873   6.0273   7.1545
     7.3355   7.9438   8.9124

          k = 0.1083 0.1875 0.0000 ( 13769 PWs)   bands (ev):

   -39.8898 -39.8829  -7.4121  -6.0189  -4.6308  -0.6453   2.1311   3.4813
     4.0731   4.8362   4.9096   5.1198   5.2685   6.1572   6.1742   7.2816
     9.7381  10.0574  10.2108

          k = 0.1083 0.1875-0.1321 ( 13762 PWs)   bands (ev):

   -39.8898 -39.8829  -7.4120  -6.0189  -4.6306  -0.6479   2.1650   3.4728
     4.0952   4.3465   4.9898   5.2055   5.9225   6.1578   6.1692   6.7887
     9.5456  10.1764  10.2136

          k = 0.1083 0.3126 0.0000 ( 13754 PWs)   bands (ev):

   -39.8885 -39.8816  -6.7579  -5.3718  -3.9851  -0.2212   1.6599   2.3051
     2.9771   3.2779   4.0638   4.7616   5.4121   5.4874   5.5353   7.0028
     9.1871   9.5958  10.3722

          k = 0.1083 0.3126-0.1321 ( 13740 PWs)   bands (ev):

   -39.8885 -39.8816  -6.7579  -5.3719  -3.9849  -0.2233   1.6590   2.3107
     3.0049   3.2781   4.0720   4.7359   4.9598   5.4780   6.3238   6.6883
     9.1330   9.5920  10.1288

          k = 0.1083 0.4376 0.0000 ( 13732 PWs)   bands (ev):

   -39.8871 -39.8803  -5.8051  -4.4441  -3.0662  -0.7475   0.3372   1.4274
     1.6968   2.9965   3.3992   4.1667   4.9203   5.5594   6.2116   6.7247
     8.4993   8.8827   9.8399

          k = 0.1083 0.4376-0.1321 ( 13732 PWs)   bands (ev):

   -39.8871 -39.8803  -5.8051  -4.4442  -3.0660  -0.7476   0.3371   1.4236
     1.6968   2.9970   3.4198   4.1731   4.9182   5.5486   6.0040   6.9357
     8.8314   8.9370   9.3483

          k = 0.1083 0.5626 0.0000 ( 13720 PWs)   bands (ev):

   -39.8863 -39.8795  -4.6654  -3.5522  -2.4341  -1.4960  -1.1257   0.0005
     2.1672   2.6388   3.1854   4.0551   4.6522   5.4622   6.2978   7.1748
     8.4344   8.5330   9.0237

          k = 0.1083 0.5626-0.1321 ( 13706 PWs)   bands (ev):

   -39.8863 -39.8795  -4.6654  -3.5523  -2.4341  -1.4959  -1.1257   0.0010
     2.1632   2.6388   3.1864   4.0545   4.6524   5.5071   6.2863   7.1142
     8.2224   8.5337   9.1904

          k = 0.2165 0.3751 0.0000 ( 13758 PWs)   bands (ev):

   -39.8873 -39.8804  -5.9579  -4.5879  -3.2019  -0.2851   1.0142   1.2907
     2.0167   2.5457   3.5488   3.6937   3.7927   5.8865   5.9645   6.8253
     8.6100  10.2246  10.6934

          k = 0.2165 0.3751-0.1321 ( 13754 PWs)   bands (ev):

   -39.8873 -39.8804  -5.9579  -4.5880  -3.2017  -0.2856   1.0143   1.2889
     2.0137   2.5489   3.5668   3.7077   3.7903   5.5649   6.3559   6.6731
     9.3632   9.4172  10.2035

          k = 0.2165 0.5001 0.0000 ( 13732 PWs)   bands (ev):

   -39.8863 -39.8795  -4.8946  -3.6049  -2.2411  -1.2919  -0.3432   0.5880
     1.6773   1.9317   2.4918   3.2224   4.0399   5.6391   6.1743   7.2268
     8.4845   9.2244   9.9830

          k = 0.2165 0.5001-0.1321 ( 13726 PWs)   bands (ev):

   -39.8863 -39.8795  -4.8946  -3.6050  -2.2409  -1.2919  -0.3432   0.5881
     1.6772   1.9303   2.4902   3.2219   4.0495   5.6766   6.1634   7.0402
     8.6992   9.5957   9.9386

          k = 0.2165 0.6251 0.0000 ( 13726 PWs)   bands (ev):

   -39.8859 -39.8792  -3.9751  -3.2956  -1.9746  -1.4464  -0.9574  -0.4120
     1.2573   1.9022   2.7230   3.2263   3.6975   5.8067   6.0225   7.4035
     9.0118   9.1093   9.4028

          k = 0.2165 0.6251-0.1321 ( 13716 PWs)   bands (ev):

   -39.8859 -39.8792  -3.9751  -3.2956  -1.9747  -1.4465  -0.9573  -0.4115
     1.2572   1.9029   2.7216   3.2229   3.6958   5.8202   6.0296   7.6808
     8.0980   9.0123  10.1309

          k = 0.3248 0.5626 0.0000 ( 13716 PWs)   bands (ev):

   -39.8858 -39.8790  -3.8156  -3.0044  -1.5892  -1.5353  -0.8340  -0.4441
     0.9250   1.5527   1.6428   3.1342   3.9309   5.4473   6.1922   7.7274
     8.6184   9.2408   9.4469

          k = 0.3248 0.5626-0.1321 ( 13718 PWs)   bands (ev):

   -39.8858 -39.8790  -3.8156  -3.0044  -1.5893  -1.5352  -0.8339  -0.4443
     0.9252   1.5534   1.6437   3.1292   3.9291   5.4455   6.2109   7.9204
     8.3873   9.1099   9.2753

     the Fermi energy is     6.6671 ev

!    total energy              =     -78.84338048 Ry
     estimated scf accuracy    <          6.0E-09 Ry
     smearing contrib. (-TS)   =       0.00082779 Ry
     internal energy E=F+TS    =     -78.84420828 Ry

     The total energy is F=E-TS. E is the sum of the following terms:
     one-electron contribution =     -55.01036084 Ry
     hartree contribution      =      37.83684706 Ry
     xc contribution           =     -26.66877473 Ry
     ewald contribution        =     -35.00191977 Ry

     convergence has been achieved in  25 iterations

     Forces acting on atoms (cartesian axes, Ry/au):

     atom    1 type  1   force =     0.00000000    0.00000000   -0.04156353
     atom    2 type  1   force =     0.00000000    0.00000000    0.04156353
     atom    3 type  2   force =     0.00000000    0.00000000   -0.15733071
     atom    4 type  2   force =     0.00000000    0.00000000    0.15733071
     atom    5 type  2   force =     0.00000000    0.00000000    0.01934472
     atom    6 type  2   force =     0.00000000    0.00000000   -0.01934472
     atom    7 type  2   force =     0.00000000    0.00000000   -0.06314946
     atom    8 type  2   force =     0.00000000    0.00000000    0.06314946
     The non-local contrib.  to forces
     atom    1 type  1   force =     0.00000000    0.00000000   -0.11511206
     atom    2 type  1   force =     0.00000000   -0.00000000    0.11511206
     atom    3 type  2   force =     0.00000000   -0.00000000   -0.11645060
     atom    4 type  2   force =     0.00000000    0.00000000    0.11645060
     atom    5 type  2   force =     0.00000000   -0.00000000    0.02972141
     atom    6 type  2   force =    -0.00000000   -0.00000000   -0.02972141
     atom    7 type  2   force =     0.00000000   -0.00000000   -0.03170171
     atom    8 type  2   force =     0.00000000    0.00000000    0.03170171
     The ionic contribution  to forces
     atom    1 type  1   force =    -0.00000000    0.00000000   -3.79246923
     atom    2 type  1   force =     0.00000000   -0.00000000    3.79246923
     atom    3 type  2   force =    -0.00000003    0.00000002   -6.97405653
     atom    4 type  2   force =     0.00000003   -0.00000002    6.97405653
     atom    5 type  2   force =     0.00000007   -0.00000004   -0.70970268
     atom    6 type  2   force =    -0.00000007    0.00000004    0.70970268
     atom    7 type  2   force =     0.00000003   -0.00000002   -5.16282586
     atom    8 type  2   force =    -0.00000003    0.00000002    5.16282586
     The local contribution  to forces
     atom    1 type  1   force =    -0.00000000   -0.00000000    3.86603915
     atom    2 type  1   force =    -0.00000000    0.00000000   -3.86603915
     atom    3 type  2   force =    -0.00000000   -0.00000000    6.92164608
     atom    4 type  2   force =     0.00000000    0.00000000   -6.92164608
     atom    5 type  2   force =     0.00000001   -0.00000000    0.70118031
     atom    6 type  2   force =    -0.00000001    0.00000000   -0.70118031
     atom    7 type  2   force =     0.00000001   -0.00000000    5.12957957
     atom    8 type  2   force =    -0.00000001    0.00000000   -5.12957957
     The core correction contribution to forces
     atom    1 type  1   force =     0.00000000    0.00000000    0.00000000
     atom    2 type  1   force =     0.00000000    0.00000000    0.00000000
     atom    3 type  2   force =     0.00000000   -0.00000000    0.01156804
     atom    4 type  2   force =    -0.00000000    0.00000000   -0.01156804
     atom    5 type  2   force =    -0.00000000    0.00000000   -0.00181701
     atom    6 type  2   force =     0.00000000   -0.00000000    0.00181701
     atom    7 type  2   force =    -0.00000000    0.00000000    0.00185759
     atom    8 type  2   force =     0.00000000   -0.00000000   -0.00185759
     The Hubbard contrib.    to forces
     atom    1 type  1   force =     0.00000000    0.00000000    0.00000000
     atom    2 type  1   force =     0.00000000    0.00000000    0.00000000
     atom    3 type  2   force =     0.00000000    0.00000000    0.00000000
     atom    4 type  2   force =     0.00000000    0.00000000    0.00000000
     atom    5 type  2   force =     0.00000000    0.00000000    0.00000000
     atom    6 type  2   force =     0.00000000    0.00000000    0.00000000
     atom    7 type  2   force =     0.00000000    0.00000000    0.00000000
     atom    8 type  2   force =     0.00000000    0.00000000    0.00000000
     The SCF correction term to forces
     atom    1 type  1   force =    -0.00000000   -0.00000000   -0.00002138
     atom    2 type  1   force =    -0.00000000   -0.00000000    0.00002138
     atom    3 type  2   force =     0.00000000   -0.00000000   -0.00003771
     atom    4 type  2   force =    -0.00000000    0.00000000    0.00003771
     atom    5 type  2   force =    -0.00000000    0.00000000   -0.00003730
     atom    6 type  2   force =     0.00000000   -0.00000000    0.00003730
     atom    7 type  2   force =     0.00000000   -0.00000000   -0.00005904
     atom    8 type  2   force =    -0.00000000    0.00000000    0.00005904

     Total force =     0.248365     Total SCF correction =     0.000116


     Computing stress (Cartesian axis) and pressure

          total   stress  (Ry/bohr**3)                   (kbar)     P=      558.45
   0.00378948   0.00000000   0.00000000          557.45        0.00        0.00
   0.00000000   0.00378948   0.00000000            0.00      557.45        0.00
   0.00000000   0.00000000   0.00380980            0.00        0.00      560.44

     Energy error            =      7.9E-02 Ry
     Gradient error          =      1.6E-01 Ry/Bohr
     Cell gradient error     =      6.0E+01 kbar

     number of scf cycles    =   3
     number of bfgs steps    =   2

     enthalpy           old  =     -75.8233949327 Ry
     enthalpy           new  =     -75.9023750703 Ry

     CASE: enthalpy          _new < enthalpy          _old

     new trust radius        =       0.2785361839 bohr
ibrav =      4
 celldm(1) =      6.18936959
 celldm(3) =      4.04674658
Input lattice vectors:
     0.91507751     0.00000000     0.00000000
    -0.45753875     0.79248037     0.00000000
     0.00000000     0.00000000     3.70308677
New lattice vectors in INITIAL alat:
     0.91507751     0.00000000     0.00000000
    -0.45753875     0.79248037     0.00000000
     0.00000000     0.00000000     3.70308677
New lattice vectors in NEW alat (for information only):
     1.00000000     0.00000000     0.00000000
    -0.50000000     0.86602540     0.00000000
     0.00000000     0.00000000     4.04674658
Discrepancy in bohr =     0.000000    0.000000    0.000000
     new conv_thr            =       0.0000000100 Ry

     new unit-cell volume =    830.95191 a.u.^3 (   123.13437 Ang^3 )
     density =      2.45970 g/cm^3

CELL_PARAMETERS (alat=  6.76376540)
   0.915077508   0.000000000   0.000000000
  -0.457538754   0.792480368   0.000000000
   0.000000000   0.000000000   3.703086773

ATOMIC_POSITIONS (crystal)
Li           -0.0000000000       -0.0000000000        0.1027758585
Li            0.0000000000        0.0000000000        0.8972241415
Si            0.0000000000        0.0000000000        0.2618616611
Si           -0.0000000000       -0.0000000000        0.7381383389
Si            0.3333333300        0.6666666700        0.4767525138
Si            0.6666666700        0.3333333300        0.5232474862
Si            0.3333333300        0.6666666700        0.3243660833
Si            0.6666666700        0.3333333300        0.6756339167



     Writing config-only to output data dir ./output/LiSi.save/
     NEW-OLD atomic charge density approx. for the potential
     extrapolated charge   28.76140, renormalised to   30.00000

     total cpu time spent up to now is      174.7 secs

     Self-consistent Calculation

     iteration #  1     ecut=    80.00 Ry     beta= 0.70
     Davidson diagonalization with overlap
     c_bands:  2 eigenvalues not converged
     c_bands:  2 eigenvalues not converged
     c_bands:  2 eigenvalues not converged
     c_bands:  1 eigenvalues not converged
     c_bands:  2 eigenvalues not converged
     c_bands:  1 eigenvalues not converged
     c_bands:  1 eigenvalues not converged
     c_bands:  2 eigenvalues not converged
     c_bands:  2 eigenvalues not converged
     c_bands:  2 eigenvalues not converged
     c_bands:  1 eigenvalues not converged
     c_bands:  2 eigenvalues not converged
     c_bands:  2 eigenvalues not converged
     c_bands:  1 eigenvalues not converged
     c_bands:  1 eigenvalues not converged
     c_bands:  1 eigenvalues not converged
     c_bands:  1 eigenvalues not converged
     c_bands:  1 eigenvalues not converged
     ethr =  1.00E-06,  avg # of iterations = 19.6

     total cpu time spent up to now is      180.7 secs

     total energy              =     -74.14594866 Ry
     estimated scf accuracy    <       4.88664392 Ry

     iteration #  2     ecut=    80.00 Ry     beta= 0.70
     Davidson diagonalization with overlap
     ethr =  1.00E-02,  avg # of iterations = 10.2

     total cpu time spent up to now is      184.9 secs

     total energy              =     -64.33023792 Ry
     estimated scf accuracy    <     420.34624751 Ry

     iteration #  3     ecut=    80.00 Ry     beta= 0.70
     Davidson diagonalization with overlap
     ethr =  1.00E-02,  avg # of iterations =  8.0

     total cpu time spent up to now is      188.1 secs

     total energy              =     -78.40135362 Ry
     estimated scf accuracy    <      19.59453961 Ry

     iteration #  4     ecut=    80.00 Ry     beta= 0.70
     Davidson diagonalization with overlap
     ethr =  1.00E-02,  avg # of iterations =  2.8

     total cpu time spent up to now is      189.7 secs

     total energy              =     -78.73506354 Ry
     estimated scf accuracy    <       4.81752258 Ry

     iteration #  5     ecut=    80.00 Ry     beta= 0.70
     Davidson diagonalization with overlap
     ethr =  1.00E-02,  avg # of iterations =  1.5

     total cpu time spent up to now is      191.0 secs

     total energy              =     -78.66024104 Ry
     estimated scf accuracy    <       2.07247645 Ry

     iteration #  6     ecut=    80.00 Ry     beta= 0.70
     Davidson diagonalization with overlap
     ethr =  6.91E-03,  avg # of iterations =  2.0

     total cpu time spent up to now is      192.4 secs

     total energy              =     -78.77772879 Ry
     estimated scf accuracy    <       0.14341475 Ry

     iteration #  7     ecut=    80.00 Ry     beta= 0.70
     Davidson diagonalization with overlap
     ethr =  4.78E-04,  avg # of iterations =  5.5

     total cpu time spent up to now is      194.2 secs

     total energy              =     -78.79947336 Ry
     estimated scf accuracy    <       0.05314325 Ry

     iteration #  8     ecut=    80.00 Ry     beta= 0.70
     Davidson diagonalization with overlap
     ethr =  1.77E-04,  avg # of iterations =  2.2

     total cpu time spent up to now is      195.6 secs

     total energy              =     -78.80200085 Ry
     estimated scf accuracy    <       0.07511968 Ry

     iteration #  9     ecut=    80.00 Ry     beta= 0.70
     Davidson diagonalization with overlap
     ethr =  1.77E-04,  avg # of iterations =  1.2

     total cpu time spent up to now is      196.9 secs

     total energy              =     -78.79887893 Ry
     estimated scf accuracy    <       0.09953038 Ry

     iteration # 10     ecut=    80.00 Ry     beta= 0.70
     Davidson diagonalization with overlap
     ethr =  1.77E-04,  avg # of iterations =  1.0

     total cpu time spent up to now is      198.2 secs

     total energy              =     -78.79507313 Ry
     estimated scf accuracy    <       0.04734879 Ry

     iteration # 11     ecut=    80.00 Ry     beta= 0.70
     Davidson diagonalization with overlap
     ethr =  1.58E-04,  avg # of iterations =  1.2

     total cpu time spent up to now is      199.5 secs

     total energy              =     -78.79641732 Ry
     estimated scf accuracy    <       0.00919231 Ry

     iteration # 12     ecut=    80.00 Ry     beta= 0.70
     Davidson diagonalization with overlap
     ethr =  3.06E-05,  avg # of iterations =  3.7

     total cpu time spent up to now is      201.0 secs

     total energy              =     -78.79591981 Ry
     estimated scf accuracy    <       0.00704918 Ry

     iteration # 13     ecut=    80.00 Ry     beta= 0.70
     Davidson diagonalization with overlap
     ethr =  2.35E-05,  avg # of iterations =  3.1

     total cpu time spent up to now is      202.5 secs

     total energy              =     -78.79608125 Ry
     estimated scf accuracy    <       0.00129991 Ry

     iteration # 14     ecut=    80.00 Ry     beta= 0.70
     Davidson diagonalization with overlap
     c_bands:  1 eigenvalues not converged
     ethr =  4.33E-06,  avg # of iterations =  7.0

     total cpu time spent up to now is      204.3 secs

     total energy              =     -78.79612300 Ry
     estimated scf accuracy    <       0.00019073 Ry

     iteration # 15     ecut=    80.00 Ry     beta= 0.70
     Davidson diagonalization with overlap
     ethr =  6.36E-07,  avg # of iterations =  3.9

     total cpu time spent up to now is      206.0 secs

     total energy              =     -78.79616364 Ry
     estimated scf accuracy    <       0.00002254 Ry

     iteration # 16     ecut=    80.00 Ry     beta= 0.70
     Davidson diagonalization with overlap
     ethr =  7.51E-08,  avg # of iterations =  2.1

     total cpu time spent up to now is      207.5 secs

     total energy              =     -78.79616578 Ry
     estimated scf accuracy    <       0.00000103 Ry

     iteration # 17     ecut=    80.00 Ry     beta= 0.70
     Davidson diagonalization with overlap
     ethr =  3.44E-09,  avg # of iterations =  4.1

     total cpu time spent up to now is      209.2 secs

     total energy              =     -78.79616608 Ry
     estimated scf accuracy    <       0.00000003 Ry

     iteration # 18     ecut=    80.00 Ry     beta= 0.70
     Davidson diagonalization with overlap
     ethr =  9.95E-11,  avg # of iterations =  4.0

     total cpu time spent up to now is      211.1 secs

     End of self-consistent calculation

          k = 0.0000 0.0000 0.0000 ( 13797 PWs)   bands (ev):

   -39.3734 -39.3626  -7.6511  -6.1488  -4.9109  -0.8604   1.9264   4.6980
     4.9269   6.3861   6.3861   7.4942   7.6371   7.6371   8.0600   8.0600
    10.3480  10.8300  10.8301

          k = 0.0000 0.0000-0.1350 ( 13834 PWs)   bands (ev):

   -39.3734 -39.3626  -7.6511  -6.1489  -4.9106  -0.8638   1.9678   4.1693
     5.8098   6.3861   6.3861   6.8957   7.6373   7.6373   8.0596   8.0596
    10.8307  10.8318  10.9501

          k = 0.0000 0.1262 0.0000 ( 13759 PWs)   bands (ev):

   -39.3729 -39.3621  -7.4812  -5.9796  -4.7421  -0.7142   2.0704   4.7991
     5.0465   5.2331   5.9208   6.4855   7.0907   7.2843   7.5762   7.7807
    10.2118  10.4679  10.9900

          k = 0.0000 0.1262-0.1350 ( 13810 PWs)   bands (ev):

[...]
     c_bands:  1 eigenvalues not converged
     ethr =  1.00E-06,  avg # of iterations = 20.0

     total cpu time spent up to now is      799.3 secs

     total energy              =     -75.43715403 Ry
     estimated scf accuracy    <       4.23447925 Ry

     iteration #  2     ecut=    80.00 Ry     beta= 0.70
     Davidson diagonalization with overlap
     c_bands:  4 eigenvalues not converged
     c_bands:  1 eigenvalues not converged
     ethr =  1.00E-02,  avg # of iterations = 12.6

     total cpu time spent up to now is      801.1 secs

     total energy              =     -52.15210384 Ry
     estimated scf accuracy    <     683.43295620 Ry

     iteration #  3     ecut=    80.00 Ry     beta= 0.70
     Davidson diagonalization with overlap
     ethr =  1.00E-02,  avg # of iterations =  7.3

     total cpu time spent up to now is      802.5 secs

     total energy              =     -77.93198108 Ry
     estimated scf accuracy    <      20.24524332 Ry

     iteration #  4     ecut=    80.00 Ry     beta= 0.70
     Davidson diagonalization with overlap
     ethr =  1.00E-02,  avg # of iterations =  2.8

     total cpu time spent up to now is      803.3 secs

     total energy              =     -78.90407125 Ry
     estimated scf accuracy    <       5.55408237 Ry

     iteration #  5     ecut=    80.00 Ry     beta= 0.70
     Davidson diagonalization with overlap
     ethr =  1.00E-02,  avg # of iterations =  2.0

     total cpu time spent up to now is      803.9 secs

     total energy              =     -78.94772067 Ry
     estimated scf accuracy    <       1.37928410 Ry

     iteration #  6     ecut=    80.00 Ry     beta= 0.70
     Davidson diagonalization with overlap
     ethr =  4.60E-03,  avg # of iterations =  3.1

     total cpu time spent up to now is      804.5 secs

     total energy              =     -79.04219314 Ry
     estimated scf accuracy    <       0.15982182 Ry

     iteration #  7     ecut=    80.00 Ry     beta= 0.70
     Davidson diagonalization with overlap
     ethr =  5.33E-04,  avg # of iterations =  4.0

     total cpu time spent up to now is      805.2 secs

     total energy              =     -79.03610414 Ry
     estimated scf accuracy    <       0.29960811 Ry

     iteration #  8     ecut=    80.00 Ry     beta= 0.70
     Davidson diagonalization with overlap
     ethr =  5.33E-04,  avg # of iterations =  1.4

     total cpu time spent up to now is      805.9 secs

     total energy              =     -79.04649376 Ry
     estimated scf accuracy    <       0.00289902 Ry

     iteration #  9     ecut=    80.00 Ry     beta= 0.70
     Davidson diagonalization with overlap
     ethr =  9.66E-06,  avg # of iterations =  9.5

     total cpu time spent up to now is      806.9 secs

     total energy              =     -79.04657337 Ry
     estimated scf accuracy    <       0.00946338 Ry

     iteration # 10     ecut=    80.00 Ry     beta= 0.70
     Davidson diagonalization with overlap
     ethr =  9.66E-06,  avg # of iterations =  1.7

     total cpu time spent up to now is      807.4 secs

     total energy              =     -79.04691004 Ry
     estimated scf accuracy    <       0.00015698 Ry

     iteration # 11     ecut=    80.00 Ry     beta= 0.70
     Davidson diagonalization with overlap
     ethr =  5.23E-07,  avg # of iterations =  5.0

     total cpu time spent up to now is      808.2 secs

     total energy              =     -79.04692563 Ry
     estimated scf accuracy    <       0.00002624 Ry

     iteration # 12     ecut=    80.00 Ry     beta= 0.70
     Davidson diagonalization with overlap
     ethr =  8.75E-08,  avg # of iterations =  2.0

     total cpu time spent up to now is      808.8 secs

     total energy              =     -79.04692698 Ry
     estimated scf accuracy    <       0.00000961 Ry

     iteration # 13     ecut=    80.00 Ry     beta= 0.70
     Davidson diagonalization with overlap
     ethr =  3.20E-08,  avg # of iterations =  2.8

     total cpu time spent up to now is      809.4 secs

     total energy              =     -79.04692826 Ry
     estimated scf accuracy    <       0.00000321 Ry

     iteration # 14     ecut=    80.00 Ry     beta= 0.70
     Davidson diagonalization with overlap
     ethr =  1.07E-08,  avg # of iterations =  1.2

     total cpu time spent up to now is      810.0 secs

     total energy              =     -79.04692833 Ry
     estimated scf accuracy    <       0.00000039 Ry

     iteration # 15     ecut=    80.00 Ry     beta= 0.70
     Davidson diagonalization with overlap
     ethr =  1.31E-09,  avg # of iterations =  3.3

     total cpu time spent up to now is      810.7 secs

     total energy              =     -79.04692838 Ry
     estimated scf accuracy    <          7.9E-09 Ry

     iteration # 16     ecut=    80.00 Ry     beta= 0.70
     Davidson diagonalization with overlap
     ethr =  2.64E-11,  avg # of iterations =  4.9

     total cpu time spent up to now is      811.5 secs

     total energy              =     -79.04692838 Ry
     estimated scf accuracy    <          3.4E-10 Ry

     iteration # 17     ecut=    80.00 Ry     beta= 0.70
     Davidson diagonalization with overlap
     ethr =  1.14E-12,  avg # of iterations =  4.1

     total cpu time spent up to now is      812.2 secs

     End of self-consistent calculation

          k = 0.0000 0.0000 0.0000 (  6979 PWs)   bands (ev):

   -33.7927 -33.5487  -4.6919  -4.2526  -3.6864  -1.7402  -0.3713   1.2351
     3.8074   5.9183   8.2306   9.7956  11.1494  14.1849  16.2969  19.8332
    21.3153  25.4473  25.4893

          k = 0.0000 0.0000-0.1047 (  6956 PWs)   bands (ev):

   -33.7927 -33.5487  -4.6919  -4.2528  -3.6861  -1.7408  -0.3699   1.2327
     3.8147   5.8911   8.3987   9.4376  11.5575  13.7061  17.0523  18.7110
    22.8499  23.8634  25.4477

          k = 0.0000 0.1724 0.0000 (  6979 PWs)   bands (ev):

   -33.7767 -33.5351  -4.3561  -3.9178  -3.3530  -1.4092  -0.0432   1.5609
     4.1179   6.2243   8.4932  10.0304  11.4063  14.4519  16.4465  19.6693
    21.0095  21.2261  21.7362

          k = 0.0000 0.1724-0.1047 (  6984 PWs)   bands (ev):

   -33.7767 -33.5351  -4.3561  -3.9180  -3.3528  -1.4098  -0.0417   1.5582
     4.1266   6.1918   8.6930   9.6340  11.8373  13.9423  17.2351  18.6958
    21.1451  21.2530  21.7102

          k = 0.0000 0.3449 0.0000 (  6981 PWs)   bands (ev):

   -33.7350 -33.4996  -3.3528  -2.9178  -2.3574  -0.4207   0.9352   2.5305
     5.0455   7.1343   9.2452  10.7461  12.0923  14.9388  15.9445  16.2730
    16.8161  17.4018  18.4150

          k = 0.0000 0.3449-0.1047 (  6990 PWs)   bands (ev):

   -33.7350 -33.4996  -3.3528  -2.9180  -2.3571  -0.4215   0.9374   2.5264
     5.0593   7.0820   9.5585  10.2198  12.5625  14.5212  15.8424  16.4132
    16.8102  17.7228  18.8088

          k = 0.0000 0.5173 0.0000 (  6955 PWs)   bands (ev):

   -33.6831 -33.4554  -1.6943  -1.2649  -0.7123   1.2099   2.5441   4.1131
     6.5694   8.5854  10.2871  10.9706  11.4177  11.9133  12.5826  13.7358
    14.0237  15.1807  16.4498

          k = 0.0000 0.5173-0.1047 (  6944 PWs)   bands (ev):

   -33.6831 -33.4554  -1.6943  -1.2653  -0.7119   1.2086   2.5480   4.1056
     6.5961   8.4877  10.6724  10.8488  11.3326  11.7223  12.4433  13.8724
    14.3353  15.3312  15.9390

          k = 0.0000 0.6898 0.0000 (  6921 PWs)   bands (ev):

   -33.6409 -33.4195   0.5981   1.0181   1.5575   3.4421   4.7064   6.0854
     7.0436   7.5266   8.0370   8.7462   9.9595  10.9421  11.0782  12.0038
    12.6243  13.8865  15.1810

          k = 0.0000 0.6898-0.1047 (  6930 PWs)   bands (ev):

   -33.6409 -33.4195   0.5982   1.0175   1.5584   3.4395   4.7143   6.0724
     7.0439   7.5262   8.0371   8.7934   9.9681  10.6159  11.2290  12.3348
    12.7011  13.4571  14.9993

          k = 0.0000-0.8622 0.0000 (  6898 PWs)   bands (ev):

   -33.6248 -33.4058   3.4184   3.5029   3.8941   3.8969   4.3109   4.4658
     6.1394   6.5353   7.4426   7.9381   9.2273   9.6903  11.0097  11.8627
    12.8565  13.6477  13.7753

          k = 0.0000-0.8622-0.1047 (  6908 PWs)   bands (ev):

   -33.6248 -33.4058   3.4184   3.5035   3.8941   3.8941   4.3140   4.4662
     6.1321   6.5349   7.4625   7.9387   9.2228   9.5967  11.3815  11.8623
    12.1796  13.5779  14.9334

          k = 0.1493 0.2587 0.0000 (  6965 PWs)   bands (ev):

   -33.7479 -33.5106  -3.6866  -3.2504  -2.6885  -0.7494   0.6100   2.2087
     4.7370   6.8328   9.0019  10.5080  11.8913  14.9310  16.6023  18.3814
    18.6588  18.7420  19.2508

          k = 0.1493 0.2587-0.1047 (  6972 PWs)   bands (ev):

   -33.7479 -33.5106  -3.6865  -3.2507  -2.6883  -0.7501   0.6120   2.2052
     4.7490   6.7878   9.2744  10.0272  12.3601  14.3837  17.3132  18.0477
    18.6584  18.9515  19.2641

          k = 0.1493 0.4311 0.0000 (  6970 PWs)   bands (ev):

   -33.7010 -33.4707  -2.3557  -1.9239  -1.3681   0.5604   1.9045   3.4869
     5.9659   8.0276   9.9430  11.4603  12.4504  13.7062  14.3469  14.7649
    15.7488  16.2304  16.8208

          k = 0.1493 0.4311-0.1047 (  6968 PWs)   bands (ev):

   -33.7010 -33.4707  -2.3556  -1.9242  -1.3677   0.5594   1.9075   3.4810
     5.9866   7.9497  10.3801  10.8001  12.7872  13.7620  14.4580  14.7600
    15.4223  16.1980  16.7797

          k = 0.1493 0.6035 0.0000 (  6920 PWs)   bands (ev):

   -33.6540 -33.4306  -0.3799   0.0445   0.5902   2.4970   3.8062   5.3332
     7.7375   9.0984   9.5555   9.6839  10.6004  11.3354  12.1012  13.0864
    13.2781  14.3698  14.5628

          k = 0.1493 0.6035-0.1047 (  6934 PWs)   bands (ev):

   -33.6540 -33.4306  -0.3798   0.0441   0.5909   2.4951   3.8119   5.3222
     7.7761   9.0806   9.5143   9.6507  10.5232  11.7727  12.1816  12.4795
    13.2570  14.4646  14.7594

          k = 0.1493 0.7760 0.0000 (  6909 PWs)   bands (ev):

   -33.6248 -33.4058   2.2115   2.6222   3.1492   4.8585   5.4074   5.8535
     5.9570   6.7306   7.9052   8.4218   9.6732  10.3482  11.1191  12.2714
    12.5258  13.6208  14.5596

          k = 0.1493 0.7760-0.1047 (  6908 PWs)   bands (ev):

   -33.6248 -33.4058   2.2117   2.6213   3.1504   4.8550   5.4084   5.8528
     5.9620   6.7346   7.8852   8.4209   9.6818  10.5028  10.9603  11.9131
    13.0551  13.8059  14.2548

          k = 0.2987 0.5173 0.0000 (  6923 PWs)   bands (ev):

   -33.6590 -33.4349  -0.7074  -0.2816   0.2660   2.1779   3.4965   5.0434
     7.4727   9.4336  10.9411  11.8329  11.9001  12.2189  12.2667  12.7304
    13.0217  13.6206  14.5552

          k = 0.2987 0.5173-0.1047 (  6938 PWs)   bands (ev):

   -33.6590 -33.4349  -0.7073  -0.2820   0.2666   2.1762   3.5015   5.0337
     7.5079   9.3081  11.4033  11.5466  11.9094  12.0663  12.3726  12.6162
    13.0848  13.4467  14.5796

          k = 0.2987 0.6898 0.0000 (  6899 PWs)   bands (ev):

   -33.6249 -33.4059   1.5703   1.9861   2.5197   4.3877   5.6293   6.9759
     7.9753   8.4434   8.9182   9.5760  10.6242  10.9403  11.3408  11.5489
    12.0196  12.4048  12.9296

          k = 0.2987 0.6898-0.1047 (  6896 PWs)   bands (ev):

   -33.6249 -33.4059   1.5705   1.9854   2.5206   4.3848   5.6381   6.9619
     7.9755   8.4426   8.9173   9.6247  10.6225  10.9184  11.2909  11.6260
    11.7604  12.5007  13.2855

          k = 0.2987 0.8622 0.0000 (  6904 PWs)   bands (ev):

   -33.6119 -33.3948   4.3651   4.4552   4.8400   4.8466   5.2502   5.4063
     7.0470   7.4420   8.3510   8.7423   9.8022  10.1928  10.7780  11.3225
    12.0161  12.0906  12.8646

          k = 0.2987 0.8622-0.1047 (  6904 PWs)   bands (ev):

   -33.6119 -33.3948   4.3651   4.4558   4.8399   4.8439   5.2531   5.4068
     7.0404   7.4411   8.3687   8.7455   9.7955  10.1487  10.7762  11.3306
    11.9602  12.3274  12.8718

          k = 0.4480 0.7760 0.0000 (  6924 PWs)   bands (ev):

   -33.6070 -33.3906   4.1235   4.5219   5.0334   6.6249   7.0902   7.2991
     7.4915   7.7697   7.9505   8.0746   8.7363   9.5871   9.8372  10.4285
    11.7455  11.9288  12.3430

          k = 0.4480 0.7760-0.1047 (  6910 PWs)   bands (ev):

   -33.6070 -33.3906   4.1238   4.5208   5.0350   6.6211   7.0926   7.2974
     7.4923   7.7714   7.9532   8.0748   8.7416   9.5691   9.8357  10.4274
    11.7354  11.9481  12.5647

     the Fermi energy is    12.3579 ev

!    total energy              =     -79.04692838 Ry
     estimated scf accuracy    <          8.1E-11 Ry
     smearing contrib. (-TS)   =       0.00039199 Ry
     internal energy E=F+TS    =     -79.04732037 Ry

     The total energy is F=E-TS. E is the sum of the following terms:
     one-electron contribution =      16.40574720 Ry
     hartree contribution      =       7.80144209 Ry
     xc contribution           =     -27.01493554 Ry
     ewald contribution        =     -76.23957413 Ry

     convergence has been achieved in  17 iterations

     Forces acting on atoms (cartesian axes, Ry/au):

     atom    1 type  1   force =    -0.00000000    0.00000000    0.00015540
     atom    2 type  1   force =     0.00000000    0.00000000   -0.00015540
     atom    3 type  2   force =     0.00000000   -0.00000000    0.00009778
     atom    4 type  2   force =     0.00000000    0.00000000   -0.00009778
     atom    5 type  2   force =    -0.00000000   -0.00000000   -0.00012021
     atom    6 type  2   force =    -0.00000000   -0.00000000    0.00012021
     atom    7 type  2   force =     0.00000000    0.00000000    0.00017086
     atom    8 type  2   force =    -0.00000000   -0.00000000   -0.00017086
     The non-local contrib.  to forces
     atom    1 type  1   force =     0.00000000    0.00000000    0.00084595
     atom    2 type  1   force =     0.00000000    0.00000000   -0.00084595
     atom    3 type  2   force =     0.00000000    0.00000000    0.06402126
     atom    4 type  2   force =     0.00000000    0.00000000   -0.06402126
     atom    5 type  2   force =     0.00000000   -0.00000000    0.08522293
     atom    6 type  2   force =     0.00000000   -0.00000000   -0.08522293
     atom    7 type  2   force =     0.00000000    0.00000000   -0.07516216
     atom    8 type  2   force =     0.00000000    0.00000000    0.07516216
     The ionic contribution  to forces
     atom    1 type  1   force =    -0.00000000    0.00000000   -0.72908295
     atom    2 type  1   force =     0.00000000   -0.00000000    0.72908295
     atom    3 type  2   force =    -0.00000000    0.00000000   -2.64114202
     atom    4 type  2   force =     0.00000000   -0.00000000    2.64114202
     atom    5 type  2   force =     0.00000000   -0.00000000   -0.78906451
     atom    6 type  2   force =    -0.00000000    0.00000000    0.78906451
     atom    7 type  2   force =     0.00000000   -0.00000000   -0.87950838
     atom    8 type  2   force =    -0.00000000    0.00000000    0.87950838
     The local contribution  to forces
     atom    1 type  1   force =    -0.00000000   -0.00000000    0.72838474
     atom    2 type  1   force =     0.00000000    0.00000000   -0.72838474
     atom    3 type  2   force =    -0.00000000   -0.00000000    2.57850159
     atom    4 type  2   force =     0.00000000    0.00000000   -2.57850159
     atom    5 type  2   force =    -0.00000001    0.00000000    0.70808588
     atom    6 type  2   force =     0.00000001   -0.00000000   -0.70808588
     atom    7 type  2   force =    -0.00000001    0.00000000    0.95124870
     atom    8 type  2   force =     0.00000001   -0.00000000   -0.95124870
     The core correction contribution to forces
     atom    1 type  1   force =     0.00000000    0.00000000    0.00000000
     atom    2 type  1   force =     0.00000000    0.00000000    0.00000000
     atom    3 type  2   force =     0.00000000   -0.00000000   -0.00129055
     atom    4 type  2   force =    -0.00000000    0.00000000    0.00129055
     atom    5 type  2   force =    -0.00000000    0.00000000   -0.00437001
     atom    6 type  2   force =     0.00000000   -0.00000000    0.00437001
     atom    7 type  2   force =    -0.00000000    0.00000000    0.00358212
     atom    8 type  2   force =     0.00000000   -0.00000000   -0.00358212
     The Hubbard contrib.    to forces
     atom    1 type  1   force =     0.00000000    0.00000000    0.00000000
     atom    2 type  1   force =     0.00000000    0.00000000    0.00000000
     atom    3 type  2   force =     0.00000000    0.00000000    0.00000000
     atom    4 type  2   force =     0.00000000    0.00000000    0.00000000
     atom    5 type  2   force =     0.00000000    0.00000000    0.00000000
     atom    6 type  2   force =     0.00000000    0.00000000    0.00000000
     atom    7 type  2   force =     0.00000000    0.00000000    0.00000000
     atom    8 type  2   force =     0.00000000    0.00000000    0.00000000
     The SCF correction term to forces
     atom    1 type  1   force =     0.00000000    0.00000000    0.00000766
     atom    2 type  1   force =    -0.00000000   -0.00000000   -0.00000766
     atom    3 type  2   force =    -0.00000000    0.00000000    0.00000751
     atom    4 type  2   force =     0.00000000   -0.00000000   -0.00000751
     atom    5 type  2   force =     0.00000000   -0.00000000    0.00000549
     atom    6 type  2   force =    -0.00000000    0.00000000   -0.00000549
     atom    7 type  2   force =    -0.00000000    0.00000000    0.00001057
     atom    8 type  2   force =     0.00000000   -0.00000000   -0.00001057

     Total force =     0.000393     Total SCF correction =     0.000023


     Computing stress (Cartesian axis) and pressure

          total   stress  (Ry/bohr**3)                   (kbar)     P=      499.70
   0.00339735   0.00000000   0.00000000          499.77        0.00        0.00
   0.00000000   0.00339735   0.00000000            0.00      499.77        0.00
   0.00000000   0.00000000   0.00339594            0.00        0.00      499.56


     Writing all to output data dir ./output/LiSi.save/

     init_run     :      3.12s CPU      4.36s WALL (       2 calls)
     electrons    :    616.01s CPU    679.23s WALL (      22 calls)
     update_pot   :     21.16s CPU     21.35s WALL (      20 calls)
     forces       :     16.66s CPU     16.88s WALL (      22 calls)
     stress       :     88.59s CPU     91.97s WALL (      22 calls)

     Called by init_run:
     wfcinit      :      1.22s CPU      1.93s WALL (       2 calls)
     potinit      :      0.83s CPU      1.20s WALL (       2 calls)
     hinit0       :      0.92s CPU      1.04s WALL (       2 calls)

     Called by electrons:
     c_bands      :    550.48s CPU    604.75s WALL (     345 calls)
     sum_band     :     58.45s CPU     65.78s WALL (     345 calls)
     v_of_rho     :      6.56s CPU      7.80s WALL (     367 calls)
     mix_rho      :      0.80s CPU      0.98s WALL (     345 calls)

     Called by c_bands:
     init_us_2    :     12.82s CPU     14.38s WALL (   20608 calls)
     init_us_2:cp :     12.78s CPU     14.35s WALL (   20608 calls)
     cegterg      :    506.40s CPU    556.06s WALL (    9668 calls)

     Called by *egterg:
     cdiaghg      :     22.15s CPU     23.11s WALL (   51923 calls)
     h_psi        :    419.70s CPU    468.10s WALL (   52547 calls)
     g_psi        :      2.23s CPU      2.27s WALL (   42823 calls)

     Called by h_psi:
     h_psi:calbec :     51.45s CPU     54.29s WALL (   52547 calls)
     vloc_psi     :    320.77s CPU    365.41s WALL (   52547 calls)
     add_vuspsi   :     45.77s CPU     46.64s WALL (   52547 calls)

     General routines
     calbec       :     57.43s CPU     60.35s WALL (   55627 calls)
     fft          :      3.10s CPU      4.51s WALL (    4218 calls)
     ffts         :      0.18s CPU      0.27s WALL (     345 calls)
     fftw         :    322.98s CPU    367.79s WALL ( 1350378 calls)

     Parallel routines

     PWSCF        :  12m25.95s CPU  13m34.94s WALL


   This run was terminated on:  16:19: 0  29Dec2024            

=------------------------------------------------------------------------------=
   JOB DONE.
=------------------------------------------------------------------------------=
