
     Program PWSCF v.7.2 starts on 29Dec2024 at 17:17:36 

     This program is part of the open-source Quantum ESPRESSO suite
     for quantum simulation of materials; please cite
         "P. Giannozzi et al., J. Phys.:Condens. Matter 21 395502 (2009);
         "P. Giannozzi et al., J. Phys.:Condens. Matter 29 465901 (2017);
         "P. Giannozzi et al., J. Chem. Phys. 152 154105 (2020);
          URL http://www.quantum-espresso.org", 
     in publications or presentations arising from this work. More details at
     http://www.quantum-espresso.org/quote

     Parallel version (MPI & OpenMP), running on       8 processor cores
     Number of MPI processes:                 8
     Threads/MPI process:                     1

     MPI processes distributed on     1 nodes
     481963 MiB available memory on the printing compute node when the environment starts

     Waiting for input...
     Reading input from standard input

     Current dimensions of program PWSCF are:
     Max number of different atomic species (ntypx) = 10
     Max number of k-points (npk) =  40000
     Max angular momentum in pseudopotentials (lmaxx) =  4

     R & G space division:  proc/nbgrp/npool/nimage =       8
     Subspace diagonalization in iterative solution of the eigenvalue problem:
     a serial algorithm will be used


     Parallelization info
     --------------------
     sticks:   dense  smooth     PW     G-vecs:    dense   smooth      PW
     Min         165     165     46                12138    12138    1806
     Max         167     167     47                12144    12144    1815
     Sum        1329    1329    373                97125    97125   14493

     Using Slab Decomposition



     bravais-lattice index     =            6
     lattice parameter (alat)  =       7.2397  a.u.
     unit-cell volume          =    1004.9593 (a.u.)^3
     number of atoms/cell      =            8
     number of atomic types    =            2
     number of electrons       =        26.00
     number of Kohn-Sham states=           17
     kinetic-energy cutoff     =      80.0000  Ry
     charge density cutoff     =     320.0000  Ry
     scf convergence threshold =      1.0E-08
     mixing beta               =       0.7000
     number of iterations used =            8  plain     mixing
     energy convergence thresh.=      1.0E-04
     force convergence thresh. =      1.0E-03
     press convergence thresh. =      1.0E+00
     Exchange-correlation= PBE
                           (   1   4   3   4   0   0   0)
     nstep                     =           50


     celldm(1)=   7.239712  celldm(2)=   0.000000  celldm(3)=   2.648406
     celldm(4)=   0.000000  celldm(5)=   0.000000  celldm(6)=   0.000000

     crystal axes: (cart. coord. in units of alat)
               a(1) = (   1.000000   0.000000   0.000000 )  
               a(2) = (   0.000000   1.000000   0.000000 )  
               a(3) = (   0.000000   0.000000   2.648406 )  

     reciprocal axes: (cart. coord. in units 2 pi/alat)
               b(1) = (  1.000000  0.000000  0.000000 )  
               b(2) = (  0.000000  1.000000  0.000000 )  
               b(3) = (  0.000000  0.000000  0.377586 )  


     PseudoPot. # 1 for Li read from file:
     ../pseudo/Li_ONCV_PBE_sr.upf
     MD5 check sum: 50ff420e78310ffa21704f3361e624a4
     Pseudo is Norm-conserving, Zval =  3.0
     Generated using ONCVPSP code by D. R. Hamann
     Using radial grid of 1944 points,  4 beta functions with: 
                l(1) =   0
                l(2) =   0
                l(3) =   1
                l(4) =   1

     PseudoPot. # 2 for Si read from file:
     ../pseudo/Si_ONCV_PBE_sr.upf
     MD5 check sum: e543d271109d17c80368dfa7c482276d
     Pseudo is Norm-conserving + core correction, Zval =  4.0
     Generated using ONCVPSP code by D. R. Hamann
     Using radial grid of 1510 points,  6 beta functions with: 
                l(1) =   0
                l(2) =   0
                l(3) =   1
                l(4) =   1
                l(5) =   2
                l(6) =   2

     atomic species   valence    mass     pseudopotential
        Li             3.00     6.94100     Li( 1.00)
        Si             4.00    28.08550     Si( 1.00)

     16 Sym. Ops., with inversion, found ( 8 have fractional translation)



   Cartesian axes

     site n.     atom                  positions (alat units)
         1           Li  tau(   1) = (   0.0000000   0.0000000   0.4878815  )
         2           Li  tau(   2) = (   0.5000000   0.5000000   0.4878815  )
         3           Li  tau(   3) = (   0.5000000   0.5000000   2.1605249  )
         4           Li  tau(   4) = (   0.0000000   0.0000000   2.1605249  )
         5           Li  tau(   5) = (   0.0000000   0.5000000   0.0280572  )
         6           Li  tau(   6) = (   0.5000000   0.0000000   2.6203491  )
         7           Si  tau(   7) = (   0.0000000   0.5000000   1.6401422  )
         8           Si  tau(   8) = (   0.5000000   0.0000000   1.0082642  )

     number of k points=    30  Marzari-Vanderbilt smearing, width (Ry)=  0.0200
                       cart. coord. in units 2pi/alat
        k(    1) = (   0.0000000   0.0000000   0.0000000), wk =   0.0082305
        k(    2) = (   0.0000000   0.0000000   0.1258619), wk =   0.0164609
        k(    3) = (   0.0000000   0.1111111   0.0000000), wk =   0.0329218
        k(    4) = (   0.0000000   0.1111111   0.1258619), wk =   0.0658436
        k(    5) = (   0.0000000   0.2222222   0.0000000), wk =   0.0329218
        k(    6) = (   0.0000000   0.2222222   0.1258619), wk =   0.0658436
        k(    7) = (   0.0000000   0.3333333   0.0000000), wk =   0.0329218
        k(    8) = (   0.0000000   0.3333333   0.1258619), wk =   0.0658436
        k(    9) = (   0.0000000   0.4444444   0.0000000), wk =   0.0329218
        k(   10) = (   0.0000000   0.4444444   0.1258619), wk =   0.0658436
        k(   11) = (   0.1111111   0.1111111   0.0000000), wk =   0.0329218
        k(   12) = (   0.1111111   0.1111111   0.1258619), wk =   0.0658436
        k(   13) = (   0.1111111   0.2222222   0.0000000), wk =   0.0658436
        k(   14) = (   0.1111111   0.2222222   0.1258619), wk =   0.1316872
        k(   15) = (   0.1111111   0.3333333   0.0000000), wk =   0.0658436
        k(   16) = (   0.1111111   0.3333333   0.1258619), wk =   0.1316872
        k(   17) = (   0.1111111   0.4444444   0.0000000), wk =   0.0658436
        k(   18) = (   0.1111111   0.4444444   0.1258619), wk =   0.1316872
        k(   19) = (   0.2222222   0.2222222   0.0000000), wk =   0.0329218
        k(   20) = (   0.2222222   0.2222222   0.1258619), wk =   0.0658436
        k(   21) = (   0.2222222   0.3333333   0.0000000), wk =   0.0658436
        k(   22) = (   0.2222222   0.3333333   0.1258619), wk =   0.1316872
        k(   23) = (   0.2222222   0.4444444   0.0000000), wk =   0.0658436
        k(   24) = (   0.2222222   0.4444444   0.1258619), wk =   0.1316872
        k(   25) = (   0.3333333   0.3333333   0.0000000), wk =   0.0329218
        k(   26) = (   0.3333333   0.3333333   0.1258619), wk =   0.0658436
        k(   27) = (   0.3333333   0.4444444   0.0000000), wk =   0.0658436
        k(   28) = (   0.3333333   0.4444444   0.1258619), wk =   0.1316872
        k(   29) = (   0.4444444   0.4444444   0.0000000), wk =   0.0329218
        k(   30) = (   0.4444444   0.4444444   0.1258619), wk =   0.0658436

     Dense  grid:    97125 G-vectors     FFT dimensions: (  48,  48, 120)

     Estimated max dynamical RAM per process >      35.07 MB

     Estimated total dynamical RAM >     280.58 MB

     Initial potential from superposition of free atoms

     starting charge      25.9714, renormalised to      26.0000
     Starting wfcs are   20 randomized atomic wfcs

     total cpu time spent up to now is        4.2 secs

     Self-consistent Calculation

     iteration #  1     ecut=    80.00 Ry     beta= 0.70
     Davidson diagonalization with overlap
     ethr =  1.00E-02,  avg # of iterations =  5.0

     total cpu time spent up to now is        6.3 secs

     total energy              =    -101.42745228 Ry
     estimated scf accuracy    <       2.16275814 Ry

     iteration #  2     ecut=    80.00 Ry     beta= 0.70
     Davidson diagonalization with overlap
     ethr =  8.32E-03,  avg # of iterations =  5.5

     total cpu time spent up to now is        8.6 secs

     total energy              =    -102.20246009 Ry
     estimated scf accuracy    <      22.85816322 Ry

     iteration #  3     ecut=    80.00 Ry     beta= 0.70
     Davidson diagonalization with overlap
     ethr =  8.32E-03,  avg # of iterations =  4.5

     total cpu time spent up to now is       10.7 secs

     total energy              =    -103.02891120 Ry
     estimated scf accuracy    <       2.79482628 Ry

     iteration #  4     ecut=    80.00 Ry     beta= 0.70
     Davidson diagonalization with overlap
     ethr =  8.32E-03,  avg # of iterations =  1.3

     total cpu time spent up to now is       12.0 secs

     total energy              =    -103.03428859 Ry
     estimated scf accuracy    <       0.84696894 Ry

     iteration #  5     ecut=    80.00 Ry     beta= 0.70
     Davidson diagonalization with overlap
     ethr =  3.26E-03,  avg # of iterations =  2.6

     total cpu time spent up to now is       13.4 secs

     total energy              =    -103.03769247 Ry
     estimated scf accuracy    <       0.18566159 Ry

     iteration #  6     ecut=    80.00 Ry     beta= 0.70
     Davidson diagonalization with overlap
     ethr =  7.14E-04,  avg # of iterations =  4.7

     total cpu time spent up to now is       15.1 secs

     total energy              =    -103.07192101 Ry
     estimated scf accuracy    <       0.05689065 Ry

     iteration #  7     ecut=    80.00 Ry     beta= 0.70
     Davidson diagonalization with overlap
     ethr =  2.19E-04,  avg # of iterations =  1.5

     total cpu time spent up to now is       16.5 secs

     total energy              =    -103.07231190 Ry
     estimated scf accuracy    <       0.00767644 Ry

     iteration #  8     ecut=    80.00 Ry     beta= 0.70
     Davidson diagonalization with overlap
     ethr =  2.95E-05,  avg # of iterations =  4.3

     total cpu time spent up to now is       18.1 secs

     total energy              =    -103.07432874 Ry
     estimated scf accuracy    <       0.01009381 Ry

     iteration #  9     ecut=    80.00 Ry     beta= 0.70
     Davidson diagonalization with overlap
     ethr =  2.95E-05,  avg # of iterations =  1.0

     total cpu time spent up to now is       19.4 secs

     total energy              =    -103.07383928 Ry
     estimated scf accuracy    <       0.00479410 Ry

     iteration # 10     ecut=    80.00 Ry     beta= 0.70
     Davidson diagonalization with overlap
     ethr =  1.84E-05,  avg # of iterations =  1.3

     total cpu time spent up to now is       20.7 secs

     total energy              =    -103.07410535 Ry
     estimated scf accuracy    <       0.00006983 Ry

     iteration # 11     ecut=    80.00 Ry     beta= 0.70
     Davidson diagonalization with overlap
     ethr =  2.69E-07,  avg # of iterations =  5.3

     total cpu time spent up to now is       22.4 secs

     total energy              =    -103.07421770 Ry
     estimated scf accuracy    <       0.00001671 Ry

     iteration # 12     ecut=    80.00 Ry     beta= 0.70
     Davidson diagonalization with overlap
     ethr =  6.43E-08,  avg # of iterations =  1.5

     total cpu time spent up to now is       23.7 secs

     total energy              =    -103.07421725 Ry
     estimated scf accuracy    <       0.00000415 Ry

     iteration # 13     ecut=    80.00 Ry     beta= 0.70
     Davidson diagonalization with overlap
     ethr =  1.60E-08,  avg # of iterations =  2.7

     total cpu time spent up to now is       25.1 secs

     total energy              =    -103.07421800 Ry
     estimated scf accuracy    <       0.00000331 Ry

     iteration # 14     ecut=    80.00 Ry     beta= 0.70
     Davidson diagonalization with overlap
     ethr =  1.27E-08,  avg # of iterations =  1.0

     total cpu time spent up to now is       26.4 secs

     total energy              =    -103.07421804 Ry
     estimated scf accuracy    <       0.00000054 Ry

     iteration # 15     ecut=    80.00 Ry     beta= 0.70
     Davidson diagonalization with overlap
     ethr =  2.07E-09,  avg # of iterations =  1.5

     total cpu time spent up to now is       27.7 secs

     total energy              =    -103.07421806 Ry
     estimated scf accuracy    <       0.00000005 Ry

     iteration # 16     ecut=    80.00 Ry     beta= 0.70
     Davidson diagonalization with overlap
     ethr =  2.04E-10,  avg # of iterations =  3.7

     total cpu time spent up to now is       29.2 secs

     End of self-consistent calculation

          k = 0.0000 0.0000 0.0000 ( 12211 PWs)   bands (ev):

   -43.7531 -43.7403 -43.6933 -43.6931 -43.6266 -43.5935  -5.7201  -4.4437
    -1.2205   0.9933   1.0292   3.2667   3.2667   4.1361   4.2533   4.2533
     5.1074

          k = 0.0000 0.0000 0.1259 ( 12146 PWs)   bands (ev):

   -43.7531 -43.7403 -43.6933 -43.6931 -43.6266 -43.5935  -5.7189  -4.4505
    -1.0410   0.0529   2.2153   3.3456   3.3456   3.5659   3.9688   3.9688
     5.5395

          k = 0.0000 0.1111 0.0000 ( 12159 PWs)   bands (ev):

   -43.7509 -43.7388 -43.6947 -43.6944 -43.6259 -43.5949  -5.6282  -4.3852
    -1.1399   1.0403   1.0545   2.5996   3.3544   3.5436   3.9757   4.3159
     4.7444

          k = 0.0000 0.1111 0.1259 ( 12150 PWs)   bands (ev):

   -43.7509 -43.7388 -43.6947 -43.6944 -43.6259 -43.5949  -5.6271  -4.3918
    -0.9649   0.1237   2.1139   2.6473   3.3076   3.4295   3.8598   4.0526
     4.7945

          k = 0.0000 0.2222 0.0000 ( 12181 PWs)   bands (ev):

   -43.7448 -43.7346 -43.6988 -43.6984 -43.6238 -43.5986  -5.3622  -4.2377
    -0.8966   0.8004   1.1455   1.8914   2.4867   3.0287   3.6054   4.4756
     4.5288

          k = 0.0000 0.2222 0.1259 ( 12159 PWs)   bands (ev):

   -43.7448 -43.7346 -43.6988 -43.6984 -43.6238 -43.5986  -5.3610  -4.2435
    -0.7448   0.3020   1.2683   1.9568   2.8005   3.5039   3.6694   3.8918
     4.2771

          k = 0.0000 0.3333 0.0000 ( 12142 PWs)   bands (ev):

   -43.7358 -43.7281 -43.7056 -43.7045 -43.6203 -43.6040  -4.9576  -4.1032
    -0.4879   0.1220   0.7469   1.6493   2.1953   2.3611   3.9767   4.0867
     4.6354

          k = 0.0000 0.3333 0.1259 ( 12152 PWs)   bands (ev):

   -43.7358 -43.7281 -43.7056 -43.7045 -43.6203 -43.6040  -4.9564  -4.1070
    -0.4601   0.2775   0.6017   1.2876   2.1649   3.0439   3.5650   4.0221
     4.5337

          k = 0.0000 0.4444 0.0000 ( 12114 PWs)   bands (ev):

   -43.7253 -43.7204 -43.7145 -43.7120 -43.6156 -43.6099  -4.5011  -4.1641
    -0.2104   0.0044   0.1652   0.8513   2.5900   2.6860   3.5037   3.6999
     4.3718

          k = 0.0000 0.4444 0.1259 ( 12127 PWs)   bands (ev):

   -43.7253 -43.7204 -43.7145 -43.7120 -43.6156 -43.6099  -4.5003  -4.1649
    -0.3764  -0.0645   0.5461   1.2324   1.6318   2.2998   4.0121   4.3917
     4.6087

          k = 0.1111 0.1111 0.0000 ( 12145 PWs)   bands (ev):

   -43.7489 -43.7374 -43.6960 -43.6957 -43.6253 -43.5962  -5.5370  -4.3268
    -1.0596   1.0578   1.1123   2.6514   2.7365   3.4167   3.8451   3.9499
     4.2952

          k = 0.1111 0.1111 0.1259 ( 12167 PWs)   bands (ev):

   -43.7489 -43.7374 -43.6960 -43.6957 -43.6253 -43.5962  -5.5358  -4.3332
    -0.8890   0.1931   2.0629   2.6536   2.7845   3.3143   3.5713   3.9397
     4.6464

          k = 0.1111 0.2222 0.0000 ( 12149 PWs)   bands (ev):

   -43.7430 -43.7334 -43.6998 -43.6994 -43.6234 -43.5998  -5.2729  -4.1792
    -0.8175   0.8657   1.1921   1.9429   2.5369   2.9289   3.0973   3.8698
     4.1406

          k = 0.1111 0.2222 0.1259 ( 12154 PWs)   bands (ev):

   -43.7430 -43.7334 -43.6998 -43.6994 -43.6234 -43.5998  -5.2717  -4.1848
    -0.6691   0.3680   1.3516   1.9960   2.7263   3.0439   3.5282   3.6227
     3.9449

          k = 0.1111 0.3333 0.0000 ( 12151 PWs)   bands (ev):

   -43.7344 -43.7274 -43.7060 -43.7051 -43.6202 -43.6049  -4.8723  -4.0425
    -0.4111   0.2171   0.8027   1.7055   2.2499   2.3637   3.3444   3.9218
     4.0225

          k = 0.1111 0.3333 0.1259 ( 12136 PWs)   bands (ev):

   -43.7344 -43.7274 -43.7060 -43.7051 -43.6202 -43.6049  -4.8711  -4.0462
    -0.3796   0.3544   0.6741   1.3548   2.2109   2.9848   3.2752   3.6265
     3.9848

          k = 0.1111 0.4444 0.0000 ( 12132 PWs)   bands (ev):

   -43.7245 -43.7201 -43.7144 -43.7122 -43.6158 -43.6105  -4.4231  -4.0960
    -0.1201   0.0759   0.2443   0.9219   2.5991   2.6549   3.4935   3.6905
     3.7708

          k = 0.1111 0.4444 0.1259 ( 12133 PWs)   bands (ev):

   -43.7245 -43.7201 -43.7144 -43.7122 -43.6158 -43.6105  -4.4223  -4.0969
    -0.2866   0.0131   0.6176   1.2928   1.6784   2.3148   3.6738   3.9975
     4.0812

          k = 0.2222 0.2222 0.0000 ( 12137 PWs)   bands (ev):

   -43.7381 -43.7301 -43.7026 -43.7023 -43.6220 -43.6029  -5.0155  -4.0298
    -0.5791   0.9466   1.2437   1.8013   2.2809   2.5541   3.0666   3.1683
     3.2801

          k = 0.2222 0.2222 0.1259 ( 12138 PWs)   bands (ev):

   -43.7381 -43.7301 -43.7026 -43.7023 -43.6220 -43.6029  -5.0143  -4.0347
    -0.4486   0.5357   1.4782   1.8206   1.9847   2.8182   2.9872   3.4484
     3.6199

          k = 0.2222 0.3333 0.0000 ( 12128 PWs)   bands (ev):

   -43.7307 -43.7251 -43.7075 -43.7070 -43.6197 -43.6073  -4.6285  -3.8839
    -0.1803   0.4979   0.9235   1.7426   2.0723   2.3844   2.7033   3.0615
     3.3852

          k = 0.2222 0.3333 0.1259 ( 12129 PWs)   bands (ev):

   -43.7307 -43.7251 -43.7075 -43.7070 -43.6197 -43.6073  -4.6273  -3.8872
    -0.1422   0.5608   0.8756   1.5155   2.1197   2.3084   2.8512   2.9965
     3.6561

          k = 0.2222 0.4444 0.0000 ( 12155 PWs)   bands (ev):

   -43.7224 -43.7191 -43.7142 -43.7127 -43.6163 -43.6120  -4.2039  -3.9114
     0.1411   0.2764   0.4742   1.1306   2.3426   2.5717   2.8559   3.0172
     3.4438

          k = 0.2222 0.4444 0.1259 ( 12124 PWs)   bands (ev):

   -43.7224 -43.7191 -43.7142 -43.7127 -43.6163 -43.6120  -4.2032  -3.9122
    -0.0216   0.2296   0.8177   1.4554   1.7860   2.3207   2.6219   3.0341
     3.7032

          k = 0.3333 0.3333 0.0000 ( 12136 PWs)   bands (ev):

   -43.7254 -43.7217 -43.7102 -43.7099 -43.6186 -43.6106  -4.2700  -3.7111
     0.2004   0.9038   0.9085   1.0477   2.1198   2.3378   2.4069   2.4869
     3.0659

          k = 0.3333 0.3333 0.1259 ( 12125 PWs)   bands (ev):

   -43.7254 -43.7217 -43.7102 -43.7099 -43.6186 -43.6106  -4.2689  -3.7133
     0.2205   0.7141   1.0557   1.2512   1.8332   2.1688   2.4330   2.5914
     3.0808

          k = 0.3333 0.4444 0.0000 ( 12134 PWs)   bands (ev):

   -43.7196 -43.7177 -43.7143 -43.7136 -43.6167 -43.6139  -3.8977  -3.6790
     0.5154   0.5284   0.8259   1.4322   1.5981   2.1719   2.3946   2.4196
     3.1029

          k = 0.3333 0.4444 0.1259 ( 12149 PWs)   bands (ev):

   -43.7196 -43.7177 -43.7143 -43.7136 -43.6167 -43.6139  -3.8971  -3.6797
     0.3954   0.5017   1.0189   1.5891   1.6997   2.0670   2.1484   2.3714
     2.9220

          k = 0.4444 0.4444 0.0000 ( 12154 PWs)   bands (ev):

   -43.7170 -43.7162 -43.7151 -43.7148 -43.6166 -43.6156  -3.6218  -3.5365
     0.6029   0.6475   1.2732   1.3749   1.9089   1.9094   1.9111   2.0490
     2.6078

          k = 0.4444 0.4444 0.1259 ( 12154 PWs)   bands (ev):

   -43.7170 -43.7162 -43.7151 -43.7148 -43.6166 -43.6156  -3.6216  -3.5367
     0.5967   0.6520   1.1069   1.5813   1.8076   1.9235   1.9928   2.1606
     2.4574

     the Fermi energy is     2.3064 ev

!    total energy              =    -103.07421806 Ry
     estimated scf accuracy    <          1.0E-09 Ry
     smearing contrib. (-TS)   =      -0.00156336 Ry
     internal energy E=F+TS    =    -103.07265471 Ry

     The total energy is F=E-TS. E is the sum of the following terms:
     one-electron contribution =     -60.20846246 Ry
     hartree contribution      =      26.48681058 Ry
     xc contribution           =     -25.95443682 Ry
     ewald contribution        =     -43.39656600 Ry

     convergence has been achieved in  16 iterations

     Forces acting on atoms (cartesian axes, Ry/au):

     atom    1 type  1   force =     0.00000000    0.00000000    0.02896512
     atom    2 type  1   force =     0.00000000    0.00000000    0.02896512
     atom    3 type  1   force =     0.00000000    0.00000000   -0.02896512
     atom    4 type  1   force =     0.00000000    0.00000000   -0.02896512
     atom    5 type  1   force =     0.00000000    0.00000000   -0.01966523
     atom    6 type  1   force =     0.00000000    0.00000000    0.01966523
     atom    7 type  2   force =     0.00000000    0.00000000   -0.02674235
     atom    8 type  2   force =     0.00000000    0.00000000    0.02674235
     The non-local contrib.  to forces
     atom    1 type  1   force =     0.00000000    0.00000000    0.01063407
     atom    2 type  1   force =     0.00000000    0.00000000    0.01063407
     atom    3 type  1   force =     0.00000000    0.00000000   -0.01063407
     atom    4 type  1   force =     0.00000000    0.00000000   -0.01063407
     atom    5 type  1   force =     0.00000000    0.00000000    0.00845844
     atom    6 type  1   force =     0.00000000    0.00000000   -0.00845844
     atom    7 type  2   force =     0.00000000    0.00000000   -0.04366643
     atom    8 type  2   force =     0.00000000    0.00000000    0.04366643
     The ionic contribution  to forces
     atom    1 type  1   force =     0.00000000   -0.00000000    1.64814838
     atom    2 type  1   force =     0.00000000    0.00000000    1.64814838
     atom    3 type  1   force =     0.00000000    0.00000000   -1.64814838
     atom    4 type  1   force =    -0.00000000    0.00000000   -1.64814838
     atom    5 type  1   force =    -0.00000000   -0.00000000    0.04605397
     atom    6 type  1   force =     0.00000000    0.00000000   -0.04605397
     atom    7 type  2   force =    -0.00000000    0.00000000   -2.14988132
     atom    8 type  2   force =    -0.00000000   -0.00000000    2.14988132
     The local contribution  to forces
     atom    1 type  1   force =    -0.00000000    0.00000000   -1.62979099
     atom    2 type  1   force =     0.00000000    0.00000000   -1.62979099
     atom    3 type  1   force =    -0.00000000   -0.00000000    1.62979099
     atom    4 type  1   force =    -0.00000000   -0.00000000    1.62979099
     atom    5 type  1   force =    -0.00000000    0.00000000   -0.07417594
     atom    6 type  1   force =    -0.00000000   -0.00000000    0.07417594
     atom    7 type  2   force =    -0.00000000   -0.00000000    2.16341840
     atom    8 type  2   force =     0.00000000   -0.00000000   -2.16341840
     The core correction contribution to forces
     atom    1 type  1   force =     0.00000000    0.00000000    0.00000000
     atom    2 type  1   force =     0.00000000    0.00000000    0.00000000
     atom    3 type  1   force =     0.00000000    0.00000000    0.00000000
     atom    4 type  1   force =     0.00000000    0.00000000    0.00000000
     atom    5 type  1   force =     0.00000000    0.00000000    0.00000000
     atom    6 type  1   force =     0.00000000    0.00000000    0.00000000
     atom    7 type  2   force =    -0.00000000   -0.00000000    0.00337219
     atom    8 type  2   force =     0.00000000   -0.00000000   -0.00337219
     The Hubbard contrib.    to forces
     atom    1 type  1   force =     0.00000000    0.00000000    0.00000000
     atom    2 type  1   force =     0.00000000    0.00000000    0.00000000
     atom    3 type  1   force =     0.00000000    0.00000000    0.00000000
     atom    4 type  1   force =     0.00000000    0.00000000    0.00000000
     atom    5 type  1   force =     0.00000000    0.00000000    0.00000000
     atom    6 type  1   force =     0.00000000    0.00000000    0.00000000
     atom    7 type  2   force =     0.00000000    0.00000000    0.00000000
     atom    8 type  2   force =     0.00000000    0.00000000    0.00000000
     The SCF correction term to forces
     atom    1 type  1   force =     0.00000000    0.00000000   -0.00002635
     atom    2 type  1   force =    -0.00000000   -0.00000000   -0.00002635
     atom    3 type  1   force =     0.00000000    0.00000000    0.00002635
     atom    4 type  1   force =     0.00000000   -0.00000000    0.00002635
     atom    5 type  1   force =    -0.00000000    0.00000000   -0.00000169
     atom    6 type  1   force =    -0.00000000   -0.00000000    0.00000169
     atom    7 type  2   force =     0.00000000   -0.00000000    0.00001481
     atom    8 type  2   force =    -0.00000000   -0.00000000   -0.00001481

     Total force =     0.074563     Total SCF correction =     0.000057


     Computing stress (Cartesian axis) and pressure

          total   stress  (Ry/bohr**3)                   (kbar)     P=        2.26
   0.00002534   0.00000000   0.00000000            3.73        0.00        0.00
   0.00000000   0.00002534   0.00000000            0.00        3.73        0.00
   0.00000000   0.00000000  -0.00000460            0.00        0.00       -0.68


     BFGS Geometry Optimization
     Energy error            =      0.0E+00 Ry
     Gradient error          =      2.9E-02 Ry/Bohr
     Cell gradient error     =      5.0E+02 kbar

     number of scf cycles    =   1
     number of bfgs steps    =   0

     enthalpy           new  =     -99.6584309922 Ry

     new trust radius        =       0.5000000000 bohr
ibrav =      6
 celldm(1) =      6.67379869
 celldm(3) =      2.64641327
Input lattice vectors:
     0.92183210     0.00000000     0.00000000
     0.00000000     0.92183210     0.00000000
     0.00000000     0.00000000     2.43954869
New lattice vectors in INITIAL alat:
     0.92183210     0.00000000     0.00000000
     0.00000000     0.92183210     0.00000000
     0.00000000     0.00000000     2.43954869
New lattice vectors in NEW alat (for information only):
     1.00000000     0.00000000     0.00000000
     0.00000000     1.00000000     0.00000000
     0.00000000     0.00000000     2.64641327
Discrepancy in bohr =     0.000000    0.000000    0.000000
     new conv_thr            =       0.0000000100 Ry

     new unit-cell volume =    786.64171 a.u.^3 (   116.56828 Ang^3 )
     density =      1.39342 g/cm^3

CELL_PARAMETERS (alat=  7.23971179)
   0.921832096   0.000000000   0.000000000
   0.000000000   0.921832096   0.000000000
   0.000000000   0.000000000   2.439548690

ATOMIC_POSITIONS (crystal)
Li            0.0000000000        0.0000000000        0.1856171225
Li            0.5000000000        0.5000000000        0.1856171225
Li            0.5000000000        0.5000000000        0.8143828775
Li            0.0000000000        0.0000000000        0.8143828775
Li            0.0000000000        0.5000000000        0.0096434180
Li            0.5000000000        0.0000000000        0.9903565820
Si            0.0000000000        0.5000000000        0.6180013224
Si            0.5000000000        0.0000000000        0.3819986776



     Writing config-only to output data dir ./output/LiSi.save/
     NEW-OLD atomic charge density approx. for the potential
     extrapolated charge   18.79213, renormalised to   26.00000

     total cpu time spent up to now is       34.5 secs

     Self-consistent Calculation

     iteration #  1     ecut=    80.00 Ry     beta= 0.70
     Davidson diagonalization with overlap
     c_bands:  1 eigenvalues not converged
     c_bands:  1 eigenvalues not converged
     c_bands:  1 eigenvalues not converged
     c_bands:  1 eigenvalues not converged
     c_bands:  1 eigenvalues not converged
     c_bands:  1 eigenvalues not converged
     c_bands:  1 eigenvalues not converged
     c_bands:  1 eigenvalues not converged
     c_bands:  1 eigenvalues not converged
     c_bands:  1 eigenvalues not converged
     c_bands:  2 eigenvalues not converged
     c_bands:  1 eigenvalues not converged
     c_bands:  2 eigenvalues not converged
     c_bands:  1 eigenvalues not converged
     ethr =  1.00E-06,  avg # of iterations = 18.3

     total cpu time spent up to now is       40.1 secs

     total energy              =     -80.78490222 Ry
     estimated scf accuracy    <      22.92549682 Ry

     iteration #  2     ecut=    80.00 Ry     beta= 0.70
     Davidson diagonalization with overlap
     ethr =  1.00E-02,  avg # of iterations = 11.9

     total cpu time spent up to now is       44.5 secs

     total energy              =     -96.76286353 Ry
     estimated scf accuracy    <     154.46265909 Ry

     iteration #  3     ecut=    80.00 Ry     beta= 0.70
     Davidson diagonalization with overlap
     ethr =  1.00E-02,  avg # of iterations =  6.1

     total cpu time spent up to now is       47.0 secs

     total energy              =    -101.20035887 Ry
     estimated scf accuracy    <      35.02661881 Ry

     iteration #  4     ecut=    80.00 Ry     beta= 0.70
     Davidson diagonalization with overlap
     ethr =  1.00E-02,  avg # of iterations =  3.5

     total cpu time spent up to now is       48.6 secs

     total energy              =    -104.86490586 Ry
     estimated scf accuracy    <      14.79352540 Ry

     iteration #  5     ecut=    80.00 Ry     beta= 0.70
     Davidson diagonalization with overlap
     ethr =  1.00E-02,  avg # of iterations =  1.1

     total cpu time spent up to now is       49.9 secs

     total energy              =    -103.45659865 Ry
     estimated scf accuracy    <      13.02528378 Ry

     iteration #  6     ecut=    80.00 Ry     beta= 0.70
     Davidson diagonalization with overlap
     ethr =  1.00E-02,  avg # of iterations =  2.7

     total cpu time spent up to now is       51.3 secs

     total energy              =    -102.55007897 Ry
     estimated scf accuracy    <       6.79153990 Ry

     iteration #  7     ecut=    80.00 Ry     beta= 0.70
     Davidson diagonalization with overlap
     ethr =  1.00E-02,  avg # of iterations =  3.0

     total cpu time spent up to now is       52.9 secs

     total energy              =    -103.03139129 Ry
     estimated scf accuracy    <       0.07900279 Ry

     iteration #  8     ecut=    80.00 Ry     beta= 0.70
     Davidson diagonalization with overlap
     ethr =  3.04E-04,  avg # of iterations =  4.2

     total cpu time spent up to now is       54.5 secs

     total energy              =    -103.17088804 Ry
     estimated scf accuracy    <       0.35995419 Ry

     iteration #  9     ecut=    80.00 Ry     beta= 0.70
     Davidson diagonalization with overlap
     ethr =  3.04E-04,  avg # of iterations =  3.8

     total cpu time spent up to now is       56.2 secs

     total energy              =    -103.16806336 Ry
     estimated scf accuracy    <       3.16163735 Ry

     iteration # 10     ecut=    80.00 Ry     beta= 0.70
     Davidson diagonalization with overlap
     ethr =  3.04E-04,  avg # of iterations =  2.2

     total cpu time spent up to now is       57.6 secs

     total energy              =    -102.69349693 Ry
     estimated scf accuracy    <       1.93604949 Ry

     iteration # 11     ecut=    80.00 Ry     beta= 0.70
     Davidson diagonalization with overlap
     ethr =  3.04E-04,  avg # of iterations =  5.8

     total cpu time spent up to now is       59.6 secs

     total energy              =    -102.97524559 Ry
     estimated scf accuracy    <       1.07620291 Ry

     iteration # 12     ecut=    80.00 Ry     beta= 0.70
     Davidson diagonalization with overlap
     ethr =  3.04E-04,  avg # of iterations =  3.6

     total cpu time spent up to now is       61.2 secs

     total energy              =    -103.04830747 Ry
     estimated scf accuracy    <       0.05010385 Ry

     iteration # 13     ecut=    80.00 Ry     beta= 0.70
     Davidson diagonalization with overlap
     ethr =  1.93E-04,  avg # of iterations =  1.7

     total cpu time spent up to now is       62.5 secs

     total energy              =    -103.01326431 Ry
     estimated scf accuracy    <       0.25392314 Ry

     iteration # 14     ecut=    80.00 Ry     beta= 0.70
     Davidson diagonalization with overlap
     ethr =  1.93E-04,  avg # of iterations =  2.1

     total cpu time spent up to now is       63.9 secs

     total energy              =    -103.03022390 Ry
     estimated scf accuracy    <       0.00094855 Ry

     iteration # 15     ecut=    80.00 Ry     beta= 0.70
     Davidson diagonalization with overlap
     ethr =  3.65E-06,  avg # of iterations =  7.5

     total cpu time spent up to now is       66.1 secs

     total energy              =    -103.03007164 Ry
     estimated scf accuracy    <       0.01990482 Ry

     iteration # 16     ecut=    80.00 Ry     beta= 0.70
     Davidson diagonalization with overlap
     ethr =  3.65E-06,  avg # of iterations =  3.2

     total cpu time spent up to now is       67.6 secs

     total energy              =    -103.03102292 Ry
     estimated scf accuracy    <       0.00042113 Ry

     iteration # 17     ecut=    80.00 Ry     beta= 0.70
     Davidson diagonalization with overlap
     ethr =  1.62E-06,  avg # of iterations =  2.2

     total cpu time spent up to now is       69.0 secs

     total energy              =    -103.03105609 Ry
     estimated scf accuracy    <       0.00001671 Ry

     iteration # 18     ecut=    80.00 Ry     beta= 0.70
     Davidson diagonalization with overlap
     ethr =  6.43E-08,  avg # of iterations =  3.8

     total cpu time spent up to now is       70.6 secs

     total energy              =    -103.03108410 Ry
     estimated scf accuracy    <       0.00071446 Ry

     iteration # 19     ecut=    80.00 Ry     beta= 0.70
     Davidson diagonalization with overlap
     ethr =  6.43E-08,  avg # of iterations =  2.0

     total cpu time spent up to now is       72.0 secs

     total energy              =    -103.03105692 Ry
     estimated scf accuracy    <       0.00032757 Ry

     iteration # 20     ecut=    80.00 Ry     beta= 0.70
     Davidson diagonalization with overlap
     ethr =  6.43E-08,  avg # of iterations =  3.2

     total cpu time spent up to now is       73.5 secs

     total energy              =    -103.03106585 Ry
     estimated scf accuracy    <       0.00003121 Ry

     iteration # 21     ecut=    80.00 Ry     beta= 0.70
     Davidson diagonalization with overlap
     ethr =  6.43E-08,  avg # of iterations =  1.1

     total cpu time spent up to now is       74.7 secs

     total energy              =    -103.03106561 Ry
     estimated scf accuracy    <       0.00000900 Ry

     iteration # 22     ecut=    80.00 Ry     beta= 0.70
     Davidson diagonalization with overlap
     ethr =  3.46E-08,  avg # of iterations =  1.2

     total cpu time spent up to now is       76.0 secs

     total energy              =    -103.03106575 Ry
     estimated scf accuracy    <       0.00000131 Ry

     iteration # 23     ecut=    80.00 Ry     beta= 0.70
     Davidson diagonalization with overlap
     ethr =  5.05E-09,  avg # of iterations =  4.0

     total cpu time spent up to now is       77.5 secs

     total energy              =    -103.03106600 Ry
     estimated scf accuracy    <       0.00000015 Ry

     iteration # 24     ecut=    80.00 Ry     beta= 0.70
     Davidson diagonalization with overlap
     ethr =  5.89E-10,  avg # of iterations =  1.7

     total cpu time spent up to now is       78.7 secs

     total energy              =    -103.03106600 Ry
     estimated scf accuracy    <       0.00000004 Ry

     iteration # 25     ecut=    80.00 Ry     beta= 0.70
     Davidson diagonalization with overlap
     ethr =  1.49E-10,  avg # of iterations =  1.8

     total cpu time spent up to now is       80.0 secs

     End of self-consistent calculation

          k = 0.0000 0.0000 0.0000 ( 12211 PWs)   bands (ev):

   -42.0597 -42.0138 -41.9062 -41.9055 -41.8629 -41.8035  -5.1986  -3.3241
     0.0507   2.2138   2.7225   4.9287   4.9287   6.2213   6.2213   6.3822
     7.0305

          k = 0.0000 0.0000 0.1366 ( 12146 PWs)   bands (ev):

   -42.0597 -42.0138 -41.9062 -41.9055 -41.8629 -41.8035  -5.1984  -3.3300
     0.3096   1.2624   3.8524   5.0352   5.0352   5.7856   5.7856   5.8271
     7.7233

          k = 0.0000 0.1205 0.0000 ( 12159 PWs)   bands (ev):

   -42.0543 -42.0104 -41.9093 -41.9086 -41.8617 -41.8065  -5.0769  -3.2393
     0.1315   2.2857   2.7456   4.0103   5.0425   5.3494   5.8950   6.3116
     6.8686

          k = 0.0000 0.1205 0.1366 ( 12150 PWs)   bands (ev):

   -42.0543 -42.0104 -41.9093 -41.9086 -41.8617 -41.8065  -5.0767  -3.2453
     0.3890   1.3379   3.7446   4.1279   5.0496   5.1453   5.8993   6.0001
     6.7953

          k = 0.0000 0.2411 0.0000 ( 12181 PWs)   bands (ev):

   -42.0387 -42.0007 -41.9191 -41.9175 -41.8583 -41.8145  -4.7191  -3.0166
     0.3749   2.1605   2.3995   3.3055   4.0608   4.6692   5.3728   6.5515
     6.6766

          k = 0.0000 0.2411 0.1366 ( 12159 PWs)   bands (ev):

   -42.0387 -42.0007 -41.9191 -41.9175 -41.8583 -41.8145  -4.7188  -3.0226
     0.6185   1.5138   2.4055   3.5035   4.4513   5.2370   5.4639   5.8889
     6.2168

          k = 0.0000 0.3616 0.0000 ( 12142 PWs)   bands (ev):

   -42.0153 -41.9859 -41.9360 -41.9314 -41.8527 -41.8252  -4.1550  -2.7950
     0.7712   1.0256   1.9592   3.1931   3.6662   3.9313   5.8771   5.9900
     6.5279

          k = 0.0000 0.3616 0.1366 ( 12152 PWs)   bands (ev):

   -42.0153 -41.9859 -41.9360 -41.9314 -41.8527 -41.8252  -4.1545  -2.7994
     0.7817   1.2443   1.7341   2.7261   3.7391   4.8001   5.2333   5.9470
     6.6242

          k = 0.0000 0.4821 0.0000 ( 12114 PWs)   bands (ev):

   -41.9878 -41.9689 -41.9587 -41.9486 -41.8451 -41.8358  -3.4700  -2.9030
     0.5575   0.8997   1.5714   2.2952   4.1578   4.3886   5.1668   5.4583
     6.4444

          k = 0.0000 0.4821 0.1366 ( 12127 PWs)   bands (ev):

   -41.9878 -41.9689 -41.9587 -41.9486 -41.8451 -41.8358  -3.4695  -2.9039
     0.4816   0.8563   1.8924   2.6892   3.0706   3.8544   5.8365   6.4793
     6.5766

          k = 0.1205 0.1205 0.0000 ( 12145 PWs)   bands (ev):

   -42.0490 -42.0072 -41.9121 -41.9114 -41.8607 -41.8094  -4.9556  -3.1548
     0.2116   2.3532   2.7732   4.0597   4.1978   5.2097   5.7024   5.8988
     6.0400

          k = 0.1205 0.1205 0.1366 ( 12167 PWs)   bands (ev):

   -42.0490 -42.0072 -41.9121 -41.9114 -41.8607 -41.8094  -4.9553  -3.1609
     0.4678   1.4111   3.7025   4.1809   4.2459   5.0341   5.3167   5.9768
     6.5587

          k = 0.1205 0.2411 0.0000 ( 12149 PWs)   bands (ev):

   -42.0340 -41.9980 -41.9210 -41.9198 -41.8578 -41.8173  -4.5995  -2.9327
     0.4529   2.2622   2.4532   3.3555   4.1267   4.4123   4.7635   5.7412
     6.0131

          k = 0.1205 0.2411 0.1366 ( 12154 PWs)   bands (ev):

   -42.0340 -41.9980 -41.9210 -41.9198 -41.8578 -41.8173  -4.5991  -2.9387
     0.6958   1.5818   2.5160   3.5547   4.3696   4.5828   5.2546   5.4554
     5.7882

          k = 0.1205 0.3616 0.0000 ( 12151 PWs)   bands (ev):

   -42.0116 -41.9840 -41.9366 -41.9328 -41.8530 -41.8276  -4.0389  -2.7095
     0.8446   1.1437   2.0252   3.2548   3.7345   3.9285   4.9889   5.7285
     5.8830

          k = 0.1205 0.3616 0.1366 ( 12136 PWs)   bands (ev):

   -42.0116 -41.9840 -41.9366 -41.9328 -41.8530 -41.8276  -4.0384  -2.7139
     0.8787   1.3272   1.8093   2.8053   3.7801   4.7399   4.8799   5.3446
     5.8783

          k = 0.1205 0.4821 0.0000 ( 12132 PWs)   bands (ev):

   -41.9853 -41.9679 -41.9579 -41.9490 -41.8462 -41.8377  -3.3612  -2.8072
     0.6638   0.9796   1.6534   2.3657   4.1692   4.3513   5.1360   5.4053
     5.5971

          k = 0.1205 0.4821 0.1366 ( 12133 PWs)   bands (ev):

   -41.9853 -41.9679 -41.9579 -41.9490 -41.8462 -41.8377  -3.3607  -2.8081
     0.5874   0.9409   1.9664   2.7503   3.1172   3.8587   5.5159   5.8312
     6.0558

          k = 0.2411 0.2411 0.0000 ( 12137 PWs)   bands (ev):

   -42.0208 -41.9903 -41.9272 -41.9264 -41.8563 -41.8246  -4.2490  -2.7112
     0.6871   2.4082   2.5178   2.9797   3.6643   4.1682   4.7318   4.7683
     4.9958

          k = 0.2411 0.2411 0.1366 ( 12138 PWs)   bands (ev):

   -42.0208 -41.9903 -41.9272 -41.9264 -41.8563 -41.8246  -4.2486  -2.7170
     0.9201   1.7415   2.7445   2.9912   3.5385   4.4507   4.6692   5.0929
     5.3363

          k = 0.2411 0.3616 0.0000 ( 12128 PWs)   bands (ev):

   -42.0012 -41.9788 -41.9388 -41.9369 -41.8536 -41.8340  -3.7006  -2.4800
     1.0608   1.4945   2.1743   3.2449   3.4466   3.9088   4.2096   4.7596
     5.0405

          k = 0.2411 0.3616 0.1366 ( 12129 PWs)   bands (ev):

   -42.0012 -41.9788 -41.9388 -41.9369 -41.8536 -41.8340  -3.7000  -2.4842
     1.1552   1.5605   2.0127   3.0022   3.4293   3.8747   4.4944   4.6412
     5.4065

          k = 0.2411 0.4821 0.0000 ( 12155 PWs)   bands (ev):

   -41.9785 -41.9652 -41.9560 -41.9501 -41.8492 -41.8426  -3.0484  -2.5404
     0.9701   1.1949   1.8998   2.5757   3.9523   4.1356   4.3597   4.7572
     5.0496

          k = 0.2411 0.4821 0.1366 ( 12124 PWs)   bands (ev):

   -41.9785 -41.9652 -41.9560 -41.9501 -41.8492 -41.8426  -3.0479  -2.5414
     0.8956   1.1714   2.1792   2.9182   3.2267   3.8127   4.1632   4.7545
     5.4044

          k = 0.3616 0.3616 0.0000 ( 12136 PWs)   bands (ev):

   -41.9861 -41.9709 -41.9443 -41.9435 -41.8539 -41.8421  -3.1794  -2.2174
     1.3776   2.0327   2.0875   2.2059   3.6072   3.8223   3.9218   4.1120
     4.6514

          k = 0.3616 0.3616 0.1366 ( 12125 PWs)   bands (ev):

   -41.9861 -41.9709 -41.9443 -41.9435 -41.8539 -41.8421  -3.1788  -2.2206
     1.5029   1.8088   2.0351   2.4954   3.3159   3.7038   3.9743   4.0549
     4.7656

          k = 0.3616 0.4821 0.0000 ( 12134 PWs)   bands (ev):

   -41.9694 -41.9616 -41.9545 -41.9519 -41.8527 -41.8489  -2.5863  -2.1863
     1.4012   1.4423   2.2951   2.8223   2.9314   3.6625   3.8854   3.8930
     4.6600

          k = 0.3616 0.4821 0.1366 ( 12149 PWs)   bands (ev):

   -41.9694 -41.9616 -41.9545 -41.9519 -41.8527 -41.8489  -2.5859  -2.1872
     1.3503   1.4398   2.3914   2.9548   3.1236   3.4414   3.6614   3.8092
     4.4279

          k = 0.4821 0.4821 0.0000 ( 12154 PWs)   bands (ev):

   -41.9607 -41.9579 -41.9555 -41.9546 -41.8549 -41.8536  -2.1258  -1.9583
     1.4974   1.5373   2.5619   2.7361   3.1825   3.3295   3.3603   3.4857
     4.0978

          k = 0.4821 0.4821 0.1366 ( 12154 PWs)   bands (ev):

   -41.9607 -41.9579 -41.9555 -41.9546 -41.8549 -41.8536  -2.1256  -1.9587
     1.4962   1.5379   2.4033   2.9574   3.2172   3.2829   3.4220   3.5391
     3.8568

     the Fermi energy is     3.8259 ev

!    total energy              =    -103.03106600 Ry
     estimated scf accuracy    <          2.0E-09 Ry
     smearing contrib. (-TS)   =      -0.00184789 Ry
     internal energy E=F+TS    =    -103.02921810 Ry

     The total energy is F=E-TS. E is the sum of the following terms:
     one-electron contribution =     -54.65448493 Ry
     hartree contribution      =      25.40170659 Ry
     xc contribution           =     -26.38108111 Ry
     ewald contribution        =     -47.39535865 Ry

     convergence has been achieved in  25 iterations

     Forces acting on atoms (cartesian axes, Ry/au):

     atom    1 type  1   force =     0.00000000    0.00000000    0.03334964
     atom    2 type  1   force =     0.00000000    0.00000000    0.03334964
     atom    3 type  1   force =     0.00000000    0.00000000   -0.03334964
     atom    4 type  1   force =     0.00000000    0.00000000   -0.03334964
     atom    5 type  1   force =     0.00000000    0.00000000   -0.02188936
     atom    6 type  1   force =     0.00000000    0.00000000    0.02188936
     atom    7 type  2   force =     0.00000000    0.00000000   -0.05697883
     atom    8 type  2   force =     0.00000000    0.00000000    0.05697883
     The non-local contrib.  to forces
     atom    1 type  1   force =     0.00000000    0.00000000    0.01126202
     atom    2 type  1   force =     0.00000000    0.00000000    0.01126202
     atom    3 type  1   force =     0.00000000    0.00000000   -0.01126202
     atom    4 type  1   force =     0.00000000    0.00000000   -0.01126202
     atom    5 type  1   force =     0.00000000    0.00000000    0.01231394
     atom    6 type  1   force =     0.00000000    0.00000000   -0.01231394
     atom    7 type  2   force =     0.00000000    0.00000000   -0.10950742
     atom    8 type  2   force =     0.00000000    0.00000000    0.10950742
     The ionic contribution  to forces
     atom    1 type  1   force =    -0.00000000    0.00000000    1.88531158
     atom    2 type  1   force =     0.00000000    0.00000000    1.88531158
     atom    3 type  1   force =     0.00000000    0.00000000   -1.88531158
     atom    4 type  1   force =     0.00000000   -0.00000000   -1.88531158
     atom    5 type  1   force =    -0.00000000    0.00000000    0.05029898
     atom    6 type  1   force =     0.00000000    0.00000000   -0.05029898
     atom    7 type  2   force =    -0.00000000    0.00000000   -2.46521385
     atom    8 type  2   force =    -0.00000000   -0.00000000    2.46521385
     The local contribution  to forces
     atom    1 type  1   force =    -0.00000000    0.00000000   -1.86326399
     atom    2 type  1   force =    -0.00000000   -0.00000000   -1.86326399
     atom    3 type  1   force =    -0.00000000   -0.00000000    1.86326399
     atom    4 type  1   force =    -0.00000000   -0.00000000    1.86326399
     atom    5 type  1   force =    -0.00000000    0.00000000   -0.08450660
     atom    6 type  1   force =    -0.00000000    0.00000000    0.08450660
     atom    7 type  2   force =     0.00000000   -0.00000000    2.51009565
     atom    8 type  2   force =     0.00000000    0.00000000   -2.51009565
     The core correction contribution to forces
     atom    1 type  1   force =     0.00000000    0.00000000    0.00000000
     atom    2 type  1   force =     0.00000000    0.00000000    0.00000000
     atom    3 type  1   force =     0.00000000    0.00000000    0.00000000
     atom    4 type  1   force =     0.00000000    0.00000000    0.00000000
     atom    5 type  1   force =     0.00000000    0.00000000    0.00000000
     atom    6 type  1   force =     0.00000000    0.00000000    0.00000000
     atom    7 type  2   force =    -0.00000000   -0.00000000    0.00767705
     atom    8 type  2   force =    -0.00000000    0.00000000   -0.00767705
     The Hubbard contrib.    to forces
     atom    1 type  1   force =     0.00000000    0.00000000    0.00000000
     atom    2 type  1   force =     0.00000000    0.00000000    0.00000000
     atom    3 type  1   force =     0.00000000    0.00000000    0.00000000
     atom    4 type  1   force =     0.00000000    0.00000000    0.00000000
     atom    5 type  1   force =     0.00000000    0.00000000    0.00000000
     atom    6 type  1   force =     0.00000000    0.00000000    0.00000000
     atom    7 type  2   force =     0.00000000    0.00000000    0.00000000
     atom    8 type  2   force =     0.00000000    0.00000000    0.00000000
     The SCF correction term to forces
     atom    1 type  1   force =     0.00000000    0.00000000    0.00004003
     atom    2 type  1   force =    -0.00000000   -0.00000000    0.00004003
     atom    3 type  1   force =     0.00000000    0.00000000   -0.00004003
     atom    4 type  1   force =    -0.00000000   -0.00000000   -0.00004003
     atom    5 type  1   force =    -0.00000000    0.00000000    0.00000431
     atom    6 type  1   force =     0.00000000   -0.00000000   -0.00000431
     atom    7 type  2   force =     0.00000000    0.00000000   -0.00003026
     atom    8 type  2   force =    -0.00000000    0.00000000    0.00003026

     Total force =     0.109088     Total SCF correction =     0.000091


     Computing stress (Cartesian axis) and pressure

          total   stress  (Ry/bohr**3)                   (kbar)     P=       76.99
   0.00049453   0.00000000   0.00000000           72.75        0.00        0.00
   0.00000000   0.00049453   0.00000000            0.00       72.75        0.00
   0.00000000   0.00000000   0.00058094            0.00        0.00       85.46

     Energy error            =      7.0E-01 Ry
     Gradient error          =      5.7E-02 Ry/Bohr
     Cell gradient error     =      4.3E+02 kbar

     number of scf cycles    =   2
     number of bfgs steps    =   1

     enthalpy           old  =     -99.6584309922 Ry
     enthalpy           new  =    -100.3573251537 Ry

     CASE: enthalpy          _new < enthalpy          _old

     new trust radius        =       0.7203617645 bohr
ibrav =      6
 celldm(1) =      5.81675044
 celldm(3) =      2.65833175
Input lattice vectors:
     0.80345055     0.00000000     0.00000000
     0.00000000     0.80345055     0.00000000
     0.00000000     0.00000000     2.13583812
New lattice vectors in INITIAL alat:
     0.80345055     0.00000000     0.00000000
     0.00000000     0.80345055     0.00000000
     0.00000000     0.00000000     2.13583812
New lattice vectors in NEW alat (for information only):
     1.00000000     0.00000000     0.00000000
     0.00000000     1.00000000     0.00000000
     0.00000000     0.00000000     2.65833175
Discrepancy in bohr =     0.000000    0.000000    0.000000
     new conv_thr            =       0.0000000057 Ry

     new unit-cell volume =    523.17920 a.u.^3 (    77.52716 Ang^3 )
     density =      2.09512 g/cm^3

CELL_PARAMETERS (alat=  7.23971179)
   0.803450553   0.000000000   0.000000000
   0.000000000   0.803450553   0.000000000
   0.000000000   0.000000000   2.135838116

ATOMIC_POSITIONS (crystal)
Li            0.0000000000        0.0000000000        0.1887507054
Li            0.5000000000        0.5000000000        0.1887507054
Li            0.5000000000        0.5000000000        0.8112492946
Li            0.0000000000        0.0000000000        0.8112492946
Li            0.0000000000        0.5000000000        0.0075895308
Li            0.5000000000        0.0000000000        0.9924104692
Si            0.0000000000        0.5000000000        0.6125476182
Si            0.5000000000        0.0000000000        0.3874523818



     Writing config-only to output data dir ./output/LiSi.save/
     NEW-OLD atomic charge density approx. for the potential

     negative rho (up, down):  1.169E-02 0.000E+00
     extrapolated charge   12.92132, renormalised to   26.00000

     total cpu time spent up to now is       85.1 secs

     Self-consistent Calculation

     iteration #  1     ecut=    80.00 Ry     beta= 0.70
     Davidson diagonalization with overlap
     c_bands:  5 eigenvalues not converged
     c_bands:  1 eigenvalues not converged
     c_bands:  1 eigenvalues not converged
     c_bands:  1 eigenvalues not converged
     c_bands:  1 eigenvalues not converged
     c_bands:  1 eigenvalues not converged
     c_bands:  1 eigenvalues not converged
     c_bands:  1 eigenvalues not converged
     c_bands:  2 eigenvalues not converged
     c_bands:  1 eigenvalues not converged
     c_bands:  1 eigenvalues not converged
     c_bands:  1 eigenvalues not converged
     c_bands:  1 eigenvalues not converged
     c_bands:  1 eigenvalues not converged
     c_bands:  1 eigenvalues not converged
     c_bands:  1 eigenvalues not converged
     c_bands:  1 eigenvalues not converged
     c_bands:  2 eigenvalues not converged
     c_bands:  1 eigenvalues not converged
     c_bands:  2 eigenvalues not converged
     c_bands:  1 eigenvalues not converged
     ethr =  1.00E-06,  avg # of iterations = 19.4

     negative rho (up, down):  6.179E-03 0.000E+00

     total cpu time spent up to now is       91.1 secs

     total energy              =     -57.27507287 Ry
     estimated scf accuracy    <      47.04378882 Ry

     iteration #  2     ecut=    80.00 Ry     beta= 0.70
     Davidson diagonalization with overlap
     ethr =  1.00E-02,  avg # of iterations = 16.1

     total cpu time spent up to now is       96.8 secs

     total energy              =     -70.15910523 Ry
     estimated scf accuracy    <     385.15080513 Ry

     iteration #  3     ecut=    80.00 Ry     beta= 0.70
     Davidson diagonalization with overlap
     ethr =  1.00E-02,  avg # of iterations =  6.8

     total cpu time spent up to now is       99.5 secs

     total energy              =     -99.40895102 Ry
     estimated scf accuracy    <      61.26830458 Ry

     iteration #  4     ecut=    80.00 Ry     beta= 0.70
     Davidson diagonalization with overlap
     ethr =  1.00E-02,  avg # of iterations =  4.6

     total cpu time spent up to now is      101.3 secs

     total energy              =    -106.08273914 Ry
     estimated scf accuracy    <      19.04660753 Ry

     iteration #  5     ecut=    80.00 Ry     beta= 0.70
     Davidson diagonalization with overlap
     ethr =  1.00E-02,  avg # of iterations =  1.1

     total cpu time spent up to now is      102.6 secs

     total energy              =    -101.57006253 Ry
     estimated scf accuracy    <      15.95725753 Ry

     iteration #  6     ecut=    80.00 Ry     beta= 0.70
     Davidson diagonalization with overlap
     ethr =  1.00E-02,  avg # of iterations =  4.2

     total cpu time spent up to now is      104.3 secs

     total energy              =    -102.71535802 Ry
     estimated scf accuracy    <       0.22637391 Ry

     iteration #  7     ecut=    80.00 Ry     beta= 0.70
     Davidson diagonalization with overlap
     ethr =  8.71E-04,  avg # of iterations =  2.3

     total cpu time spent up to now is      105.6 secs

     total energy              =    -102.67375173 Ry
     estimated scf accuracy    <       0.15136660 Ry

     iteration #  8     ecut=    80.00 Ry     beta= 0.70
     Davidson diagonalization with overlap
     ethr =  5.82E-04,  avg # of iterations =  2.7

     total cpu time spent up to now is      106.9 secs

     total energy              =    -102.69893290 Ry
     estimated scf accuracy    <       0.46582998 Ry

     iteration #  9     ecut=    80.00 Ry     beta= 0.70
     Davidson diagonalization with overlap
     ethr =  5.82E-04,  avg # of iterations =  1.0

     total cpu time spent up to now is      108.1 secs

     total energy              =    -102.64467049 Ry
     estimated scf accuracy    <       0.13271647 Ry

     iteration # 10     ecut=    80.00 Ry     beta= 0.70
     Davidson diagonalization with overlap
     ethr =  5.10E-04,  avg # of iterations =  2.8

     total cpu time spent up to now is      109.7 secs

     total energy              =    -102.63484870 Ry
     estimated scf accuracy    <       0.75383696 Ry

     iteration # 11     ecut=    80.00 Ry     beta= 0.70
     Davidson diagonalization with overlap
     ethr =  5.10E-04,  avg # of iterations =  2.1

     total cpu time spent up to now is      111.1 secs

     total energy              =    -102.68768493 Ry
     estimated scf accuracy    <       0.00148974 Ry

     iteration # 12     ecut=    80.00 Ry     beta= 0.70
     Davidson diagonalization with overlap
     ethr =  5.73E-06,  avg # of iterations =  4.6

     total cpu time spent up to now is      112.8 secs

     total energy              =    -102.68974004 Ry
     estimated scf accuracy    <       0.02593861 Ry

     iteration # 13     ecut=    80.00 Ry     beta= 0.70
     Davidson diagonalization with overlap
     ethr =  5.73E-06,  avg # of iterations =  2.0

     total cpu time spent up to now is      114.1 secs

     total energy              =    -102.68514111 Ry
     estimated scf accuracy    <       0.03035775 Ry

     iteration # 14     ecut=    80.00 Ry     beta= 0.70
     Davidson diagonalization with overlap
     ethr =  5.73E-06,  avg # of iterations =  3.6

     total cpu time spent up to now is      115.7 secs

     total energy              =    -102.68739665 Ry
     estimated scf accuracy    <       0.00018715 Ry

     iteration # 15     ecut=    80.00 Ry     beta= 0.70
     Davidson diagonalization with overlap
     ethr =  7.20E-07,  avg # of iterations =  1.4

     total cpu time spent up to now is      116.9 secs

     total energy              =    -102.68796837 Ry
     estimated scf accuracy    <       0.00045629 Ry

     iteration # 16     ecut=    80.00 Ry     beta= 0.70
     Davidson diagonalization with overlap
     ethr =  7.20E-07,  avg # of iterations =  1.0

     total cpu time spent up to now is      118.0 secs

     total energy              =    -102.68791054 Ry
     estimated scf accuracy    <       0.00070771 Ry

     iteration # 17     ecut=    80.00 Ry     beta= 0.70
     Davidson diagonalization with overlap
     ethr =  7.20E-07,  avg # of iterations =  2.2

     total cpu time spent up to now is      119.4 secs

     total energy              =    -102.68783690 Ry
     estimated scf accuracy    <       0.00027720 Ry

     iteration # 18     ecut=    80.00 Ry     beta= 0.70
     Davidson diagonalization with overlap
     ethr =  7.20E-07,  avg # of iterations =  4.1

     total cpu time spent up to now is      121.1 secs

     total energy              =    -102.68898813 Ry
     estimated scf accuracy    <       0.01158018 Ry

     iteration # 19     ecut=    80.00 Ry     beta= 0.70
     Davidson diagonalization with overlap
     ethr =  7.20E-07,  avg # of iterations =  1.0

     total cpu time spent up to now is      122.3 secs

     total energy              =    -102.68903030 Ry
     estimated scf accuracy    <       0.01267022 Ry

     iteration # 20     ecut=    80.00 Ry     beta= 0.70
     Davidson diagonalization with overlap
     ethr =  7.20E-07,  avg # of iterations =  1.0

     total cpu time spent up to now is      123.5 secs

     total energy              =    -102.68829268 Ry
     estimated scf accuracy    <       0.01303966 Ry

     iteration # 21     ecut=    80.00 Ry     beta= 0.70
     Davidson diagonalization with overlap
     ethr =  7.20E-07,  avg # of iterations =  2.2

     total cpu time spent up to now is      124.9 secs

     total energy              =    -102.68754960 Ry
     estimated scf accuracy    <       0.00574236 Ry

     iteration # 22     ecut=    80.00 Ry     beta= 0.70
     Davidson diagonalization with overlap
     ethr =  7.20E-07,  avg # of iterations =  3.7

     total cpu time spent up to now is      126.4 secs

     total energy              =    -102.68792056 Ry
     estimated scf accuracy    <       0.00001311 Ry

     iteration # 23     ecut=    80.00 Ry     beta= 0.70
     Davidson diagonalization with overlap
     ethr =  5.04E-08,  avg # of iterations =  2.1

     total cpu time spent up to now is      127.6 secs

     total energy              =    -102.68791699 Ry
     estimated scf accuracy    <       0.00002815 Ry

     iteration # 24     ecut=    80.00 Ry     beta= 0.70
     Davidson diagonalization with overlap
     ethr =  5.04E-08,  avg # of iterations =  2.0

     total cpu time spent up to now is      128.9 secs

     total energy              =    -102.68791890 Ry
     estimated scf accuracy    <       0.00000009 Ry

     iteration # 25     ecut=    80.00 Ry     beta= 0.70
     Davidson diagonalization with overlap
     ethr =  3.59E-10,  avg # of iterations =  5.1

     total cpu time spent up to now is      130.5 secs

     total energy              =    -102.68991120 Ry
     estimated scf accuracy    <       0.00077773 Ry

     iteration # 26     ecut=    80.00 Ry     beta= 0.70
     Davidson diagonalization with overlap
     ethr =  3.59E-10,  avg # of iterations =  1.4

     total cpu time spent up to now is      131.7 secs

     total energy              =    -102.68990618 Ry
     estimated scf accuracy    <       0.00075725 Ry

     iteration # 27     ecut=    80.00 Ry     beta= 0.70
     Davidson diagonalization with overlap
     ethr =  3.59E-10,  avg # of iterations =  2.7

     total cpu time spent up to now is      133.1 secs

     total energy              =    -102.68990114 Ry
     estimated scf accuracy    <       0.00069800 Ry

     iteration # 28     ecut=    80.00 Ry     beta= 0.70
     Davidson diagonalization with overlap
     ethr =  3.59E-10,  avg # of iterations =  3.0

     total cpu time spent up to now is      134.5 secs

     total energy              =    -102.68990646 Ry
     estimated scf accuracy    <       0.00063772 Ry

     iteration # 29     ecut=    80.00 Ry     beta= 0.70
     Davidson diagonalization with overlap
     ethr =  3.59E-10,  avg # of iterations =  2.7

     total cpu time spent up to now is      135.8 secs

     total energy              =    -102.68986233 Ry
     estimated scf accuracy    <       0.00069947 Ry

     iteration # 30     ecut=    80.00 Ry     beta= 0.70
     Davidson diagonalization with overlap
     ethr =  3.59E-10,  avg # of iterations =  6.3

     total cpu time spent up to now is      137.9 secs

     total energy              =    -102.68985241 Ry
     estimated scf accuracy    <       0.00026154 Ry

     iteration # 31     ecut=    80.00 Ry     beta= 0.70
     Davidson diagonalization with overlap
     ethr =  3.59E-10,  avg # of iterations =  5.3

     total cpu time spent up to now is      139.8 secs

     total energy              =    -102.68984018 Ry
     estimated scf accuracy    <       0.00009288 Ry

     iteration # 32     ecut=    80.00 Ry     beta= 0.70
     Davidson diagonalization with overlap
     ethr =  3.59E-10,  avg # of iterations =  6.3

     total cpu time spent up to now is      141.8 secs

     total energy              =    -102.68984739 Ry
     estimated scf accuracy    <       0.00000043 Ry

     iteration # 33     ecut=    80.00 Ry     beta= 0.70
     Davidson diagonalization with overlap
     ethr =  3.59E-10,  avg # of iterations =  3.2

     total cpu time spent up to now is      143.3 secs

     total energy              =    -102.68984743 Ry
     estimated scf accuracy    <       0.00000076 Ry

     iteration # 34     ecut=    80.00 Ry     beta= 0.70
     Davidson diagonalization with overlap
     ethr =  3.59E-10,  avg # of iterations =  2.4

     total cpu time spent up to now is      144.7 secs

     End of self-consistent calculation

          k = 0.0000 0.0000 0.0000 ( 12211 PWs)   bands (ev):

   -38.8870 -38.7092 -38.3354 -38.3326 -38.3318 -38.1428  -4.2958  -0.8247
     3.3031   5.2165   6.3662   8.6161   8.6161  10.5899  10.5899  11.1772
    11.8197

          k = 0.0000 0.0000 0.1561 ( 12146 PWs)   bands (ev):

   -38.8869 -38.7092 -38.3354 -38.3326 -38.3318 -38.1428  -4.2965  -0.8196
     3.5582   4.3769   7.3230   8.7651   8.7651   9.8083   9.8083  11.5578
    11.8488

          k = 0.0000 0.1383 0.0000 ( 12159 PWs)   bands (ev):

   -38.8681 -38.6972 -38.3463 -38.3432 -38.3272 -38.1530  -4.1177  -0.6879
     3.3671   5.3105   6.4553   7.0952   8.7820   9.3681   9.8649  10.7418
    11.3617

          k = 0.0000 0.1383 0.1561 ( 12150 PWs)   bands (ev):

   -38.8681 -38.6972 -38.3463 -38.3432 -38.3272 -38.1530  -4.1185  -0.6828
     3.6266   4.4558   7.1297   7.4376   8.8826   8.9279   9.9809  10.7538
    11.5830

          k = 0.0000 0.2766 0.0000 ( 12181 PWs)   bands (ev):

   -38.8139 -38.6628 -38.3815 -38.3740 -38.3141 -38.1789  -3.5869  -0.3059
     3.5513   4.7872   5.5041   6.7456   7.6083   8.3081   9.2725  11.1698
    11.5277

          k = 0.0000 0.2766 0.1561 ( 12159 PWs)   bands (ev):

   -38.8139 -38.6628 -38.3815 -38.3740 -38.3141 -38.1789  -3.5878  -0.3007
     3.8149   4.6414   4.8375   7.0903   7.9985   9.0145   9.4083  10.2100
    10.4847

          k = 0.0000 0.4149 0.0000 ( 12142 PWs)   bands (ev):

   -38.7321 -38.6109 -38.4445 -38.4218 -38.2942 -38.2107  -2.7168   0.1343
     2.8880   3.7509   5.1487   6.6980   6.9598   7.4805  10.0574  10.1089
    10.6488

          k = 0.0000 0.4149 0.1561 ( 12152 PWs)   bands (ev):

   -38.7321 -38.6109 -38.4445 -38.4218 -38.2942 -38.2107  -2.7181   0.1380
     2.8844   3.9396   4.8875   6.0717   7.2915   8.6042   8.8221  10.1739
    11.2371

          k = 0.0000 0.5532 0.0000 ( 12114 PWs)   bands (ev):

   -38.6340 -38.5521 -38.5283 -38.4816 -38.2695 -38.2414  -1.5492  -0.2822
     2.3971   3.2302   4.9764   5.6895   7.6093   8.1285   8.7994   9.2892
    11.0374

          k = 0.0000 0.5532 0.1561 ( 12127 PWs)   bands (ev):

   -38.6340 -38.5521 -38.5283 -38.4816 -38.2695 -38.2414  -1.5508  -0.2827
     2.3923   3.2305   5.2444   6.0772   6.3902   7.3194   9.7488  10.9006
    11.1136

          k = 0.1383 0.1383 0.0000 ( 12145 PWs)   bands (ev):

   -38.8498 -38.6858 -38.3559 -38.3529 -38.3234 -38.1631  -3.9400  -0.5524
     3.4291   5.3984   6.5418   7.2100   7.2854   9.1582   9.8433   9.8638
    10.1598

          k = 0.1383 0.1383 0.1561 ( 12167 PWs)   bands (ev):

   -38.8498 -38.6858 -38.3559 -38.3530 -38.3234 -38.1631  -3.9408  -0.5471
     3.6922   4.5313   7.2507   7.3167   7.5376   8.8334   9.2334  10.6265
    10.7294

          k = 0.1383 0.2766 0.0000 ( 12149 PWs)   bands (ev):

   -38.7976 -38.6532 -38.3872 -38.3816 -38.3122 -38.1889  -3.4103  -0.1738
     3.6069   4.9497   5.5709   6.8139   7.6269   7.6836   8.5054   9.8646
    10.1260

          k = 0.1383 0.2766 0.1561 ( 12154 PWs)   bands (ev):

   -38.7976 -38.6532 -38.3872 -38.3816 -38.3122 -38.1889  -3.4114  -0.1685
     3.8717   4.7194   4.9864   7.1597   7.7034   8.1235   9.0314   9.5418
     9.8765

          k = 0.1383 0.4149 0.0000 ( 12151 PWs)   bands (ev):

   -38.7187 -38.6041 -38.4450 -38.4264 -38.2950 -38.2198  -2.5427   0.2647
     3.0513   3.7983   5.2253   6.7176   7.0480   7.4843   8.6056   9.6862
     9.8251

          k = 0.1383 0.4149 0.1561 ( 12136 PWs)   bands (ev):

   -38.7187 -38.6042 -38.4450 -38.4264 -38.2950 -38.2198  -2.5441   0.2685
     3.0471   3.9876   4.9533   6.1645   7.2566   8.2641   8.7444   9.0530
    10.0557

          k = 0.1383 0.5532 0.0000 ( 12132 PWs)   bands (ev):

   -38.6245 -38.5481 -38.5245 -38.4825 -38.2735 -38.2485  -1.3802  -0.1279
     2.5263   3.3165   5.0462   5.7344   7.6148   8.0566   8.7020   9.1029
     9.6680

          k = 0.1383 0.5532 0.1561 ( 12133 PWs)   bands (ev):

   -38.6245 -38.5481 -38.5245 -38.4825 -38.2735 -38.2485  -1.3819  -0.1285
     2.5222   3.3213   5.3026   6.1097   6.4184   7.2664   9.6343   9.7259
    10.3719

          k = 0.2766 0.2766 0.0000 ( 12137 PWs)   bands (ev):

   -38.7509 -38.6260 -38.4074 -38.4042 -38.3064 -38.2144  -2.8847   0.1946
     3.7640   5.4267   5.4271   5.6801   7.0034   7.6880   8.3690   8.5201
     8.7964

          k = 0.2766 0.2766 0.1561 ( 12138 PWs)   bands (ev):

   -38.7509 -38.6260 -38.4074 -38.4042 -38.3064 -38.2144  -2.8860   0.2001
     4.0221   4.9056   5.4293   5.4627   7.1224   8.1893   8.4151   8.7394
     9.0200

          k = 0.2766 0.4149 0.0000 ( 12128 PWs)   bands (ev):

   -38.6809 -38.5851 -38.4493 -38.4399 -38.2971 -38.2439  -2.0252   0.6290
     3.5337   3.9205   5.4130   6.1136   7.0306   7.2878   7.6073   8.4760
     8.6711

          k = 0.2766 0.4149 0.1561 ( 12129 PWs)   bands (ev):

   -38.6809 -38.5852 -38.4493 -38.4399 -38.2971 -38.2439  -2.0270   0.6332
     3.5273   4.0989   5.1397   6.1482   6.4367   7.4433   8.1032   8.4466
     9.1148

          k = 0.2766 0.5532 0.0000 ( 12155 PWs)   bands (ev):

   -38.5982 -38.5377 -38.5143 -38.4854 -38.2846 -38.2677  -0.8803   0.3185
     2.8930   3.5356   5.2669   5.8461   7.4910   7.5397   7.7800   8.5308
     8.5393

          k = 0.2766 0.5532 0.1561 ( 12124 PWs)   bands (ev):

   -38.5982 -38.5377 -38.5143 -38.4854 -38.2846 -38.2677  -0.8825   0.3177
     2.8920   3.5542   5.4849   6.1645   6.4814   6.9700   7.8060   8.7134
     9.1308

          k = 0.4149 0.4149 0.0000 ( 12136 PWs)   bands (ev):

   -38.6249 -38.5570 -38.4657 -38.4620 -38.2996 -38.2727  -1.1833   1.0842
     4.0041   4.0844   4.5609   5.5499   7.0806   7.1859   7.4136   7.6664
     8.0956

          k = 0.4149 0.4149 0.1561 ( 12125 PWs)   bands (ev):

   -38.6249 -38.5570 -38.4657 -38.4620 -38.2996 -38.2727  -1.1857   1.0880
     4.0854   4.1202   4.5352   5.4449   6.7320   7.1857   7.4121   7.4676
     8.5343

          k = 0.4149 0.5532 0.0000 ( 12134 PWs)   bands (ev):

   -38.5614 -38.5244 -38.5033 -38.4909 -38.2998 -38.2926  -0.0803   0.9774
     3.3721   3.7299   5.4385   5.6547   6.3914   6.9655   7.2350   7.2995
     7.9377

          k = 0.4149 0.5532 0.1561 ( 12149 PWs)   bands (ev):

   -38.5614 -38.5244 -38.5033 -38.4909 -38.2998 -38.2926  -0.0834   0.9762
     3.3778   3.7627   5.4239   5.8233   6.5043   6.5420   7.0831   7.1845
     7.8152

          k = 0.5532 0.5532 0.0000 ( 12154 PWs)   bands (ev):

   -38.5250 -38.5110 -38.5035 -38.4995 -38.3122 -38.3112   0.9018   1.4687
     3.3988   3.5814   5.0287   5.7774   6.1646   6.5533   6.7289   6.8223
     7.4232

          k = 0.5532 0.5532 0.1561 ( 12154 PWs)   bands (ev):

   -38.5250 -38.5110 -38.5035 -38.4995 -38.3122 -38.3112   0.8978   1.4664
     3.4010   3.5993   5.0413   5.8183   6.2250   6.5200   6.7318   6.8516
     7.0731

     the Fermi energy is     7.2455 ev

!    total energy              =    -102.68984748 Ry
     estimated scf accuracy    <          4.1E-11 Ry
     smearing contrib. (-TS)   =      -0.00314176 Ry
     internal energy E=F+TS    =    -102.68670572 Ry

     The total energy is F=E-TS. E is the sum of the following terms:
     one-electron contribution =     -43.55875360 Ry
     hartree contribution      =      23.40206696 Ry
     xc contribution           =     -27.28942161 Ry
     ewald contribution        =     -55.24059746 Ry

     convergence has been achieved in  34 iterations

     Forces acting on atoms (cartesian axes, Ry/au):

     atom    1 type  1   force =     0.00000000    0.00000000    0.03296764
     atom    2 type  1   force =     0.00000000    0.00000000    0.03296764
     atom    3 type  1   force =     0.00000000    0.00000000   -0.03296764
     atom    4 type  1   force =     0.00000000    0.00000000   -0.03296764
     atom    5 type  1   force =     0.00000000    0.00000000   -0.02382777
     atom    6 type  1   force =     0.00000000    0.00000000    0.02382777
     atom    7 type  2   force =     0.00000000    0.00000000   -0.13847360
     atom    8 type  2   force =     0.00000000    0.00000000    0.13847360
     The non-local contrib.  to forces
     atom    1 type  1   force =     0.00000000    0.00000000    0.01686249
     atom    2 type  1   force =     0.00000000    0.00000000    0.01686249
     atom    3 type  1   force =     0.00000000    0.00000000   -0.01686249
     atom    4 type  1   force =     0.00000000    0.00000000   -0.01686249
     atom    5 type  1   force =     0.00000000    0.00000000    0.01745309
     atom    6 type  1   force =     0.00000000    0.00000000   -0.01745309
     atom    7 type  2   force =     0.00000000    0.00000000   -0.23974283
     atom    8 type  2   force =     0.00000000    0.00000000    0.23974283
     The ionic contribution  to forces
     atom    1 type  1   force =    -0.00000000    0.00000000    2.31525001
     atom    2 type  1   force =     0.00000000    0.00000000    2.31525001
     atom    3 type  1   force =     0.00000000   -0.00000000   -2.31525001
     atom    4 type  1   force =    -0.00000000   -0.00000000   -2.31525001
     atom    5 type  1   force =    -0.00000000   -0.00000000    0.05316754
     atom    6 type  1   force =    -0.00000000   -0.00000000   -0.05316754
     atom    7 type  2   force =     0.00000000   -0.00000000   -2.90583483
     atom    8 type  2   force =    -0.00000000   -0.00000000    2.90583483
     The local contribution  to forces
     atom    1 type  1   force =    -0.00000000    0.00000000   -2.29915289
     atom    2 type  1   force =    -0.00000000    0.00000000   -2.29915289
     atom    3 type  1   force =     0.00000000    0.00000000    2.29915289
     atom    4 type  1   force =    -0.00000000   -0.00000000    2.29915289
     atom    5 type  1   force =    -0.00000000    0.00000000   -0.09444983
     atom    6 type  1   force =     0.00000000    0.00000000    0.09444983
     atom    7 type  2   force =    -0.00000000   -0.00000000    2.99142504
     atom    8 type  2   force =     0.00000000   -0.00000000   -2.99142504
     The core correction contribution to forces
     atom    1 type  1   force =     0.00000000    0.00000000    0.00000000
     atom    2 type  1   force =     0.00000000    0.00000000    0.00000000
     atom    3 type  1   force =     0.00000000    0.00000000    0.00000000
     atom    4 type  1   force =     0.00000000    0.00000000    0.00000000
     atom    5 type  1   force =     0.00000000    0.00000000    0.00000000
     atom    6 type  1   force =     0.00000000    0.00000000    0.00000000
     atom    7 type  2   force =     0.00000000    0.00000000    0.01568060
     atom    8 type  2   force =    -0.00000000    0.00000000   -0.01568060
     The Hubbard contrib.    to forces
     atom    1 type  1   force =     0.00000000    0.00000000    0.00000000
     atom    2 type  1   force =     0.00000000    0.00000000    0.00000000
     atom    3 type  1   force =     0.00000000    0.00000000    0.00000000
     atom    4 type  1   force =     0.00000000    0.00000000    0.00000000
     atom    5 type  1   force =     0.00000000    0.00000000    0.00000000
     atom    6 type  1   force =     0.00000000    0.00000000    0.00000000
     atom    7 type  2   force =     0.00000000    0.00000000    0.00000000
     atom    8 type  2   force =     0.00000000    0.00000000    0.00000000
     The SCF correction term to forces
     atom    1 type  1   force =    -0.00000000    0.00000000    0.00000803
     atom    2 type  1   force =    -0.00000000    0.00000000    0.00000803
     atom    3 type  1   force =    -0.00000000    0.00000000   -0.00000803
     atom    4 type  1   force =    -0.00000000   -0.00000000   -0.00000803
     atom    5 type  1   force =    -0.00000000    0.00000000    0.00000144
     atom    6 type  1   force =    -0.00000000    0.00000000   -0.00000144
     atom    7 type  2   force =     0.00000000   -0.00000000   -0.00000158
     atom    8 type  2   force =    -0.00000000   -0.00000000    0.00000158

     Total force =     0.209363     Total SCF correction =     0.000016


     Computing stress (Cartesian axis) and pressure

          total   stress  (Ry/bohr**3)                   (kbar)     P=      421.34
   0.00266185   0.00000000   0.00000000          391.57        0.00        0.00
   0.00000000   0.00266185   0.00000000            0.00      391.57        0.00
   0.00000000   0.00000000   0.00326886            0.00        0.00      480.87

     Energy error            =      5.5E-01 Ry
     Gradient error          =      1.4E-01 Ry/Bohr
     Cell gradient error     =      1.1E+02 kbar

     number of scf cycles    =   3
     number of bfgs steps    =   2

     enthalpy           old  =    -100.3573251537 Ry
     enthalpy           new  =    -100.9115975120 Ry

     CASE: enthalpy          _new < enthalpy          _old

     new trust radius        =       0.1803352569 bohr
ibrav =      6
 celldm(1) =      5.58744949
 celldm(3) =      2.70111041
Input lattice vectors:
     0.77177789     0.00000000     0.00000000
     0.00000000     0.77177789     0.00000000
     0.00000000     0.00000000     2.08465729
New lattice vectors in INITIAL alat:
     0.77177789     0.00000000     0.00000000
     0.00000000     0.77177789     0.00000000
     0.00000000     0.00000000     2.08465729
New lattice vectors in NEW alat (for information only):
     1.00000000     0.00000000     0.00000000
     0.00000000     1.00000000     0.00000000
     0.00000000     0.00000000     2.70111041
Discrepancy in bohr =     0.000000    0.000000    0.000000
     new conv_thr            =       0.0000000100 Ry

     new unit-cell volume =    471.17601 a.u.^3 (    69.82108 Ang^3 )
     density =      2.32636 g/cm^3

CELL_PARAMETERS (alat=  7.23971179)
   0.771777891   0.000000000   0.000000000
   0.000000000   0.771777891   0.000000000
   0.000000000   0.000000000   2.084657294

ATOMIC_POSITIONS (crystal)
Li            0.0000000000        0.0000000000        0.1908613367
Li            0.5000000000        0.5000000000        0.1908613367
Li            0.5000000000        0.5000000000        0.8091386633
Li            0.0000000000        0.0000000000        0.8091386633
Li            0.0000000000        0.5000000000        0.0060917095
Li            0.5000000000        0.0000000000        0.9939082905
Si            0.0000000000        0.5000000000        0.6047830032
Si            0.5000000000        0.0000000000        0.3952169968



     Writing config-only to output data dir ./output/LiSi.save/
     NEW-OLD atomic charge density approx. for the potential
     extrapolated charge   23.13356, renormalised to   26.00000

     total cpu time spent up to now is      149.7 secs

     Self-consistent Calculation

     iteration #  1     ecut=    80.00 Ry     beta= 0.70
     Davidson diagonalization with overlap
     c_bands:  1 eigenvalues not converged
     ethr =  1.00E-06,  avg # of iterations = 12.2

     total cpu time spent up to now is      153.6 secs

     total energy              =     -97.82733762 Ry
     estimated scf accuracy    <       4.83441336 Ry

     iteration #  2     ecut=    80.00 Ry     beta= 0.70
     Davidson diagonalization with overlap
     ethr =  1.00E-02,  avg # of iterations =  6.6

     total cpu time spent up to now is      155.9 secs

     total energy              =    -102.80962719 Ry
     estimated scf accuracy    <      43.11443687 Ry

     iteration #  3     ecut=    80.00 Ry     beta= 0.70
     Davidson diagonalization with overlap
     ethr =  1.00E-02,  avg # of iterations =  3.2

     total cpu time spent up to now is      157.4 secs

     total energy              =    -103.01861144 Ry
     estimated scf accuracy    <      14.28422584 Ry

     iteration #  4     ecut=    80.00 Ry     beta= 0.70
     Davidson diagonalization with overlap
     ethr =  1.00E-02,  avg # of iterations =  2.5

     total cpu time spent up to now is      158.7 secs

     total energy              =    -102.77517328 Ry
     estimated scf accuracy    <       7.43901358 Ry

     iteration #  5     ecut=    80.00 Ry     beta= 0.70
     Davidson diagonalization with overlap
     ethr =  1.00E-02,  avg # of iterations =  1.8

     total cpu time spent up to now is      160.0 secs

     total energy              =    -102.13648127 Ry
     estimated scf accuracy    <       4.27310524 Ry

     iteration #  6     ecut=    80.00 Ry     beta= 0.70
     Davidson diagonalization with overlap
     ethr =  1.00E-02,  avg # of iterations =  2.7

     total cpu time spent up to now is      161.3 secs

     total energy              =    -102.54073879 Ry
     estimated scf accuracy    <       0.05164505 Ry

     iteration #  7     ecut=    80.00 Ry     beta= 0.70
     Davidson diagonalization with overlap
     ethr =  1.99E-04,  avg # of iterations =  4.5

     total cpu time spent up to now is      163.0 secs

     total energy              =    -102.55205869 Ry
     estimated scf accuracy    <       0.12454946 Ry

     iteration #  8     ecut=    80.00 Ry     beta= 0.70
     Davidson diagonalization with overlap
     ethr =  1.99E-04,  avg # of iterations =  1.4

     total cpu time spent up to now is      164.1 secs

     total energy              =    -102.55578536 Ry
     estimated scf accuracy    <       0.00868710 Ry

     iteration #  9     ecut=    80.00 Ry     beta= 0.70
     Davidson diagonalization with overlap
     ethr =  3.34E-05,  avg # of iterations =  4.0

     total cpu time spent up to now is      165.7 secs

     total energy              =    -102.56886790 Ry
     estimated scf accuracy    <       0.07587812 Ry

     iteration # 10     ecut=    80.00 Ry     beta= 0.70
     Davidson diagonalization with overlap
     ethr =  3.34E-05,  avg # of iterations =  2.2

     total cpu time spent up to now is      166.9 secs

     total energy              =    -102.54838230 Ry
     estimated scf accuracy    <       0.15053224 Ry

[...]
        k(    4) = (   0.0000000   0.1205331   0.2306361), wk =   0.0658436
        k(    5) = (   0.0000000   0.2410662   0.0000000), wk =   0.0329218
        k(    6) = (   0.0000000   0.2410662   0.2306361), wk =   0.0658436
        k(    7) = (   0.0000000   0.3615993   0.0000000), wk =   0.0329218
        k(    8) = (   0.0000000   0.3615993   0.2306361), wk =   0.0658436
        k(    9) = (   0.0000000   0.4821324   0.0000000), wk =   0.0329218
        k(   10) = (   0.0000000   0.4821324   0.2306361), wk =   0.0658436
        k(   11) = (   0.1205331   0.1205331   0.0000000), wk =   0.0329218
        k(   12) = (   0.1205331   0.1205331   0.2306361), wk =   0.0658436
        k(   13) = (   0.1205331   0.2410662   0.0000000), wk =   0.0658436
        k(   14) = (   0.1205331   0.2410662   0.2306361), wk =   0.1316872
        k(   15) = (   0.1205331   0.3615993   0.0000000), wk =   0.0658436
        k(   16) = (   0.1205331   0.3615993   0.2306361), wk =   0.1316872
        k(   17) = (   0.1205331   0.4821324   0.0000000), wk =   0.0658436
        k(   18) = (   0.1205331   0.4821324   0.2306361), wk =   0.1316872
        k(   19) = (   0.2410662   0.2410662   0.0000000), wk =   0.0329218
        k(   20) = (   0.2410662   0.2410662   0.2306361), wk =   0.0658436
        k(   21) = (   0.2410662   0.3615993   0.0000000), wk =   0.0658436
        k(   22) = (   0.2410662   0.3615993   0.2306361), wk =   0.1316872
        k(   23) = (   0.2410662   0.4821324   0.0000000), wk =   0.0658436
        k(   24) = (   0.2410662   0.4821324   0.2306361), wk =   0.1316872
        k(   25) = (   0.3615993   0.3615993   0.0000000), wk =   0.0329218
        k(   26) = (   0.3615993   0.3615993   0.2306361), wk =   0.0658436
        k(   27) = (   0.3615993   0.4821324   0.0000000), wk =   0.0658436
        k(   28) = (   0.3615993   0.4821324   0.2306361), wk =   0.1316872
        k(   29) = (   0.4821324   0.4821324   0.0000000), wk =   0.0329218
        k(   30) = (   0.4821324   0.4821324   0.2306361), wk =   0.0658436

     Dense  grid:    45067 G-vectors     FFT dimensions: (  40,  40,  60)

     Estimated max dynamical RAM per process >      22.43 MB

     Estimated total dynamical RAM >     179.41 MB

     Initial potential from superposition of free atoms

     starting charge      25.9714, renormalised to      26.0000
     Starting wfcs are   20 randomized atomic wfcs

     total cpu time spent up to now is      668.4 secs

     Self-consistent Calculation

     iteration #  1     ecut=    80.00 Ry     beta= 0.70
     Davidson diagonalization with overlap
     c_bands:  1 eigenvalues not converged
     c_bands:  1 eigenvalues not converged
     c_bands:  1 eigenvalues not converged
     c_bands:  1 eigenvalues not converged
     c_bands:  2 eigenvalues not converged
     c_bands:  1 eigenvalues not converged
     c_bands:  1 eigenvalues not converged
     c_bands:  1 eigenvalues not converged
     c_bands:  1 eigenvalues not converged
     ethr =  1.00E-06,  avg # of iterations = 17.8

     total cpu time spent up to now is      670.2 secs

     total energy              =    -102.92053566 Ry
     estimated scf accuracy    <       0.19690380 Ry

     iteration #  2     ecut=    80.00 Ry     beta= 0.70
     Davidson diagonalization with overlap
     ethr =  7.57E-04,  avg # of iterations =  3.3

     total cpu time spent up to now is      670.8 secs

     total energy              =    -102.83224002 Ry
     estimated scf accuracy    <       1.24926031 Ry

     iteration #  3     ecut=    80.00 Ry     beta= 0.70
     Davidson diagonalization with overlap
     ethr =  7.57E-04,  avg # of iterations =  2.5

     total cpu time spent up to now is      671.4 secs

     total energy              =    -103.02354691 Ry
     estimated scf accuracy    <       0.00812713 Ry

     iteration #  4     ecut=    80.00 Ry     beta= 0.70
     Davidson diagonalization with overlap
     ethr =  3.13E-05,  avg # of iterations =  2.5

     total cpu time spent up to now is      671.8 secs

     total energy              =    -103.02475692 Ry
     estimated scf accuracy    <       0.00001854 Ry

     iteration #  5     ecut=    80.00 Ry     beta= 0.70
     Davidson diagonalization with overlap
     ethr =  7.13E-08,  avg # of iterations =  4.7

     total cpu time spent up to now is      672.5 secs

     total energy              =    -103.02477714 Ry
     estimated scf accuracy    <       0.00000256 Ry

     iteration #  6     ecut=    80.00 Ry     beta= 0.70
     Davidson diagonalization with overlap
     ethr =  9.86E-09,  avg # of iterations =  2.1

     total cpu time spent up to now is      673.0 secs

     total energy              =    -103.02477752 Ry
     estimated scf accuracy    <       0.00000006 Ry

     iteration #  7     ecut=    80.00 Ry     beta= 0.70
     Davidson diagonalization with overlap
     ethr =  2.17E-10,  avg # of iterations =  3.3

     total cpu time spent up to now is      673.6 secs

     total energy              =    -103.02477754 Ry
     estimated scf accuracy    <          2.4E-10 Ry

     iteration #  8     ecut=    80.00 Ry     beta= 0.70
     Davidson diagonalization with overlap
     ethr =  9.30E-13,  avg # of iterations =  4.8

     total cpu time spent up to now is      674.2 secs

     End of self-consistent calculation

          k = 0.0000 0.0000 0.0000 (  5641 PWs)   bands (ev):

   -37.4310 -37.2124 -37.1136 -37.0906 -37.0540 -36.9769  -4.1429   3.6431
     4.7003   4.7003   5.5172   6.8706   9.4550  10.5272  11.1848  11.5155
    11.5161

          k = 0.0000 0.0000 0.2306 (  5662 PWs)   bands (ev):

   -37.4253 -37.2224 -37.1083 -37.0959 -37.0540 -36.9725  -4.1517   3.3219
     4.8262   4.8262   6.7724   6.8416   9.3199   9.3199   9.5087  10.1735
    10.8375

          k = 0.0000 0.1205 0.0000 (  5657 PWs)   bands (ev):

   -37.4207 -37.2085 -37.1181 -37.0941 -37.0566 -36.9798  -4.0159   3.5901
     3.7114   4.8346   5.5741   7.6998   9.1590   9.6092  11.3305  11.5187
    11.6592

          k = 0.0000 0.1205 0.2306 (  5656 PWs)   bands (ev):

   -37.4150 -37.2184 -37.1127 -37.0995 -37.0565 -36.9755  -4.0247   3.3875
     3.6472   4.9599   6.9007   7.6211   8.4078   9.4660  10.1222  10.1837
    11.4386

          k = 0.0000 0.2411 0.0000 (  5645 PWs)   bands (ev):

   -37.3908 -37.1975 -37.1379 -37.1042 -37.0572 -36.9882  -3.6353   1.9193
     3.9216   5.2377   5.7495   7.7337   8.1847   9.6467  11.2744  11.7671
    12.0882

          k = 0.0000 0.2411 0.2306 (  5655 PWs)   bands (ev):

   -37.3854 -37.2070 -37.1325 -37.1105 -37.0562 -36.9842  -3.6442   1.9400
     3.5887   5.3608   7.0809   7.1593   8.2644   9.9042  10.2046  10.8440
    11.3714

          k = 0.0000 0.3616 0.0000 (  5629 PWs)   bands (ev):

   -37.3453 -37.1808 -37.1777 -37.1199 -37.0487 -37.0013  -3.0029   0.3586
     4.2881   5.9094   6.0555   6.5377   7.7633   9.5338   9.9130  12.1975
    12.4934

          k = 0.0000 0.3616 0.2306 (  5624 PWs)   bands (ev):

   -37.3401 -37.1897 -37.1727 -37.1269 -37.0467 -36.9976  -3.0115   0.3628
     3.9383   6.0291   6.0580   7.3874   8.4704   9.6371  10.2035  10.3108
    10.6333

          k = 0.0000 0.4821 0.0000 (  5611 PWs)   bands (ev):

   -37.2897 -37.2312 -37.1606 -37.1394 -37.0341 -37.0173  -2.1218  -0.9975
     4.8314   5.5745   6.5047   6.8497   7.0952   8.0582  10.5030  11.2764
    13.8003

          k = 0.0000 0.4821 0.2306 (  5620 PWs)   bands (ev):

   -37.2847 -37.2263 -37.1688 -37.1470 -37.0314 -37.0140  -2.1290  -1.0012
     4.4543   5.1560   6.9647   7.8096   8.1676   8.2617  10.0776  10.1407
    11.6515

          k = 0.1205 0.1205 0.0000 (  5657 PWs)   bands (ev):

   -37.4105 -37.2049 -37.1208 -37.0973 -37.0605 -36.9829  -3.8893   3.3781
     3.7771   4.1567   5.6272   8.5971   8.6726   9.5365  11.3021  11.4554
    11.8630

          k = 0.1205 0.1205 0.2306 (  5650 PWs)   bands (ev):

   -37.4049 -37.2147 -37.1154 -37.1027 -37.0605 -36.9788  -3.8982   3.4257
     3.4517   4.2315   6.9503   8.0605   8.6788   9.0478  10.0822  10.6099
    11.9783

          k = 0.1205 0.2411 0.0000 (  5648 PWs)   bands (ev):

   -37.3813 -37.1945 -37.1365 -37.1068 -37.0638 -36.9920  -3.5101   1.9782
     3.9788   4.2968   5.7873   7.5114   8.8903  10.0598  10.0793  11.6127
    11.6684

          k = 0.1205 0.2411 0.2306 (  5649 PWs)   bands (ev):

   -37.3759 -37.2039 -37.1310 -37.1129 -37.0632 -36.9881  -3.5190   1.9980
     3.6487   4.3594   7.0801   7.0900   9.0186   9.5352   9.7084  11.3894
    11.5905

          k = 0.1205 0.3616 0.0000 (  5637 PWs)   bands (ev):

   -37.3367 -37.1787 -37.1736 -37.1215 -37.0562 -37.0060  -2.8801   0.4564
     4.3301   4.8802   6.0430   6.4493   8.1484   8.5386  10.8224  12.2515
    12.2800

          k = 0.1205 0.3616 0.2306 (  5619 PWs)   bands (ev):

   -37.3315 -37.1876 -37.1684 -37.1285 -37.0544 -37.0024  -2.8888   0.4603
     3.9907   4.9421   6.0499   7.2197   8.5296   8.9817  10.2785  11.0941
    11.4076

          k = 0.1205 0.4821 0.0000 (  5622 PWs)   bands (ev):

   -37.2824 -37.2253 -37.1597 -37.1398 -37.0410 -37.0231  -2.0030  -0.8858
     4.8491   5.5533   5.6664   6.2279   7.4403   7.4874  11.5760  12.4305
    13.1382

          k = 0.1205 0.4821 0.2306 (  5619 PWs)   bands (ev):

   -37.2774 -37.2204 -37.1679 -37.1474 -37.0383 -37.0199  -2.0104  -0.8897
     4.4944   5.1743   5.7702   6.7187   8.2178   8.6038  10.7532  10.9954
    11.7835

          k = 0.2411 0.2411 0.0000 (  5643 PWs)   bands (ev):

   -37.3539 -37.1859 -37.1388 -37.1144 -37.0769 -37.0028  -3.1352   1.8276
     3.1856   4.1544   5.8742   6.9268   8.4826   8.8986  11.2796  11.5845
    11.6540

          k = 0.2411 0.2411 0.2306 (  5638 PWs)   bands (ev):

   -37.3486 -37.1950 -37.1332 -37.1201 -37.0769 -36.9991  -3.1441   1.8423
     3.2130   3.8323   6.6808   6.9978   8.3915   8.5752  11.4420  11.4766
    12.3753

          k = 0.2411 0.3616 0.0000 (  5632 PWs)   bands (ev):

   -37.3122 -37.1729 -37.1633 -37.1263 -37.0763 -37.0195  -2.5132   0.7056
     3.3641   4.4585   5.7930   6.1918   7.3344   8.3276  11.4687  11.9216
    12.8962

          k = 0.2411 0.3616 0.2306 (  5627 PWs)   bands (ev):

   -37.3070 -37.1815 -37.1578 -37.1330 -37.0751 -37.0161  -2.5220   0.7081
     3.3866   4.1495   5.9629   6.2536   7.9612   8.4488  11.5478  11.5978
    12.6671

          k = 0.2411 0.4821 0.0000 (  5623 PWs)   bands (ev):

   -37.2614 -37.2088 -37.1574 -37.1411 -37.0604 -37.0397  -1.6504  -0.5611
     4.1031   4.9024   5.0448   5.4885   7.2157   7.6801  12.0618  12.5558
    13.7893

          k = 0.2411 0.4821 0.2306 (  5625 PWs)   bands (ev):

   -37.2564 -37.2036 -37.1654 -37.1486 -37.0582 -37.0368  -1.6580  -0.5656
     4.1323   4.6088   5.1397   5.2298   8.1174   8.3406  11.4210  11.5940
    12.6500

          k = 0.3616 0.3616 0.0000 (  5608 PWs)   bands (ev):

   -37.2749 -37.1643 -37.1593 -37.1338 -37.0955 -37.0401  -1.9077   0.7416
     2.3957   4.6785   4.8151   5.8085   7.0970   8.1974  11.0659  11.8700
    12.7738

          k = 0.3616 0.3616 0.2306 (  5636 PWs)   bands (ev):

   -37.2698 -37.1724 -37.1534 -37.1397 -37.0955 -37.0370  -1.9165   0.7402
     2.4052   4.4151   4.9055   5.6914   7.9195   8.0480  11.6417  11.9564
    12.5534

          k = 0.3616 0.4821 0.0000 (  5617 PWs)   bands (ev):

   -37.2301 -37.1860 -37.1539 -37.1433 -37.0880 -37.0648  -1.0791  -0.0841
     2.7207   3.6573   4.9912   5.3824   7.3786   7.8107  11.2480  11.8643
    12.1437

          k = 0.3616 0.4821 0.2306 (  5629 PWs)   bands (ev):

   -37.2249 -37.1803 -37.1617 -37.1505 -37.0866 -37.0622  -1.0873  -0.0902
     2.7295   3.6765   4.8004   5.2541   7.9341   7.9400  11.5180  11.6256
    12.7127

          k = 0.4821 0.4821 0.0000 (  5608 PWs)   bands (ev):

   -37.1948 -37.1727 -37.1501 -37.1464 -37.1077 -37.0928  -0.3507   0.1894
     1.9746   2.4979   5.1109   5.2487   7.6261   7.8083  10.9173  11.1577
    12.0289

          k = 0.4821 0.4821 0.2306 (  5626 PWs)   bands (ev):

   -37.1891 -37.1666 -37.1574 -37.1525 -37.1077 -37.0913  -0.3595   0.1807
     1.9789   2.5035   5.0133   5.1874   7.7213   7.7542  11.5385  11.6667
    12.5348

     the Fermi energy is     8.3432 ev

!    total energy              =    -103.02477754 Ry
     estimated scf accuracy    <          9.5E-12 Ry
     smearing contrib. (-TS)   =      -0.00013265 Ry
     internal energy E=F+TS    =    -103.02464489 Ry

     The total energy is F=E-TS. E is the sum of the following terms:
     one-electron contribution =     -29.09408595 Ry
     hartree contribution      =      17.18712654 Ry
     xc contribution           =     -27.65117560 Ry
     ewald contribution        =     -63.46650988 Ry

     convergence has been achieved in   8 iterations

     Forces acting on atoms (cartesian axes, Ry/au):

     atom    1 type  1   force =     0.00000000    0.00000000    0.00011562
     atom    2 type  1   force =     0.00000000    0.00000000    0.00011562
     atom    3 type  1   force =     0.00000000    0.00000000   -0.00011562
     atom    4 type  1   force =     0.00000000    0.00000000   -0.00011562
     atom    5 type  1   force =     0.00000000    0.00000000   -0.00002708
     atom    6 type  1   force =     0.00000000    0.00000000    0.00002708
     atom    7 type  2   force =     0.00000000    0.00000000   -0.00006456
     atom    8 type  2   force =     0.00000000    0.00000000    0.00006456
     The non-local contrib.  to forces
     atom    1 type  1   force =     0.00000000    0.00000000    0.04216833
     atom    2 type  1   force =     0.00000000    0.00000000    0.04216833
     atom    3 type  1   force =     0.00000000    0.00000000   -0.04216833
     atom    4 type  1   force =     0.00000000    0.00000000   -0.04216833
     atom    5 type  1   force =     0.00000000    0.00000000    0.00002814
     atom    6 type  1   force =     0.00000000    0.00000000   -0.00002814
     atom    7 type  2   force =     0.00000000    0.00000000   -0.00007817
     atom    8 type  2   force =     0.00000000    0.00000000    0.00007817
     The ionic contribution  to forces
     atom    1 type  1   force =    -0.00000000   -0.00000000   -0.38544582
     atom    2 type  1   force =     0.00000000    0.00000000   -0.38544582
     atom    3 type  1   force =     0.00000000    0.00000000    0.38544582
     atom    4 type  1   force =    -0.00000000   -0.00000000    0.38544582
     atom    5 type  1   force =    -0.00000000    0.00000000   -0.00020140
     atom    6 type  1   force =     0.00000000   -0.00000000    0.00020140
     atom    7 type  2   force =    -0.00000000    0.00000000   -0.00008481
     atom    8 type  2   force =     0.00000000   -0.00000000    0.00008481
     The local contribution  to forces
     atom    1 type  1   force =     0.00000000    0.00000000    0.34339528
     atom    2 type  1   force =     0.00000000    0.00000000    0.34339528
     atom    3 type  1   force =     0.00000000    0.00000000   -0.34339528
     atom    4 type  1   force =    -0.00000000   -0.00000000   -0.34339528
     atom    5 type  1   force =     0.00000000    0.00000000    0.00014624
     atom    6 type  1   force =     0.00000000    0.00000000   -0.00014624
     atom    7 type  2   force =    -0.00000000   -0.00000000    0.00009425
     atom    8 type  2   force =    -0.00000000   -0.00000000   -0.00009425
     The core correction contribution to forces
     atom    1 type  1   force =     0.00000000    0.00000000    0.00000000
     atom    2 type  1   force =     0.00000000    0.00000000    0.00000000
     atom    3 type  1   force =     0.00000000    0.00000000    0.00000000
     atom    4 type  1   force =     0.00000000    0.00000000    0.00000000
     atom    5 type  1   force =     0.00000000    0.00000000    0.00000000
     atom    6 type  1   force =     0.00000000    0.00000000    0.00000000
     atom    7 type  2   force =     0.00000000   -0.00000000    0.00000413
     atom    8 type  2   force =    -0.00000000    0.00000000   -0.00000413
     The Hubbard contrib.    to forces
     atom    1 type  1   force =     0.00000000    0.00000000    0.00000000
     atom    2 type  1   force =     0.00000000    0.00000000    0.00000000
     atom    3 type  1   force =     0.00000000    0.00000000    0.00000000
     atom    4 type  1   force =     0.00000000    0.00000000    0.00000000
     atom    5 type  1   force =     0.00000000    0.00000000    0.00000000
     atom    6 type  1   force =     0.00000000    0.00000000    0.00000000
     atom    7 type  2   force =     0.00000000    0.00000000    0.00000000
     atom    8 type  2   force =     0.00000000    0.00000000    0.00000000
     The SCF correction term to forces
     atom    1 type  1   force =    -0.00000000   -0.00000000   -0.00000217
     atom    2 type  1   force =    -0.00000000   -0.00000000   -0.00000217
     atom    3 type  1   force =    -0.00000000   -0.00000000    0.00000217
     atom    4 type  1   force =    -0.00000000   -0.00000000    0.00000217
     atom    5 type  1   force =     0.00000000    0.00000000   -0.00000006
     atom    6 type  1   force =     0.00000000    0.00000000    0.00000006
     atom    7 type  2   force =    -0.00000000    0.00000000    0.00000004
     atom    8 type  2   force =     0.00000000    0.00000000   -0.00000004

     Total force =     0.000252     Total SCF correction =     0.000004


     Computing stress (Cartesian axis) and pressure

          total   stress  (Ry/bohr**3)                   (kbar)     P=      500.09
   0.00340034   0.00000000   0.00000000          500.21        0.00        0.00
   0.00000000   0.00340034   0.00000000            0.00      500.21        0.00
   0.00000000   0.00000000   0.00339802            0.00        0.00      499.87


     Writing all to output data dir ./output/LiSi.save/

     init_run     :      2.81s CPU      4.69s WALL (       2 calls)
     electrons    :    466.15s CPU    521.29s WALL (      33 calls)
     update_pot   :     29.72s CPU     30.07s WALL (      31 calls)
     forces       :     20.47s CPU     20.84s WALL (      33 calls)
     stress       :     93.18s CPU     97.59s WALL (      33 calls)

     Called by init_run:
     wfcinit      :      1.06s CPU      2.40s WALL (       2 calls)
     potinit      :      0.67s CPU      0.83s WALL (       2 calls)
     hinit0       :      0.95s CPU      1.21s WALL (       2 calls)

     Called by electrons:
     c_bands      :    406.08s CPU    451.84s WALL (     347 calls)
     sum_band     :     53.33s CPU     60.78s WALL (     347 calls)
     v_of_rho     :      6.47s CPU      7.54s WALL (     378 calls)
     mix_rho      :      0.63s CPU      0.78s WALL (     347 calls)

     Called by c_bands:
     init_us_2    :     10.22s CPU     11.73s WALL (   22860 calls)
     init_us_2:cp :     10.18s CPU     11.69s WALL (   22860 calls)
     cegterg      :    380.55s CPU    421.90s WALL (   10410 calls)

     Called by *egterg:
     cdiaghg      :     15.15s CPU     15.78s WALL (   45980 calls)
     h_psi        :    318.08s CPU    359.06s WALL (   47030 calls)
     g_psi        :      1.69s CPU      1.74s WALL (   36560 calls)

     Called by h_psi:
     h_psi:calbec :     29.25s CPU     31.50s WALL (   47030 calls)
     vloc_psi     :    261.96s CPU    299.98s WALL (   47030 calls)
     add_vuspsi   :     25.64s CPU     26.29s WALL (   47030 calls)

     General routines
     calbec       :     34.50s CPU     36.84s WALL (   51980 calls)
     fft          :      3.18s CPU      4.57s WALL (    4605 calls)
     ffts         :      0.17s CPU      0.22s WALL (     347 calls)
     fftw         :    268.40s CPU    307.30s WALL ( 1189604 calls)

     Parallel routines

     PWSCF        :  10m12.99s CPU  11m16.08s WALL


   This run was terminated on:  17:28:52  29Dec2024            

=------------------------------------------------------------------------------=
   JOB DONE.
=------------------------------------------------------------------------------=
