
     Program PWSCF v.7.2 starts on 29Dec2024 at 17:41:42 

     This program is part of the open-source Quantum ESPRESSO suite
     for quantum simulation of materials; please cite
         "P. Giannozzi et al., J. Phys.:Condens. Matter 21 395502 (2009);
         "P. Giannozzi et al., J. Phys.:Condens. Matter 29 465901 (2017);
         "P. Giannozzi et al., J. Chem. Phys. 152 154105 (2020);
          URL http://www.quantum-espresso.org", 
     in publications or presentations arising from this work. More details at
     http://www.quantum-espresso.org/quote

     Parallel version (MPI & OpenMP), running on       8 processor cores
     Number of MPI processes:                 8
     Threads/MPI process:                     1

     MPI processes distributed on     1 nodes
     481440 MiB available memory on the printing compute node when the environment starts

     Waiting for input...
     Reading input from standard input

     Current dimensions of program PWSCF are:
     Max number of different atomic species (ntypx) = 10
     Max number of k-points (npk) =  40000
     Max angular momentum in pseudopotentials (lmaxx) =  4

     R & G space division:  proc/nbgrp/npool/nimage =       8
     Subspace diagonalization in iterative solution of the eigenvalue problem:
     a serial algorithm will be used


     Parallelization info
     --------------------
     sticks:   dense  smooth     PW     G-vecs:    dense   smooth      PW
     Min         197     197     56                 4900     4900     758
     Max         199     199     57                 4901     4901     761
     Sum        1585    1585    451                39205    39205    6073

     Using Slab Decomposition



     bravais-lattice index     =            4
     lattice parameter (alat)  =       8.4800  a.u.
     unit-cell volume          =     405.2105 (a.u.)^3
     number of atoms/cell      =            8
     number of atomic types    =            2
     number of electrons       =        26.00
     number of Kohn-Sham states=           17
     kinetic-energy cutoff     =      80.0000  Ry
     charge density cutoff     =     320.0000  Ry
     scf convergence threshold =      1.0E-08
     mixing beta               =       0.7000
     number of iterations used =            8  plain     mixing
     energy convergence thresh.=      1.0E-04
     force convergence thresh. =      1.0E-03
     press convergence thresh. =      1.0E+00
     Exchange-correlation= PBE
                           (   1   4   3   4   0   0   0)
     nstep                     =           50


     celldm(1)=   8.479951  celldm(2)=   0.000000  celldm(3)=   0.767308
     celldm(4)=   0.000000  celldm(5)=   0.000000  celldm(6)=   0.000000

     crystal axes: (cart. coord. in units of alat)
               a(1) = (   1.000000   0.000000   0.000000 )  
               a(2) = (  -0.500000   0.866025   0.000000 )  
               a(3) = (   0.000000   0.000000   0.767308 )  

     reciprocal axes: (cart. coord. in units 2 pi/alat)
               b(1) = (  1.000000  0.577350 -0.000000 )  
               b(2) = (  0.000000  1.154701  0.000000 )  
               b(3) = (  0.000000 -0.000000  1.303257 )  


     PseudoPot. # 1 for Li read from file:
     ../pseudo/Li_ONCV_PBE_sr.upf
     MD5 check sum: 50ff420e78310ffa21704f3361e624a4
     Pseudo is Norm-conserving, Zval =  3.0
     Generated using ONCVPSP code by D. R. Hamann
     Using radial grid of 1944 points,  4 beta functions with: 
                l(1) =   0
                l(2) =   0
                l(3) =   1
                l(4) =   1

     PseudoPot. # 2 for Si read from file:
     ../pseudo/Si_ONCV_PBE_sr.upf
     MD5 check sum: e543d271109d17c80368dfa7c482276d
     Pseudo is Norm-conserving + core correction, Zval =  4.0
     Generated using ONCVPSP code by D. R. Hamann
     Using radial grid of 1510 points,  6 beta functions with: 
                l(1) =   0
                l(2) =   0
                l(3) =   1
                l(4) =   1
                l(5) =   2
                l(6) =   2

     atomic species   valence    mass     pseudopotential
        Li             3.00     6.94100     Li( 1.00)
        Si             4.00    28.08550     Si( 1.00)

     24 Sym. Ops., with inversion, found (12 have fractional translation)



   Cartesian axes

     site n.     atom                  positions (alat units)
         1           Li  tau(   1) = (  -0.2409155   0.7164429   0.5754813  )
         2           Li  tau(   2) = (   0.7409155   0.1495825   0.1918271  )
         3           Li  tau(   3) = (   0.2590845   0.1495825   0.1918271  )
         4           Li  tau(   4) = (   0.2409155   0.7164429   0.5754813  )
         5           Li  tau(   5) = (   0.0000000   0.2991650   0.5754813  )
         6           Li  tau(   6) = (   0.5000000   0.5668604   0.1918271  )
         7           Si  tau(   7) = (  -0.0000000   0.5773503   0.1918271  )
         8           Si  tau(   8) = (   0.5000000   0.2886751   0.5754813  )

     number of k points=    20  Marzari-Vanderbilt smearing, width (Ry)=  0.0200
                       cart. coord. in units 2pi/alat
        k(    1) = (   0.0000000   0.0000000   0.0000000), wk =   0.0133333
        k(    2) = (   0.0000000   0.0000000   0.2172095), wk =   0.0266667
        k(    3) = (   0.0000000   0.0000000   0.4344190), wk =   0.0266667
        k(    4) = (   0.0000000   0.0000000  -0.6516285), wk =   0.0133333
        k(    5) = (   0.0000000   0.2309401   0.0000000), wk =   0.0800000
        k(    6) = (   0.0000000   0.2309401   0.2172095), wk =   0.1600000
        k(    7) = (   0.0000000   0.2309401   0.4344190), wk =   0.1600000
        k(    8) = (   0.0000000   0.2309401  -0.6516285), wk =   0.0800000
        k(    9) = (   0.0000000   0.4618802   0.0000000), wk =   0.0800000
        k(   10) = (   0.0000000   0.4618802   0.2172095), wk =   0.1600000
        k(   11) = (   0.0000000   0.4618802   0.4344190), wk =   0.1600000
        k(   12) = (   0.0000000   0.4618802  -0.6516285), wk =   0.0800000
        k(   13) = (   0.2000000   0.3464102   0.0000000), wk =   0.0800000
        k(   14) = (   0.2000000   0.3464102   0.2172095), wk =   0.1600000
        k(   15) = (   0.2000000   0.3464102   0.4344190), wk =   0.1600000
        k(   16) = (   0.2000000   0.3464102  -0.6516285), wk =   0.0800000
        k(   17) = (   0.2000000   0.5773503   0.0000000), wk =   0.0800000
        k(   18) = (   0.2000000   0.5773503   0.2172095), wk =   0.1600000
        k(   19) = (   0.2000000   0.5773503   0.4344190), wk =   0.1600000
        k(   20) = (   0.2000000   0.5773503  -0.6516285), wk =   0.0800000

     Dense  grid:    39205 G-vectors     FFT dimensions: (  50,  50,  40)

     Estimated max dynamical RAM per process >      19.36 MB

     Estimated total dynamical RAM >     154.90 MB

     Initial potential from superposition of free atoms

     starting charge      25.9714, renormalised to      26.0000
     Starting wfcs are   20 randomized atomic wfcs

     total cpu time spent up to now is        1.6 secs

     Self-consistent Calculation

     iteration #  1     ecut=    80.00 Ry     beta= 0.70
     Davidson diagonalization with overlap
     ethr =  1.00E-02,  avg # of iterations =  5.2

     Threshold (ethr) on eigenvalues was too large:
     Diagonalizing with lowered threshold

     Davidson diagonalization with overlap
     ethr =  1.46E-04,  avg # of iterations =  4.7

     total cpu time spent up to now is        2.8 secs

     total energy              =    -102.77801417 Ry
     estimated scf accuracy    <       0.03728379 Ry

     iteration #  2     ecut=    80.00 Ry     beta= 0.70
     Davidson diagonalization with overlap
     ethr =  1.43E-04,  avg # of iterations =  2.0

     total cpu time spent up to now is        3.3 secs

     total energy              =    -102.78309936 Ry
     estimated scf accuracy    <       0.00825474 Ry

     iteration #  3     ecut=    80.00 Ry     beta= 0.70
     Davidson diagonalization with overlap
     ethr =  3.17E-05,  avg # of iterations =  2.4

     total cpu time spent up to now is        3.9 secs

     total energy              =    -102.78479990 Ry
     estimated scf accuracy    <       0.00057123 Ry

     iteration #  4     ecut=    80.00 Ry     beta= 0.70
     Davidson diagonalization with overlap
     ethr =  2.20E-06,  avg # of iterations =  3.5

     total cpu time spent up to now is        4.4 secs

     total energy              =    -102.78485173 Ry
     estimated scf accuracy    <       0.00000705 Ry

     iteration #  5     ecut=    80.00 Ry     beta= 0.70
     Davidson diagonalization with overlap
     ethr =  2.71E-08,  avg # of iterations =  3.1

     total cpu time spent up to now is        4.8 secs

     total energy              =    -102.78485449 Ry
     estimated scf accuracy    <       0.00000080 Ry

     iteration #  6     ecut=    80.00 Ry     beta= 0.70
     Davidson diagonalization with overlap
     ethr =  3.08E-09,  avg # of iterations =  2.0

     total cpu time spent up to now is        5.2 secs

     End of self-consistent calculation

          k = 0.0000 0.0000 0.0000 (  4867 PWs)   bands (ev):

   -36.1545 -35.7866 -35.7866 -35.7448 -35.6171 -35.6171  -0.8085   4.0268
     5.1116   5.1116   6.3603   7.8349   9.1776   9.1776  13.0126  13.3044
    15.9971

          k = 0.0000 0.0000 0.2172 (  4873 PWs)   bands (ev):

   -36.1266 -35.7748 -35.7748 -35.7718 -35.6280 -35.6280  -0.6109   3.4298
     5.2859   5.2859   6.4430   7.9033   8.7171   8.7171  12.4015  14.2072
    15.5587

          k = 0.0000 0.0000 0.4344 (  4902 PWs)   bands (ev):

   -36.0506 -35.8457 -35.7428 -35.7428 -35.6581 -35.6581  -0.0250   2.1645
     5.8027   5.8027   6.8465   7.6942   7.6942   7.9072  11.6889  13.5221
    14.9377

          k = 0.0000 0.0000-0.6516 (  4866 PWs)   bands (ev):

   -35.9477 -35.9477 -35.7000 -35.7000 -35.7000 -35.7000   0.9248   0.9248
     6.6352   6.6352   6.6352   6.6352   7.4714   7.4714  12.0891  12.0891
    14.6579

          k = 0.0000 0.2309 0.0000 (  4877 PWs)   bands (ev):

   -36.1232 -35.8243 -35.7900 -35.7459 -35.6140 -35.6103  -0.6591   2.5493
     5.1353   6.6482   6.7021   7.5826   9.6294  10.3771  11.6876  13.2876
    14.7926

          k = 0.0000 0.2309 0.2172 (  4890 PWs)   bands (ev):

   -36.0966 -35.8143 -35.7777 -35.7645 -35.6262 -35.6253  -0.4680   2.4665
     5.3173   5.6797   7.1441   7.8281   8.9758   9.0515  12.4950  13.6498
    14.4723

          k = 0.0000 0.2309 0.4344 (  4892 PWs)   bands (ev):

   -36.0248 -35.8402 -35.7656 -35.7446 -35.6671 -35.6566   0.0920   1.9269
     5.2319   5.8563   7.1041   7.5957   7.8719   8.0601  12.4412  13.2886
    14.2967

          k = 0.0000 0.2309-0.6516 (  4902 PWs)   bands (ev):

   -35.9293 -35.9293 -35.7186 -35.7186 -35.7001 -35.7001   0.9623   0.9623
     5.8510   5.8510   6.7296   6.7296   7.9123   7.9123  12.6169  12.6169
    14.5973

          k = 0.0000 0.4619 0.0000 (  4911 PWs)   bands (ev):

   -36.0413 -35.9196 -35.7952 -35.7381 -35.6091 -35.6055  -0.2530   1.2261
     5.1747   6.4836   7.6542   9.6904   9.9665  10.8034  11.8375  13.1309
    13.8662

          k = 0.0000 0.4619 0.2172 (  4899 PWs)   bands (ev):

   -36.0179 -35.9058 -35.7823 -35.7501 -35.6287 -35.6211  -0.0801   1.3034
     5.3690   6.1936   7.0340   8.1074   9.7670   9.9786  12.4316  13.7482
    13.9184

          k = 0.0000 0.4619 0.4344 (  4890 PWs)   bands (ev):

   -35.9571 -35.8747 -35.7771 -35.7474 -35.6895 -35.6543   0.4037   1.3723
     5.1677   5.9448   6.1994   7.3751   8.1951   9.0990  12.8457  13.8789
    15.1327

          k = 0.0000 0.4619-0.6516 (  4906 PWs)   bands (ev):

   -35.8892 -35.8892 -35.7590 -35.7590 -35.7004 -35.7004   1.0303   1.0303
     5.1188   5.1188   6.8901   6.8901   8.0816   8.0816  13.9969  13.9969
    14.4890

          k = 0.2000 0.3464 0.0000 (  4886 PWs)   bands (ev):

   -36.0661 -35.8655 -35.8411 -35.7147 -35.6206 -35.6006  -0.3612   1.4801
     4.9287   7.3634   7.5183   8.1760  10.3684  10.8473  11.4546  12.5928
    13.2404

          k = 0.2000 0.3464 0.2172 (  4897 PWs)   bands (ev):

   -36.0419 -35.8504 -35.8358 -35.7238 -35.6319 -35.6219  -0.1836   1.5357
     5.1067   6.2563   7.6097   8.5464   8.5465   9.5448  12.6626  13.3999
    14.0662

          k = 0.2000 0.3464 0.4344 (  4900 PWs)   bands (ev):

   -35.9778 -35.8423 -35.8085 -35.7325 -35.6761 -35.6626   0.3211   1.5069
     5.1790   5.6369   6.5052   7.8582   8.1395   8.6701  12.4083  13.6249
    14.8895

          k = 0.2000 0.3464-0.6516 (  4882 PWs)   bands (ev):

   -35.8986 -35.8986 -35.7494 -35.7494 -35.7005 -35.7005   1.0167   1.0167
     5.2973   5.2973   6.5621   6.5621   8.5031   8.5031  12.6585  12.6586
    15.4491

          k = 0.2000 0.5774 0.0000 (  4910 PWs)   bands (ev):

   -35.9903 -35.9406 -35.8618 -35.6889 -35.6312 -35.5966   0.0495   0.7203
     4.7775   7.6523   8.3021   9.1273  10.1787  10.2466  11.8684  12.1164
    13.0096

          k = 0.2000 0.5774 0.2172 (  4914 PWs)   bands (ev):

   -35.9661 -35.9281 -35.8518 -35.6966 -35.6433 -35.6204   0.2072   0.8363
     4.9505   6.8914   7.6441   8.0325   9.5868  10.3215  10.5281  14.5156
    14.7253

          k = 0.2000 0.5774 0.4344 (  4898 PWs)   bands (ev):

   -35.9049 -35.8970 -35.8285 -35.7099 -35.6929 -35.6671   0.6255   1.0748
     5.3581   5.5800   5.9174   7.7585   8.4663   9.7248  11.0761  14.0184
    16.0694

          k = 0.2000 0.5774-0.6516 (  4908 PWs)   bands (ev):

   -35.8704 -35.8704 -35.7776 -35.7776 -35.7008 -35.7008   1.0540   1.0540
     5.0234   5.0234   6.4092   6.4092   9.0669   9.0669  12.1836  12.1836
    17.0455

     the Fermi energy is     9.1069 ev

!    total energy              =    -102.78485465 Ry
     estimated scf accuracy    <          1.3E-09 Ry
     smearing contrib. (-TS)   =      -0.00061676 Ry
     internal energy E=F+TS    =    -102.78423790 Ry

     The total energy is F=E-TS. E is the sum of the following terms:
     one-electron contribution =     -25.32233434 Ry
     hartree contribution      =      16.81397831 Ry
     xc contribution           =     -28.01430383 Ry
     ewald contribution        =     -66.26157804 Ry

     convergence has been achieved in   6 iterations

     Forces acting on atoms (cartesian axes, Ry/au):

     atom    1 type  1   force =    -0.03899814    0.02251559   -0.00000000
     atom    2 type  1   force =     0.03899814   -0.02251559    0.00000000
     atom    3 type  1   force =    -0.03899814   -0.02251559   -0.00000000
     atom    4 type  1   force =     0.03899814    0.02251559    0.00000000
     atom    5 type  1   force =     0.00000000   -0.04503117   -0.00000000
     atom    6 type  1   force =     0.00000000    0.04503117    0.00000000
     atom    7 type  2   force =    -0.00000000   -0.00000000    0.00000000
     atom    8 type  2   force =     0.00000000   -0.00000000   -0.00000000
     The non-local contrib.  to forces
     atom    1 type  1   force =    -0.01669807    0.00964064   -0.00000000
     atom    2 type  1   force =     0.01669807   -0.00964064    0.00000000
     atom    3 type  1   force =    -0.01669807   -0.00964064    0.00000000
     atom    4 type  1   force =     0.01669807    0.00964064    0.00000000
     atom    5 type  1   force =     0.00000000   -0.01928127    0.00000000
     atom    6 type  1   force =     0.00000000    0.01928127    0.00000000
     atom    7 type  2   force =    -0.00000000   -0.00000000    0.00000000
     atom    8 type  2   force =     0.00000000    0.00000000    0.00000000
     The ionic contribution  to forces
     atom    1 type  1   force =    -0.50656475    0.29246529    0.00000000
     atom    2 type  1   force =     0.50656475   -0.29246529   -0.00000000
     atom    3 type  1   force =    -0.50656475   -0.29246521   -0.00000000
     atom    4 type  1   force =     0.50656475    0.29246521    0.00000000
     atom    5 type  1   force =     0.00000008   -0.58493054   -0.00000000
     atom    6 type  1   force =    -0.00000008    0.58493054    0.00000000
     atom    7 type  2   force =     0.00000009   -0.00000005   -0.00000000
     atom    8 type  2   force =    -0.00000009    0.00000005   -0.00000000
     The local contribution  to forces
     atom    1 type  1   force =     0.48427283   -0.27959505    0.00000000
     atom    2 type  1   force =    -0.48427283    0.27959505    0.00000000
     atom    3 type  1   force =     0.48427283    0.27959505    0.00000000
     atom    4 type  1   force =    -0.48427283   -0.27959505    0.00000000
     atom    5 type  1   force =     0.00000000    0.55919009    0.00000000
     atom    6 type  1   force =     0.00000000   -0.55919009    0.00000000
     atom    7 type  2   force =    -0.00000002    0.00000001   -0.00000000
     atom    8 type  2   force =     0.00000002   -0.00000001   -0.00000000
     The core correction contribution to forces
     atom    1 type  1   force =     0.00000000    0.00000000    0.00000000
     atom    2 type  1   force =     0.00000000    0.00000000    0.00000000
     atom    3 type  1   force =     0.00000000    0.00000000    0.00000000
     atom    4 type  1   force =     0.00000000    0.00000000    0.00000000
     atom    5 type  1   force =     0.00000000    0.00000000    0.00000000
     atom    6 type  1   force =     0.00000000    0.00000000    0.00000000
     atom    7 type  2   force =    -0.00000000    0.00000000   -0.00000000
     atom    8 type  2   force =     0.00000000   -0.00000000   -0.00000000
     The Hubbard contrib.    to forces
     atom    1 type  1   force =     0.00000000    0.00000000    0.00000000
     atom    2 type  1   force =     0.00000000    0.00000000    0.00000000
     atom    3 type  1   force =     0.00000000    0.00000000    0.00000000
     atom    4 type  1   force =     0.00000000    0.00000000    0.00000000
     atom    5 type  1   force =     0.00000000    0.00000000    0.00000000
     atom    6 type  1   force =     0.00000000    0.00000000    0.00000000
     atom    7 type  2   force =     0.00000000    0.00000000    0.00000000
     atom    8 type  2   force =     0.00000000    0.00000000    0.00000000
     The SCF correction term to forces
     atom    1 type  1   force =    -0.00000817    0.00000472    0.00000000
     atom    2 type  1   force =     0.00000817   -0.00000472    0.00000000
     atom    3 type  1   force =    -0.00000817   -0.00000472   -0.00000000
     atom    4 type  1   force =     0.00000817    0.00000472    0.00000000
     atom    5 type  1   force =     0.00000000   -0.00000944    0.00000000
     atom    6 type  1   force =    -0.00000000    0.00000944    0.00000000
     atom    7 type  2   force =     0.00000000   -0.00000000   -0.00000000
     atom    8 type  2   force =    -0.00000000    0.00000000   -0.00000000

     Total force =     0.110303     Total SCF correction =     0.000023


     Computing stress (Cartesian axis) and pressure

          total   stress  (Ry/bohr**3)                   (kbar)     P=      851.53
   0.00537951   0.00000000   0.00000000          791.35        0.00        0.00
   0.00000000   0.00537951   0.00000000            0.00      791.35        0.00
   0.00000000  -0.00000000   0.00660671            0.00       -0.00      971.88


     BFGS Geometry Optimization
     Energy error            =      0.0E+00 Ry
     Gradient error          =      4.5E-02 Ry/Bohr
     Cell gradient error     =      4.7E+02 kbar

     number of scf cycles    =   1
     number of bfgs steps    =   0

     enthalpy           new  =    -101.4075721956 Ry

     new trust radius        =       0.3228599572 bohr
ibrav =      4
 celldm(1) =      8.89983090
 celldm(3) =      0.78973878
Input lattice vectors:
     1.04951437     0.00000000     0.00000000
    -0.52475718     0.90890611    -0.00000000
     0.00000000     0.00000000     0.82884220
New lattice vectors in INITIAL alat:
     1.04951437     0.00000000     0.00000000
    -0.52475718     0.90890611     0.00000000
     0.00000000     0.00000000     0.82884220
New lattice vectors in NEW alat (for information only):
     1.00000000     0.00000000     0.00000000
    -0.50000000     0.86602540     0.00000000
     0.00000000     0.00000000     0.78973878
Discrepancy in bohr =     0.000000    0.000000    0.000000
     new conv_thr            =       0.0000000100 Ry

     new unit-cell volume =    482.12468 a.u.^3 (    71.44351 Ang^3 )
     density =      2.27353 g/cm^3

CELL_PARAMETERS (alat=  8.47995145)
   1.049514370   0.000000000   0.000000000
  -0.524757185   0.908906106   0.000000000
   0.000000000   0.000000000   0.828842202

ATOMIC_POSITIONS (crystal)
Li            0.1696570910        0.8303429090        0.7500000000
Li            0.8303429090        0.1696570910        0.2500000000
Li            0.3393141819        0.1696570910        0.2500000000
Li            0.6606858181        0.8303429090        0.7500000000
Li            0.1696570910        0.3393141819        0.7500000000
Li            0.8303429090        0.6606858181        0.2500000000
Si            0.3333333300        0.6666666700        0.2500000000
Si            0.6666666700        0.3333333300        0.7500000000



     Writing config-only to output data dir ./output/LiSi.save/
     NEW-OLD atomic charge density approx. for the potential
     extrapolated charge   30.14326, renormalised to   26.00000

     total cpu time spent up to now is        7.3 secs

     Self-consistent Calculation

     iteration #  1     ecut=    80.00 Ry     beta= 0.70
     Davidson diagonalization with overlap
     c_bands:  1 eigenvalues not converged
     ethr =  1.00E-06,  avg # of iterations =  8.9

     total cpu time spent up to now is        8.3 secs

     total energy              =    -103.02908677 Ry
     estimated scf accuracy    <       0.02719417 Ry

     iteration #  2     ecut=    80.00 Ry     beta= 0.70
     Davidson diagonalization with overlap
     ethr =  1.05E-04,  avg # of iterations =  3.1

     total cpu time spent up to now is        8.9 secs

     total energy              =    -103.12989601 Ry
     estimated scf accuracy    <       0.02119607 Ry

     iteration #  3     ecut=    80.00 Ry     beta= 0.70
     Davidson diagonalization with overlap
     ethr =  8.15E-05,  avg # of iterations =  1.0

     total cpu time spent up to now is        9.2 secs

     total energy              =    -103.12613831 Ry
     estimated scf accuracy    <       0.00631047 Ry

     iteration #  4     ecut=    80.00 Ry     beta= 0.70
     Davidson diagonalization with overlap
     ethr =  2.43E-05,  avg # of iterations =  2.2

     total cpu time spent up to now is        9.7 secs

     total energy              =    -103.12706239 Ry
     estimated scf accuracy    <       0.00031599 Ry

     iteration #  5     ecut=    80.00 Ry     beta= 0.70
     Davidson diagonalization with overlap
     ethr =  1.22E-06,  avg # of iterations =  2.8

     total cpu time spent up to now is       10.1 secs

     total energy              =    -103.12694579 Ry
     estimated scf accuracy    <       0.00024553 Ry

     iteration #  6     ecut=    80.00 Ry     beta= 0.70
     Davidson diagonalization with overlap
     ethr =  9.44E-07,  avg # of iterations =  1.9

     total cpu time spent up to now is       10.5 secs

     total energy              =    -103.12697174 Ry
     estimated scf accuracy    <       0.00000120 Ry

     iteration #  7     ecut=    80.00 Ry     beta= 0.70
     Davidson diagonalization with overlap
     ethr =  4.63E-09,  avg # of iterations =  3.2

     total cpu time spent up to now is       10.9 secs

     total energy              =    -103.12697262 Ry
     estimated scf accuracy    <       0.00000003 Ry

     iteration #  8     ecut=    80.00 Ry     beta= 0.70
     Davidson diagonalization with overlap
     ethr =  1.18E-10,  avg # of iterations =  2.6

     total cpu time spent up to now is       11.4 secs

     End of self-consistent calculation

          k = 0.0000 0.0000 0.0000 (  4867 PWs)   bands (ev):

   -37.7543 -37.5351 -37.5351 -37.5163 -37.4333 -37.4333  -2.1270   2.1773
     3.9304   3.9304   4.7316   6.3941   7.2144   7.2144  10.5409  10.8553
    13.8682

          k = 0.0000 0.0000 0.2011 (  4873 PWs)   bands (ev):

   -37.7382 -37.5322 -37.5281 -37.5281 -37.4400 -37.4400  -1.9415   1.6952
     4.0869   4.0869   4.7905   6.4839   6.8920   6.8920   9.8988  11.5663
    13.2845

          k = 0.0000 0.0000 0.4022 (  4902 PWs)   bands (ev):

   -37.6944 -37.5755 -37.5092 -37.5092 -37.4582 -37.4582  -1.3933   0.6066
     4.5447   4.5447   5.1937   6.1220   6.1220   6.4905   9.1445  10.8934
    12.6220

          k = 0.0000 0.0000-0.6033 (  4866 PWs)   bands (ev):

   -37.6348 -37.6348 -37.4835 -37.4835 -37.4835 -37.4835  -0.5136  -0.5136
     5.2599   5.2599   5.2599   5.2599   5.9106   5.9106   9.5732   9.5732
    12.4094

          k = 0.0000 0.2200 0.0000 (  4877 PWs)   bands (ev):

   -37.7359 -37.5564 -37.5366 -37.5129 -37.4340 -37.4319  -1.9686   1.0684
     3.9044   4.9845   5.0431   6.0198   7.6597   8.4678   9.4886  10.8943
    12.3773

          k = 0.0000 0.2200 0.2011 (  4890 PWs)   bands (ev):

   -37.7205 -37.5507 -37.5294 -37.5244 -37.4430 -37.4388  -1.7888   0.9676
     4.0681   4.1421   5.4973   6.2437   7.2279   7.2611  10.1008  11.1794
    12.3401

          k = 0.0000 0.2200 0.4022 (  4892 PWs)   bands (ev):

   -37.6786 -37.5692 -37.5234 -37.5099 -37.4662 -37.4576  -1.2636   0.4378
     3.7971   4.5498   5.4660   6.0560   6.2854   6.5505   9.9763  10.7602
    12.1863

          k = 0.0000 0.2200-0.6033 (  4902 PWs)   bands (ev):

   -37.6226 -37.6226 -37.4958 -37.4958 -37.4836 -37.4836  -0.4539  -0.4539
     4.3752   4.3752   5.3169   5.3169   6.3857   6.3857  10.1099  10.1099
    12.4770

          k = 0.0000 0.4401 0.0000 (  4911 PWs)   bands (ev):

   -37.6900 -37.6087 -37.5390 -37.5025 -37.4386 -37.4297  -1.5457  -0.1365
     3.8710   4.7765   5.9089   7.7481   8.0181   8.7261   9.5613  11.0042
    11.5489

          k = 0.0000 0.4401 0.2011 (  4899 PWs)   bands (ev):

   -37.6757 -37.6011 -37.5315 -37.5102 -37.4520 -37.4369  -1.3828  -0.0678
     4.0455   4.4798   5.3944   6.3454   7.9007   8.2120  10.1896  11.3940
    11.8776

          k = 0.0000 0.4401 0.4022 (  4890 PWs)   bands (ev):

   -37.6384 -37.5838 -37.5291 -37.5112 -37.4864 -37.4566  -0.9290  -0.0170
     3.6106   4.5634   4.5782   5.7796   6.5634   7.4339  10.6155  12.0667
    12.4190

          k = 0.0000 0.4401-0.6033 (  4906 PWs)   bands (ev):

   -37.5946 -37.5946 -37.5239 -37.5239 -37.4837 -37.4837  -0.3449  -0.3449
     3.6009   3.6009   5.4114   5.4114   6.4585   6.4585  11.6088  11.6088
    12.6160

          k = 0.1906 0.3301 0.0000 (  4886 PWs)   bands (ev):

   -37.7032 -37.5806 -37.5626 -37.4924 -37.4360 -37.4335  -1.6594   0.1089
     3.5515   5.6448   5.9993   6.2742   8.3430   8.7748   9.3341  10.4784
    10.9557

          k = 0.1906 0.3301 0.2011 (  4897 PWs)   bands (ev):

   -37.6887 -37.5722 -37.5594 -37.4987 -37.4454 -37.4428  -1.4918   0.1533
     3.7137   4.6016   6.0210   6.7481   6.8486   7.7169  10.4199  11.0080
    12.1544

          k = 0.1906 0.3301 0.4022 (  4900 PWs)   bands (ev):

   -37.6503 -37.5646 -37.5490 -37.5054 -37.4748 -37.4612  -1.0176   0.1028
     3.6630   4.1887   4.9111   6.2162   6.6390   7.0094  10.3434  11.1615
    12.8107

          k = 0.1906 0.3301-0.6033 (  4882 PWs)   bands (ev):

   -37.6014 -37.6014 -37.5170 -37.5170 -37.4837 -37.4837  -0.3672  -0.3672
     3.7957   3.7957   5.0582   5.0582   6.9420   6.9420  10.4698  10.4698
    13.2002

          k = 0.1906 0.5501 0.0000 (  4910 PWs)   bands (ev):

   -37.6654 -37.6165 -37.5744 -37.4748 -37.4441 -37.4334  -1.2429  -0.6058
     3.3355   6.0223   6.4950   7.2404   8.1386   8.2905   9.7813   9.7995
    11.0637

          k = 0.1906 0.5501 0.2011 (  4914 PWs)   bands (ev):

   -37.6507 -37.6095 -37.5688 -37.4798 -37.4543 -37.4445  -1.0947  -0.4983
     3.4938   5.1663   5.8708   6.4626   7.7034   8.4571   8.7240  11.8493
    12.3195

          k = 0.1906 0.5501 0.4022 (  4898 PWs)   bands (ev):

   -37.6123 -37.5919 -37.5570 -37.4913 -37.4887 -37.4643  -0.7044  -0.2817
     3.7925   4.0916   4.3240   6.0833   6.8671   8.0212   9.3280  11.8047
    13.8652

          k = 0.1906 0.5501-0.6033 (  4908 PWs)   bands (ev):

   -37.5793 -37.5793 -37.5391 -37.5391 -37.4839 -37.4839  -0.3076  -0.3076
     3.5127   3.5127   4.8579   4.8579   7.4310   7.4310  10.3203  10.3203
    14.6015

     the Fermi energy is     7.3513 ev

!    total energy              =    -103.12697263 Ry
     estimated scf accuracy    <          5.2E-10 Ry
     smearing contrib. (-TS)   =       0.00035675 Ry
     internal energy E=F+TS    =    -103.12732937 Ry

     The total energy is F=E-TS. E is the sum of the following terms:
     one-electron contribution =     -30.40336552 Ry
     hartree contribution      =      17.47942699 Ry
     xc contribution           =     -27.51422551 Ry
     ewald contribution        =     -62.68916534 Ry

     convergence has been achieved in   8 iterations

     Forces acting on atoms (cartesian axes, Ry/au):

     atom    1 type  1   force =    -0.00630474    0.00364004    0.00000000
     atom    2 type  1   force =     0.00630474   -0.00364004    0.00000000
     atom    3 type  1   force =    -0.00630474   -0.00364004   -0.00000000
     atom    4 type  1   force =     0.00630474    0.00364004    0.00000000
     atom    5 type  1   force =    -0.00000000   -0.00728008    0.00000000
     atom    6 type  1   force =     0.00000000    0.00728008   -0.00000000
     atom    7 type  2   force =    -0.00000000    0.00000000    0.00000000
     atom    8 type  2   force =     0.00000000    0.00000000   -0.00000000
     The non-local contrib.  to forces
     atom    1 type  1   force =    -0.01440436    0.00831636    0.00000000
     atom    2 type  1   force =     0.01440436   -0.00831636   -0.00000000
     atom    3 type  1   force =    -0.01440436   -0.00831636   -0.00000000
     atom    4 type  1   force =     0.01440436    0.00831636    0.00000000
     atom    5 type  1   force =     0.00000000   -0.01663272   -0.00000000
     atom    6 type  1   force =    -0.00000000    0.01663272   -0.00000000
     atom    7 type  2   force =    -0.00000000   -0.00000000    0.00000000
     atom    8 type  2   force =     0.00000000   -0.00000000    0.00000000
     The ionic contribution  to forces
     atom    1 type  1   force =    -0.31050323    0.17926913   -0.00000000
     atom    2 type  1   force =     0.31050323   -0.17926913   -0.00000000
     atom    3 type  1   force =    -0.31050323   -0.17926905   -0.00000000
     atom    4 type  1   force =     0.31050323    0.17926905   -0.00000000
     atom    5 type  1   force =     0.00000007   -0.35853821   -0.00000000
     atom    6 type  1   force =    -0.00000007    0.35853821   -0.00000000
     atom    7 type  2   force =     0.00000008   -0.00000005   -0.00000000
     atom    8 type  2   force =    -0.00000008    0.00000005   -0.00000000
     The local contribution  to forces
     atom    1 type  1   force =     0.31860646   -0.18394752    0.00000000
     atom    2 type  1   force =    -0.31860646    0.18394752    0.00000000
     atom    3 type  1   force =     0.31860646    0.18394752    0.00000000
     atom    4 type  1   force =    -0.31860646   -0.18394752    0.00000000
     atom    5 type  1   force =     0.00000000    0.36789505    0.00000000
     atom    6 type  1   force =     0.00000000   -0.36789505    0.00000000
     atom    7 type  2   force =    -0.00000001    0.00000001   -0.00000000
     atom    8 type  2   force =     0.00000001   -0.00000001   -0.00000000
     The core correction contribution to forces
     atom    1 type  1   force =     0.00000000    0.00000000    0.00000000
     atom    2 type  1   force =     0.00000000    0.00000000    0.00000000
     atom    3 type  1   force =     0.00000000    0.00000000    0.00000000
     atom    4 type  1   force =     0.00000000    0.00000000    0.00000000
     atom    5 type  1   force =     0.00000000    0.00000000    0.00000000
     atom    6 type  1   force =     0.00000000    0.00000000    0.00000000
     atom    7 type  2   force =    -0.00000000    0.00000000   -0.00000000
     atom    8 type  2   force =     0.00000000   -0.00000000   -0.00000000
     The Hubbard contrib.    to forces
     atom    1 type  1   force =     0.00000000    0.00000000    0.00000000
     atom    2 type  1   force =     0.00000000    0.00000000    0.00000000
     atom    3 type  1   force =     0.00000000    0.00000000    0.00000000
     atom    4 type  1   force =     0.00000000    0.00000000    0.00000000
     atom    5 type  1   force =     0.00000000    0.00000000    0.00000000
     atom    6 type  1   force =     0.00000000    0.00000000    0.00000000
     atom    7 type  2   force =     0.00000000    0.00000000    0.00000000
     atom    8 type  2   force =     0.00000000    0.00000000    0.00000000
     The SCF correction term to forces
     atom    1 type  1   force =    -0.00000362    0.00000209    0.00000000
     atom    2 type  1   force =     0.00000362   -0.00000209    0.00000000
     atom    3 type  1   force =    -0.00000362   -0.00000209   -0.00000000
     atom    4 type  1   force =     0.00000362    0.00000209    0.00000000
     atom    5 type  1   force =    -0.00000000   -0.00000419    0.00000000
     atom    6 type  1   force =     0.00000000    0.00000419    0.00000000
     atom    7 type  2   force =    -0.00000000    0.00000000   -0.00000000
     atom    8 type  2   force =     0.00000000   -0.00000000    0.00000000

     Total force =     0.017832     Total SCF correction =     0.000010


     Computing stress (Cartesian axis) and pressure

          total   stress  (Ry/bohr**3)                   (kbar)     P=      452.17
   0.00298508   0.00000000   0.00000000          439.12        0.00        0.00
   0.00000000   0.00298508  -0.00000000            0.00      439.12       -0.00
   0.00000000   0.00000000   0.00325112            0.00        0.00      478.26

     Energy error            =      8.1E-02 Ry
     Gradient error          =      7.3E-03 Ry/Bohr
     Cell gradient error     =      6.1E+01 kbar

     number of scf cycles    =   2
     number of bfgs steps    =   1

     enthalpy           old  =    -101.4075721956 Ry
     enthalpy           new  =    -101.4882641436 Ry

     CASE: enthalpy          _new < enthalpy          _old

     new trust radius        =       0.0418942594 bohr
ibrav =      4
 celldm(1) =      8.81492721
 celldm(3) =      0.79527867
Input lattice vectors:
     1.03950208     0.00000000     0.00000000
    -0.51975104     0.90023521     0.00000000
     0.00000000    -0.00000000     0.82669384
New lattice vectors in INITIAL alat:
     1.03950208     0.00000000     0.00000000
    -0.51975104     0.90023521     0.00000000
     0.00000000     0.00000000     0.82669384
New lattice vectors in NEW alat (for information only):
     1.00000000     0.00000000     0.00000000
    -0.50000000     0.86602540     0.00000000
     0.00000000     0.00000000     0.79527867
Discrepancy in bohr =     0.000000    0.000000    0.000000
     new conv_thr            =       0.0000000007 Ry

     new unit-cell volume =    471.74375 a.u.^3 (    69.90521 Ang^3 )
     density =      2.32356 g/cm^3

CELL_PARAMETERS (alat=  8.47995145)
   1.039502084   0.000000000   0.000000000
  -0.519751042   0.900235212   0.000000000
   0.000000000   0.000000000   0.826693839

ATOMIC_POSITIONS (crystal)
Li            0.1691567077        0.8308432923        0.7500000000
Li            0.8308432923        0.1691567077        0.2500000000
Li            0.3383134154        0.1691567077        0.2500000000
Li            0.6616865846        0.8308432923        0.7500000000
Li            0.1691567077        0.3383134154        0.7500000000
Li            0.8308432923        0.6616865846        0.2500000000
Si            0.3333333300        0.6666666700        0.2500000000
Si            0.6666666700        0.3333333300        0.7500000000



     Writing config-only to output data dir ./output/LiSi.save/
     NEW-OLD atomic charge density approx. for the potential
     extrapolated charge   25.42849, renormalised to   26.00000

     total cpu time spent up to now is       13.3 secs

     Self-consistent Calculation

     iteration #  1     ecut=    80.00 Ry     beta= 0.70
     Davidson diagonalization with overlap
     ethr =  1.00E-06,  avg # of iterations =  5.2

     total cpu time spent up to now is       13.9 secs

     total energy              =    -103.09268716 Ry
     estimated scf accuracy    <       0.00059578 Ry

     iteration #  2     ecut=    80.00 Ry     beta= 0.70
     Davidson diagonalization with overlap
     ethr =  2.29E-06,  avg # of iterations =  3.0

     total cpu time spent up to now is       14.5 secs

     total energy              =    -103.09454628 Ry
     estimated scf accuracy    <       0.00046935 Ry

     iteration #  3     ecut=    80.00 Ry     beta= 0.70
     Davidson diagonalization with overlap
     ethr =  1.81E-06,  avg # of iterations =  1.1

     total cpu time spent up to now is       14.8 secs

     total energy              =    -103.09455263 Ry
     estimated scf accuracy    <       0.00009804 Ry

     iteration #  4     ecut=    80.00 Ry     beta= 0.70
     Davidson diagonalization with overlap
     ethr =  3.77E-07,  avg # of iterations =  1.0

     total cpu time spent up to now is       15.1 secs

     total energy              =    -103.09451977 Ry
     estimated scf accuracy    <       0.00005638 Ry

     iteration #  5     ecut=    80.00 Ry     beta= 0.70
     Davidson diagonalization with overlap
     ethr =  2.17E-07,  avg # of iterations =  1.8

     total cpu time spent up to now is       15.5 secs

     total energy              =    -103.09452394 Ry
     estimated scf accuracy    <       0.00000190 Ry

     iteration #  6     ecut=    80.00 Ry     beta= 0.70
     Davidson diagonalization with overlap
     ethr =  7.29E-09,  avg # of iterations =  2.5

     total cpu time spent up to now is       15.9 secs

     total energy              =    -103.09452420 Ry
     estimated scf accuracy    <       0.00000011 Ry

     iteration #  7     ecut=    80.00 Ry     beta= 0.70
     Davidson diagonalization with overlap
     ethr =  4.40E-10,  avg # of iterations =  3.0

     total cpu time spent up to now is       16.4 secs

     total energy              =    -103.09452423 Ry
     estimated scf accuracy    <          9.7E-10 Ry

     iteration #  8     ecut=    80.00 Ry     beta= 0.70
     Davidson diagonalization with overlap
     ethr =  3.73E-12,  avg # of iterations =  3.5

     total cpu time spent up to now is       16.8 secs

     total energy              =    -103.09452423 Ry
     estimated scf accuracy    <          1.5E-09 Ry

     iteration #  9     ecut=    80.00 Ry     beta= 0.70
     Davidson diagonalization with overlap
     ethr =  3.73E-12,  avg # of iterations =  2.0

     total cpu time spent up to now is       17.3 secs

     End of self-consistent calculation

          k = 0.0000 0.0000 0.0000 (  4867 PWs)   bands (ev):

   -37.5537 -37.3170 -37.3170 -37.3012 -37.2095 -37.2095  -1.9753   2.4399
     4.0988   4.0988   4.8287   6.6070   7.4303   7.4303  10.8364  11.0596
    14.0867

          k = 0.0000 0.0000 0.2016 (  4873 PWs)   bands (ev):

   -37.5366 -37.3181 -37.3096 -37.3096 -37.2166 -37.2166  -1.7899   1.9096
     4.2551   4.2551   4.9545   6.6923   7.0966   7.0966  10.2072  11.7466
    13.5361

          k = 0.0000 0.0000 0.4032 (  4902 PWs)   bands (ev):

   -37.4902 -37.3640 -37.2896 -37.2896 -37.2359 -37.2359  -1.2412   0.7761
     4.7134   4.7134   5.4202   6.3073   6.3073   6.7003   9.4548  11.1284
    12.8988

          k = 0.0000 0.0000-0.6048 (  4866 PWs)   bands (ev):

   -37.4269 -37.4269 -37.2625 -37.2625 -37.2625 -37.2625  -0.3583  -0.3583
     5.4329   5.4329   5.4329   5.4329   6.1445   6.1445   9.8468   9.8468
    12.6900

          k = 0.0000 0.2222 0.0000 (  4877 PWs)   bands (ev):

   -37.5339 -37.3401 -37.3186 -37.2963 -37.2113 -37.2080  -1.8167   1.2731
     4.0779   5.1479   5.2107   6.2396   7.8791   8.6871   9.7239  11.0980
    12.5913

          k = 0.0000 0.2222 0.2016 (  4890 PWs)   bands (ev):

   -37.5176 -37.3344 -37.3111 -37.3084 -37.2207 -37.2153  -1.6370   1.1629
     4.2415   4.2855   5.7055   6.4645   7.4338   7.4613  10.3844  11.3690
    12.5780

          k = 0.0000 0.2222 0.4032 (  4892 PWs)   bands (ev):

   -37.4731 -37.3565 -37.3052 -37.2905 -37.2449 -37.2352  -1.1114   0.6079
     3.9604   4.7237   5.6547   6.2737   6.4726   6.7698  10.2708  11.0207
    12.4534

          k = 0.0000 0.2222-0.6048 (  4902 PWs)   bands (ev):

   -37.4135 -37.4135 -37.2761 -37.2761 -37.2627 -37.2627  -0.2983  -0.2983
     4.5539   4.5539   5.4941   5.4941   6.6023   6.6023  10.4015  10.4015
    12.7525

          k = 0.0000 0.4443 0.0000 (  4911 PWs)   bands (ev):

   -37.4848 -37.3958 -37.3212 -37.2834 -37.2182 -37.2057  -1.3920   0.0399
     4.0520   4.9976   6.0380   7.9150   8.2878   8.9577   9.7991  11.2147
    11.7602

          k = 0.0000 0.4443 0.2016 (  4899 PWs)   bands (ev):

   -37.4697 -37.3878 -37.3133 -37.2917 -37.2323 -37.2133  -1.2294   0.1062
     4.2266   4.6594   5.5754   6.5227   8.1097   8.4685  10.4522  11.6080
    12.1349

          k = 0.0000 0.4443 0.4032 (  4890 PWs)   bands (ev):

   -37.4298 -37.3699 -37.3121 -37.2919 -37.2682 -37.2341  -0.7757   0.1487
     3.7727   4.7452   4.7515   5.9903   6.7550   7.6565  10.9164  12.3337
    12.7253

          k = 0.0000 0.4443-0.6048 (  4906 PWs)   bands (ev):

   -37.3827 -37.3827 -37.3071 -37.3071 -37.2628 -37.2628  -0.1887  -0.1887
     3.7701   3.7701   5.5958   5.5958   6.6722   6.6722  11.9252  11.9252
    12.8821

          k = 0.1924 0.3332 0.0000 (  4886 PWs)   bands (ev):

   -37.4988 -37.3659 -37.3466 -37.2731 -37.2124 -37.2121  -1.5060   0.2891
     3.7364   5.7655   6.2108   6.5272   8.5405   9.0173   9.5605  10.6314
    11.1600

          k = 0.1924 0.3332 0.2016 (  4897 PWs)   bands (ev):

   -37.4835 -37.3571 -37.3434 -37.2798 -37.2245 -37.2196  -1.3387   0.3305
     3.8980   4.7476   6.2252   6.9881   7.0420   7.9207  10.6962  11.2171
    12.4062

          k = 0.1924 0.3332 0.4032 (  4900 PWs)   bands (ev):

   -37.4425 -37.3500 -37.3328 -37.2868 -37.2548 -37.2390  -0.8645   0.2696
     3.8213   4.3718   5.0899   6.4005   6.8486   7.2477  10.6283  11.4258
    13.0796

          k = 0.1924 0.3332-0.6048 (  4882 PWs)   bands (ev):

   -37.3902 -37.3902 -37.2994 -37.2994 -37.2628 -37.2628  -0.2111  -0.2111
     3.9674   3.9674   5.2397   5.2397   7.1609   7.1609  10.7489  10.7489
    13.5031

          k = 0.1924 0.5554 0.0000 (  4910 PWs)   bands (ev):

   -37.4589 -37.4038 -37.3590 -37.2535 -37.2222 -37.2118  -1.0864  -0.4386
     3.5250   6.2475   6.6436   7.3989   8.3954   8.5434   9.9394  10.0437
    11.2811

          k = 0.1924 0.5554 0.2016 (  4914 PWs)   bands (ev):

   -37.4434 -37.3963 -37.3531 -37.2587 -37.2345 -37.2222  -0.9386  -0.3324
     3.6824   5.3333   6.0401   6.6765   7.8883   8.7128   8.9838  12.0701
    12.5268

          k = 0.1924 0.5554 0.4032 (  4898 PWs)   bands (ev):

   -37.4025 -37.3778 -37.3409 -37.2745 -37.2681 -37.2424  -0.5491  -0.1202
     3.9637   4.2695   4.4924   6.2642   7.0912   8.2635   9.5846  12.0558
    14.1922

          k = 0.1924 0.5554-0.6048 (  4908 PWs)   bands (ev):

   -37.3654 -37.3654 -37.3242 -37.3242 -37.2630 -37.2630  -0.1512  -0.1512
     3.6798   3.6798   5.0404   5.0404   7.6616   7.6616  10.5700  10.5700
    14.9559

     the Fermi energy is     7.5571 ev

!    total energy              =    -103.09452423 Ry
     estimated scf accuracy    <          5.8E-11 Ry
     smearing contrib. (-TS)   =       0.00053806 Ry
     internal energy E=F+TS    =    -103.09506229 Ry

     The total energy is F=E-TS. E is the sum of the following terms:
     one-electron contribution =     -29.72153311 Ry
     hartree contribution      =      17.36346739 Ry
     xc contribution           =     -27.57017515 Ry
     ewald contribution        =     -63.16682142 Ry

     convergence has been achieved in   9 iterations

     Forces acting on atoms (cartesian axes, Ry/au):

     atom    1 type  1   force =    -0.00527939    0.00304806    0.00000000
     atom    2 type  1   force =     0.00527939   -0.00304806    0.00000000
     atom    3 type  1   force =    -0.00527939   -0.00304806    0.00000000
     atom    4 type  1   force =     0.00527939    0.00304806    0.00000000
     atom    5 type  1   force =     0.00000000   -0.00609612    0.00000000
     atom    6 type  1   force =    -0.00000000    0.00609612    0.00000000
     atom    7 type  2   force =    -0.00000000   -0.00000000    0.00000000
     atom    8 type  2   force =     0.00000000   -0.00000000   -0.00000000
     The non-local contrib.  to forces
     atom    1 type  1   force =    -0.01221756    0.00705381   -0.00000000
     atom    2 type  1   force =     0.01221756   -0.00705381    0.00000000
     atom    3 type  1   force =    -0.01221756   -0.00705381   -0.00000000
     atom    4 type  1   force =     0.01221756    0.00705381   -0.00000000
     atom    5 type  1   force =    -0.00000000   -0.01410762   -0.00000000
     atom    6 type  1   force =     0.00000000    0.01410762    0.00000000
     atom    7 type  2   force =    -0.00000000    0.00000000    0.00000000
     atom    8 type  2   force =     0.00000000   -0.00000000    0.00000000
     The ionic contribution  to forces
     atom    1 type  1   force =    -0.29093856    0.16797345    0.00000000
     atom    2 type  1   force =     0.29093856   -0.16797345    0.00000000
     atom    3 type  1   force =    -0.29093856   -0.16797338   -0.00000000
     atom    4 type  1   force =     0.29093856    0.16797338    0.00000000
     atom    5 type  1   force =     0.00000007   -0.33594687    0.00000000
     atom    6 type  1   force =    -0.00000007    0.33594687   -0.00000000
     atom    7 type  2   force =     0.00000008   -0.00000005   -0.00000000
     atom    8 type  2   force =    -0.00000008    0.00000005    0.00000000
     The local contribution  to forces
     atom    1 type  1   force =     0.29787613   -0.17197886    0.00000000
     atom    2 type  1   force =    -0.29787613    0.17197886    0.00000000
     atom    3 type  1   force =     0.29787613    0.17197886    0.00000000
     atom    4 type  1   force =    -0.29787613   -0.17197886    0.00000000
     atom    5 type  1   force =     0.00000000    0.34395773    0.00000000
     atom    6 type  1   force =     0.00000000   -0.34395773    0.00000000
     atom    7 type  2   force =    -0.00000001    0.00000001   -0.00000000
     atom    8 type  2   force =     0.00000001   -0.00000001    0.00000000
     The core correction contribution to forces
     atom    1 type  1   force =     0.00000000    0.00000000    0.00000000
     atom    2 type  1   force =     0.00000000    0.00000000    0.00000000
     atom    3 type  1   force =     0.00000000    0.00000000    0.00000000
     atom    4 type  1   force =     0.00000000    0.00000000    0.00000000
     atom    5 type  1   force =     0.00000000    0.00000000    0.00000000
     atom    6 type  1   force =     0.00000000    0.00000000    0.00000000
     atom    7 type  2   force =    -0.00000000    0.00000000   -0.00000000
     atom    8 type  2   force =     0.00000000   -0.00000000   -0.00000000
     The Hubbard contrib.    to forces
     atom    1 type  1   force =     0.00000000    0.00000000    0.00000000
     atom    2 type  1   force =     0.00000000    0.00000000    0.00000000
     atom    3 type  1   force =     0.00000000    0.00000000    0.00000000
     atom    4 type  1   force =     0.00000000    0.00000000    0.00000000
     atom    5 type  1   force =     0.00000000    0.00000000    0.00000000
     atom    6 type  1   force =     0.00000000    0.00000000    0.00000000
     atom    7 type  2   force =     0.00000000    0.00000000    0.00000000
     atom    8 type  2   force =     0.00000000    0.00000000    0.00000000
     The SCF correction term to forces
     atom    1 type  1   force =     0.00000057   -0.00000033   -0.00000000
     atom    2 type  1   force =    -0.00000057    0.00000033   -0.00000000
     atom    3 type  1   force =     0.00000057    0.00000033    0.00000000
     atom    4 type  1   force =    -0.00000057   -0.00000033    0.00000000
     atom    5 type  1   force =    -0.00000000    0.00000066   -0.00000000
     atom    6 type  1   force =     0.00000000   -0.00000066    0.00000000
     atom    7 type  2   force =     0.00000000   -0.00000000   -0.00000000
     atom    8 type  2   force =    -0.00000000    0.00000000    0.00000000

     Total force =     0.014932     Total SCF correction =     0.000002


     Computing stress (Cartesian axis) and pressure

          total   stress  (Ry/bohr**3)                   (kbar)     P=      489.85
   0.00328064   0.00000000   0.00000000          482.60        0.00        0.00
   0.00000000   0.00328064   0.00000000            0.00      482.60        0.00
   0.00000000   0.00000000   0.00342853            0.00        0.00      504.35

     Energy error            =      2.8E-03 Ry
     Gradient error          =      6.1E-03 Ry/Bohr
     Cell gradient error     =      1.7E+01 kbar

     number of scf cycles    =   3
     number of bfgs steps    =   2

     enthalpy           old  =    -101.4882641436 Ry
     enthalpy           new  =    -101.4910997999 Ry

     CASE: enthalpy          _new < enthalpy          _old

     new trust radius        =       0.0209408312 bohr
ibrav =      4
 celldm(1) =      8.77243301
 celldm(3) =      0.80032437
Input lattice vectors:
     1.03449095    -0.00000000     0.00000000
    -0.51724547     0.89589544    -0.00000000
     0.00000000     0.00000000     0.82792832
New lattice vectors in INITIAL alat:
     1.03449095     0.00000000     0.00000000
    -0.51724547     0.89589544     0.00000000
     0.00000000     0.00000000     0.82792832
New lattice vectors in NEW alat (for information only):
     1.00000000     0.00000000     0.00000000
    -0.50000000     0.86602540     0.00000000
     0.00000000     0.00000000     0.80032437
Discrepancy in bohr =     0.000000    0.000000    0.000000
     new conv_thr            =       0.0000000006 Ry

     new unit-cell volume =    467.90411 a.u.^3 (    69.33624 Ang^3 )
     density =      2.34263 g/cm^3

CELL_PARAMETERS (alat=  8.47995145)
   1.034490948   0.000000000   0.000000000
  -0.517245474   0.895895441   0.000000000
   0.000000000   0.000000000   0.827928320

ATOMIC_POSITIONS (crystal)
Li            0.1684797435        0.8315202565        0.7500000000
Li            0.8315202565        0.1684797435        0.2500000000
Li            0.3369594870        0.1684797435        0.2500000000
Li            0.6630405130        0.8315202565        0.7500000000
Li            0.1684797435        0.3369594870        0.7500000000
Li            0.8315202565        0.6630405130        0.2500000000
Si            0.3333333300        0.6666666700        0.2500000000
Si            0.6666666700        0.3333333300        0.7500000000



     Writing config-only to output data dir ./output/LiSi.save/
     NEW-OLD atomic charge density approx. for the potential
     extrapolated charge   25.78688, renormalised to   26.00000

     total cpu time spent up to now is       19.1 secs

     Self-consistent Calculation

     iteration #  1     ecut=    80.00 Ry     beta= 0.70
     Davidson diagonalization with overlap
     ethr =  1.00E-06,  avg # of iterations =  4.0

     total cpu time spent up to now is       19.7 secs

     total energy              =    -103.08170561 Ry
     estimated scf accuracy    <       0.00021765 Ry

     iteration #  2     ecut=    80.00 Ry     beta= 0.70
     Davidson diagonalization with overlap
     ethr =  8.37E-07,  avg # of iterations =  2.5

     total cpu time spent up to now is       20.2 secs

     total energy              =    -103.08200239 Ry
     estimated scf accuracy    <       0.00014713 Ry

     iteration #  3     ecut=    80.00 Ry     beta= 0.70
     Davidson diagonalization with overlap
     ethr =  5.66E-07,  avg # of iterations =  1.9

     total cpu time spent up to now is       20.5 secs

     total energy              =    -103.08201549 Ry
     estimated scf accuracy    <       0.00001335 Ry

     iteration #  4     ecut=    80.00 Ry     beta= 0.70
     Davidson diagonalization with overlap
     ethr =  5.14E-08,  avg # of iterations =  1.2

     total cpu time spent up to now is       20.9 secs

     total energy              =    -103.08201245 Ry
     estimated scf accuracy    <       0.00000587 Ry

     iteration #  5     ecut=    80.00 Ry     beta= 0.70
     Davidson diagonalization with overlap
     ethr =  2.26E-08,  avg # of iterations =  1.9

     total cpu time spent up to now is       21.3 secs

     total energy              =    -103.08201294 Ry
     estimated scf accuracy    <       0.00000017 Ry

     iteration #  6     ecut=    80.00 Ry     beta= 0.70
     Davidson diagonalization with overlap
     ethr =  6.60E-10,  avg # of iterations =  3.0

     total cpu time spent up to now is       21.7 secs

     total energy              =    -103.08201299 Ry
     estimated scf accuracy    <          7.4E-10 Ry

     iteration #  7     ecut=    80.00 Ry     beta= 0.70
     Davidson diagonalization with overlap
     ethr =  2.84E-12,  avg # of iterations =  3.7

     total cpu time spent up to now is       22.2 secs

     End of self-consistent calculation

          k = 0.0000 0.0000 0.0000 (  4867 PWs)   bands (ev):

   -37.4780 -37.2333 -37.2333 -37.2203 -37.1238 -37.1238  -1.9155   2.5578
     4.1751   4.1751   4.8370   6.7027   7.5074   7.5074  10.9594  11.1078
    14.1637

          k = 0.0000 0.0000 0.2013 (  4873 PWs)   bands (ev):

   -37.4606 -37.2375 -37.2258 -37.2258 -37.1310 -37.1310  -1.7304   1.9961
     4.3305   4.3305   5.0109   6.7859   7.1714   7.1714  10.3356  11.7676
    13.6288

          k = 0.0000 0.0000 0.4026 (  4902 PWs)   bands (ev):

   -37.4132 -37.2844 -37.2055 -37.2055 -37.1507 -37.1507  -1.1829   0.8387
     4.7866   4.7866   5.5200   6.3788   6.3788   6.7960   9.5784  11.1861
    13.0063

          k = 0.0000 0.0000-0.6039 (  4866 PWs)   bands (ev):

   -37.3487 -37.3487 -37.1779 -37.1779 -37.1779 -37.1779  -0.3004  -0.3004
     5.5042   5.5042   5.5042   5.5042   6.2522   6.2522   9.9412   9.9412
    12.8015

          k = 0.0000 0.2232 0.0000 (  4877 PWs)   bands (ev):

   -37.4578 -37.2571 -37.2350 -37.2142 -37.1267 -37.1223  -1.7565   1.3625
     4.1560   5.1608   5.3102   6.3369   7.9581   8.7673   9.8116  11.1484
    12.6459

          k = 0.0000 0.2232 0.2013 (  4890 PWs)   bands (ev):

   -37.4411 -37.2516 -37.2273 -37.2264 -37.1362 -37.1297  -1.5772   1.2452
     4.3188   4.3294   5.7924   6.5623   7.5093   7.5391  10.4952  11.3999
    12.6641

          k = 0.0000 0.2232 0.4026 (  4892 PWs)   bands (ev):

   -37.3957 -37.2760 -37.2218 -37.2064 -37.1606 -37.1500  -1.0527   0.6734
     4.0226   4.7988   5.7263   6.3708   6.5449   6.8698  10.3824  11.1041
    12.5609

          k = 0.0000 0.2232-0.6039 (  4902 PWs)   bands (ev):

   -37.3346 -37.3346 -37.1921 -37.1921 -37.1780 -37.1780  -0.2396  -0.2396
     4.6250   4.6250   5.5670   5.5670   6.6988   6.6988  10.5102  10.5102
    12.8653

          k = 0.0000 0.4465 0.0000 (  4911 PWs)   bands (ev):

   -37.4079 -37.3134 -37.2377 -37.1989 -37.1361 -37.1199  -1.3305   0.1147
     4.1329   5.0914   6.0660   7.9610   8.4032   9.0398   9.8759  11.2825
    11.8119

          k = 0.0000 0.4465 0.2013 (  4899 PWs)   bands (ev):

   -37.3923 -37.3053 -37.2297 -37.2076 -37.1503 -37.1277  -1.1683   0.1789
     4.3067   4.7218   5.6441   6.5825   8.1851   8.5841  10.5462  11.6560
    12.2450

          k = 0.0000 0.4465 0.4026 (  4890 PWs)   bands (ev):

   -37.3513 -37.2875 -37.2292 -37.2078 -37.1864 -37.1489  -0.7158   0.2151
     3.8295   4.8133   4.8233   6.0800   6.8288   7.7508  11.0414  12.4540
    12.8337

          k = 0.0000 0.4465-0.6039 (  4906 PWs)   bands (ev):

   -37.3020 -37.3020 -37.2249 -37.2249 -37.1782 -37.1782  -0.1282  -0.1282
     3.8332   3.8332   5.6714   5.6714   6.7621   6.7621  12.0562  12.0562
    12.9987

          k = 0.1933 0.3349 0.0000 (  4886 PWs)   bands (ev):

   -37.4220 -37.2834 -37.2633 -37.1894 -37.1290 -37.1267  -1.4447   0.3659
     3.8178   5.7880   6.3038   6.6347   8.6079   9.1089   9.6352  10.6526
    11.2159

          k = 0.1933 0.3349 0.2013 (  4897 PWs)   bands (ev):

   -37.4062 -37.2745 -37.2601 -37.1965 -37.1413 -37.1341  -1.2779   0.4048
     3.9783   4.7892   6.3088   7.0907   7.1174   7.9950  10.8030  11.2646
    12.5137

          k = 0.1933 0.3349 0.4026 (  4900 PWs)   bands (ev):

   -37.3641 -37.2677 -37.2501 -37.2038 -37.1713 -37.1539  -0.8048   0.3361
     3.8767   4.4484   5.1570   6.4683   6.9407   7.3547  10.7494  11.5129
    13.1897

          k = 0.1933 0.3349-0.6039 (  4882 PWs)   bands (ev):

   -37.3101 -37.3101 -37.2167 -37.2167 -37.1782 -37.1782  -0.1510  -0.1510
     4.0326   4.0326   5.3124   5.3124   7.2572   7.2572  10.8602  10.8602
    13.6323

          k = 0.1933 0.5581 0.0000 (  4910 PWs)   bands (ev):

   -37.3823 -37.3209 -37.2757 -37.1683 -37.1389 -37.1281  -1.0230  -0.3690
     3.6080   6.3449   6.6842   7.4419   8.4937   8.6490   9.9531  10.1396
    11.3622

          k = 0.1933 0.5581 0.2013 (  4914 PWs)   bands (ev):

   -37.3664 -37.3133 -37.2698 -37.1737 -37.1527 -37.1374  -0.8759  -0.2640
     3.7641   5.3873   6.0935   6.7698   7.9445   8.8233   9.0987  12.1179
    12.5801

          k = 0.1933 0.5581 0.4026 (  4898 PWs)   bands (ev):

   -37.3243 -37.2945 -37.2575 -37.1942 -37.1834 -37.1574  -0.4878  -0.0554
     4.0265   4.3418   4.5518   6.3283   7.1897   8.3707   9.6993  12.1439
    14.3340

          k = 0.1933 0.5581-0.6039 (  4908 PWs)   bands (ev):

   -37.2832 -37.2832 -37.2436 -37.2436 -37.1784 -37.1784  -0.0900  -0.0900
     3.7414   3.7414   5.1122   5.1122   7.7631   7.7631  10.6740  10.6740
    15.1090

     the Fermi energy is     7.6366 ev

!    total energy              =    -103.08201299 Ry
     estimated scf accuracy    <          6.3E-12 Ry
     smearing contrib. (-TS)   =       0.00069332 Ry
     internal energy E=F+TS    =    -103.08270631 Ry

     The total energy is F=E-TS. E is the sum of the following terms:
     one-electron contribution =     -29.43845871 Ry
     hartree contribution      =      17.30809400 Ry
     xc contribution           =     -27.58972210 Ry
     ewald contribution        =     -63.36261950 Ry

     convergence has been achieved in   7 iterations

     Forces acting on atoms (cartesian axes, Ry/au):

     atom    1 type  1   force =    -0.00268286    0.00154895    0.00000000
     atom    2 type  1   force =     0.00268286   -0.00154895   -0.00000000
     atom    3 type  1   force =    -0.00268286   -0.00154895    0.00000000
     atom    4 type  1   force =     0.00268286    0.00154895    0.00000000
     atom    5 type  1   force =     0.00000000   -0.00309789   -0.00000000
     atom    6 type  1   force =    -0.00000000    0.00309789   -0.00000000
     atom    7 type  2   force =    -0.00000000   -0.00000000   -0.00000000
     atom    8 type  2   force =    -0.00000000   -0.00000000   -0.00000000
     The non-local contrib.  to forces
     atom    1 type  1   force =    -0.01034222    0.00597108   -0.00000000
     atom    2 type  1   force =     0.01034222   -0.00597108    0.00000000
     atom    3 type  1   force =    -0.01034222   -0.00597108    0.00000000
     atom    4 type  1   force =     0.01034222    0.00597108    0.00000000
     atom    5 type  1   force =    -0.00000000   -0.01194217    0.00000000
     atom    6 type  1   force =     0.00000000    0.01194217    0.00000000
     atom    7 type  2   force =     0.00000000   -0.00000000    0.00000000
     atom    8 type  2   force =     0.00000000    0.00000000    0.00000000
     The ionic contribution  to forces
     atom    1 type  1   force =    -0.26119876    0.15080317    0.00000000
     atom    2 type  1   force =     0.26119876   -0.15080317   -0.00000000
     atom    3 type  1   force =    -0.26119876   -0.15080310   -0.00000000
     atom    4 type  1   force =     0.26119876    0.15080310    0.00000000
     atom    5 type  1   force =     0.00000007   -0.30160631    0.00000000
     atom    6 type  1   force =    -0.00000007    0.30160631   -0.00000000
     atom    7 type  2   force =     0.00000008   -0.00000005   -0.00000000
     atom    8 type  2   force =    -0.00000008    0.00000005    0.00000000
     The local contribution  to forces
     atom    1 type  1   force =     0.26885955   -0.15522614    0.00000000
     atom    2 type  1   force =    -0.26885955    0.15522614    0.00000000
     atom    3 type  1   force =     0.26885955    0.15522614    0.00000000
     atom    4 type  1   force =    -0.26885955   -0.15522614    0.00000000
     atom    5 type  1   force =     0.00000000    0.31045227    0.00000000
     atom    6 type  1   force =     0.00000000   -0.31045227    0.00000000
     atom    7 type  2   force =    -0.00000001    0.00000001   -0.00000000
     atom    8 type  2   force =     0.00000001   -0.00000001   -0.00000000
     The core correction contribution to forces
     atom    1 type  1   force =     0.00000000    0.00000000    0.00000000
     atom    2 type  1   force =     0.00000000    0.00000000    0.00000000
     atom    3 type  1   force =     0.00000000    0.00000000    0.00000000
     atom    4 type  1   force =     0.00000000    0.00000000    0.00000000
     atom    5 type  1   force =     0.00000000    0.00000000    0.00000000
     atom    6 type  1   force =     0.00000000    0.00000000    0.00000000
     atom    7 type  2   force =    -0.00000000    0.00000000   -0.00000000
     atom    8 type  2   force =     0.00000000   -0.00000000   -0.00000000
     The Hubbard contrib.    to forces
     atom    1 type  1   force =     0.00000000    0.00000000    0.00000000
     atom    2 type  1   force =     0.00000000    0.00000000    0.00000000
     atom    3 type  1   force =     0.00000000    0.00000000    0.00000000
     atom    4 type  1   force =     0.00000000    0.00000000    0.00000000
     atom    5 type  1   force =     0.00000000    0.00000000    0.00000000
     atom    6 type  1   force =     0.00000000    0.00000000    0.00000000
     atom    7 type  2   force =     0.00000000    0.00000000    0.00000000
     atom    8 type  2   force =     0.00000000    0.00000000    0.00000000
     The SCF correction term to forces
     atom    1 type  1   force =    -0.00000145    0.00000084   -0.00000000
     atom    2 type  1   force =     0.00000145   -0.00000084    0.00000000
     atom    3 type  1   force =    -0.00000145   -0.00000084    0.00000000
     atom    4 type  1   force =     0.00000145    0.00000084    0.00000000
     atom    5 type  1   force =     0.00000000   -0.00000168   -0.00000000
     atom    6 type  1   force =    -0.00000000    0.00000168   -0.00000000
     atom    7 type  2   force =     0.00000000   -0.00000000    0.00000000
     atom    8 type  2   force =    -0.00000000    0.00000000   -0.00000000

     Total force =     0.007588     Total SCF correction =     0.000004


     Computing stress (Cartesian axis) and pressure

          total   stress  (Ry/bohr**3)                   (kbar)     P=      503.51
   0.00341634   0.00000000  -0.00000000          502.56        0.00       -0.00
   0.00000000   0.00341634  -0.00000000            0.00      502.56       -0.00
   0.00000000   0.00000000   0.00343565            0.00        0.00      505.40

     Energy error            =      5.4E-04 Ry
     Gradient error          =      3.1E-03 Ry/Bohr
     Cell gradient error     =      5.4E+00 kbar

     number of scf cycles    =   4
     number of bfgs steps    =   3

     enthalpy           old  =    -101.4910997999 Ry
     enthalpy           new  =    -101.4916392529 Ry

     CASE: enthalpy          _new < enthalpy          _old

     new trust radius        =       0.0051990056 bohr
ibrav =      4
 celldm(1) =      8.76919659
 celldm(3) =      0.80150478
Input lattice vectors:
     1.03410929     0.00000000     0.00000000
    -0.51705465     0.89556492     0.00000000
    -0.00000000    -0.00000000     0.82884354
New lattice vectors in INITIAL alat:
     1.03410929     0.00000000     0.00000000
    -0.51705465     0.89556492     0.00000000
     0.00000000     0.00000000     0.82884354
New lattice vectors in NEW alat (for information only):
     1.00000000     0.00000000     0.00000000
    -0.50000000     0.86602540     0.00000000
     0.00000000     0.00000000     0.80150478
Discrepancy in bohr =     0.000000    0.000000    0.000000
     new conv_thr            =       0.0000000003 Ry

     new unit-cell volume =    468.07578 a.u.^3 (    69.36167 Ang^3 )
     density =      2.34177 g/cm^3

CELL_PARAMETERS (alat=  8.47995145)
   1.034109292   0.000000000   0.000000000
  -0.517054646   0.895564917   0.000000000
   0.000000000   0.000000000   0.828843540

ATOMIC_POSITIONS (crystal)
Li            0.1681375753        0.8318624247        0.7500000000
Li            0.8318624247        0.1681375753        0.2500000000
Li            0.3362751507        0.1681375753        0.2500000000
Li            0.6637248493        0.8318624247        0.7500000000
Li            0.1681375753        0.3362751507        0.7500000000
Li            0.8318624247        0.6637248493        0.2500000000
Si            0.3333333300        0.6666666700        0.2500000000
Si            0.6666666700        0.3333333300        0.7500000000



     Writing config-only to output data dir ./output/LiSi.save/
     NEW-OLD atomic charge density approx. for the potential
     extrapolated charge   26.00953, renormalised to   26.00000

     total cpu time spent up to now is       24.0 secs

     Self-consistent Calculation

     iteration #  1     ecut=    80.00 Ry     beta= 0.70
     Davidson diagonalization with overlap
     ethr =  1.00E-06,  avg # of iterations =  3.1

     total cpu time spent up to now is       24.5 secs

     total energy              =    -103.08266024 Ry
     estimated scf accuracy    <       0.00002944 Ry

     iteration #  2     ecut=    80.00 Ry     beta= 0.70
     Davidson diagonalization with overlap
     ethr =  1.13E-07,  avg # of iterations =  2.0

     total cpu time spent up to now is       24.9 secs

     total energy              =    -103.08266874 Ry
     estimated scf accuracy    <       0.00001030 Ry

     iteration #  3     ecut=    80.00 Ry     beta= 0.70
     Davidson diagonalization with overlap
     ethr =  3.96E-08,  avg # of iterations =  2.0

     total cpu time spent up to now is       25.3 secs

     total energy              =    -103.08267075 Ry
     estimated scf accuracy    <       0.00000003 Ry

     iteration #  4     ecut=    80.00 Ry     beta= 0.70
     Davidson diagonalization with overlap
     ethr =  1.28E-10,  avg # of iterations =  3.6

     total cpu time spent up to now is       25.7 secs

     total energy              =    -103.08267076 Ry
     estimated scf accuracy    <          3.5E-09 Ry

     iteration #  5     ecut=    80.00 Ry     beta= 0.70
     Davidson diagonalization with overlap
     ethr =  1.35E-11,  avg # of iterations =  2.0

     total cpu time spent up to now is       26.1 secs

     End of self-consistent calculation

          k = 0.0000 0.0000 0.0000 (  4867 PWs)   bands (ev):

   -37.4814 -37.2365 -37.2365 -37.2234 -37.1268 -37.1268  -1.9176   2.5627
     4.1783   4.1783   4.8253   6.7053   7.5008   7.5008  10.9641  11.0902
    14.1607

          k = 0.0000 0.0000 0.2011 (  4873 PWs)   bands (ev):

   -37.4640 -37.2407 -37.2290 -37.2290 -37.1341 -37.1341  -1.7325   1.9970
     4.3334   4.3334   5.0065   6.7885   7.1662   7.1662  10.3385  11.7409
    13.6249

          k = 0.0000 0.0000 0.4022 (  4902 PWs)   bands (ev):

   -37.4166 -37.2877 -37.2087 -37.2087 -37.1538 -37.1538  -1.1849   0.8371
     4.7884   4.7884   5.5226   6.3765   6.3765   6.8000   9.5754  11.1633
    13.0025

          k = 0.0000 0.0000-0.6033 (  4866 PWs)   bands (ev):

   -37.3520 -37.3520 -37.1810 -37.1810 -37.1810 -37.1810  -0.3025  -0.3025
     5.5043   5.5043   5.5043   5.5043   6.2574   6.2574   9.9291   9.9291
    12.7979

          k = 0.0000 0.2233 0.0000 (  4877 PWs)   bands (ev):

   -37.4612 -37.2601 -37.2382 -37.2171 -37.1301 -37.1253  -1.7584   1.3650
     4.1590   5.1498   5.3131   6.3395   7.9516   8.7610   9.8113  11.1323
    12.6279

          k = 0.0000 0.2233 0.2011 (  4890 PWs)   bands (ev):

   -37.4445 -37.2545 -37.2305 -37.2294 -37.1396 -37.1328  -1.5791   1.2469
     4.3214   4.3235   5.7930   6.5654   7.5042   7.5373  10.4928  11.3748
    12.6587

          k = 0.0000 0.2233 0.4022 (  4892 PWs)   bands (ev):

   -37.3990 -37.2790 -37.2250 -37.2095 -37.1639 -37.1531  -1.0544   0.6729
     4.0199   4.8005   5.7236   6.3741   6.5426   6.8740  10.3760  11.0896
    12.5587

          k = 0.0000 0.2233-0.6033 (  4902 PWs)   bands (ev):

   -37.3379 -37.3379 -37.1953 -37.1953 -37.1811 -37.1811  -0.2412  -0.2412
     4.6236   4.6236   5.5670   5.5670   6.7018   6.7018  10.5021  10.5021
    12.8634

          k = 0.0000 0.4466 0.0000 (  4911 PWs)   bands (ev):

   -37.4118 -37.3157 -37.2408 -37.2012 -37.1403 -37.1230  -1.3321   0.1155
     4.1357   5.0930   6.0578   7.9534   8.4044   9.0319   9.8643  11.2744
    11.7930

          k = 0.0000 0.4466 0.2011 (  4899 PWs)   bands (ev):

   -37.3962 -37.3077 -37.2328 -37.2100 -37.1545 -37.1307  -1.1698   0.1797
     4.3092   4.7178   5.6417   6.5776   8.1794   8.5889  10.5373  11.6348
    12.2470

          k = 0.0000 0.4466 0.4022 (  4890 PWs)   bands (ev):

   -37.3549 -37.2899 -37.2322 -37.2109 -37.1903 -37.1520  -0.7170   0.2155
     3.8246   4.8089   4.8248   6.0810   6.8262   7.7515  11.0393  12.4581
    12.8226

          k = 0.0000 0.4466-0.6033 (  4906 PWs)   bands (ev):

   -37.3050 -37.3050 -37.2283 -37.2283 -37.1813 -37.1813  -0.1288  -0.1288
     3.8294   3.8294   5.6712   5.6712   6.7622   6.7622  12.0543  12.0543
    13.0005

          k = 0.1934 0.3350 0.0000 (  4886 PWs)   bands (ev):

   -37.4257 -37.2863 -37.2658 -37.1924 -37.1329 -37.1297  -1.4464   0.3669
     3.8206   5.7786   6.3060   6.6356   8.6054   9.1042   9.6245  10.6312
    11.2027

          k = 0.1934 0.3350 0.2011 (  4897 PWs)   bands (ev):

   -37.4099 -37.2774 -37.2625 -37.1997 -37.1452 -37.1371  -1.2795   0.4057
     3.9806   4.7820   6.3084   7.0922   7.1165   7.9902  10.7981  11.2437
    12.5170

          k = 0.1934 0.3350 0.4022 (  4900 PWs)   bands (ev):

   -37.3676 -37.2702 -37.2531 -37.2074 -37.1748 -37.1569  -0.8062   0.3364
     3.8717   4.4492   5.1540   6.4643   6.9428   7.3586  10.7495  11.5000
    13.1883

          k = 0.1934 0.3350-0.6033 (  4882 PWs)   bands (ev):

   -37.3132 -37.3132 -37.2200 -37.2200 -37.1813 -37.1813  -0.1518  -0.1518
     4.0293   4.0293   5.3114   5.3114   7.2595   7.2595  10.8566  10.8566
    13.6329

          k = 0.1934 0.5583 0.0000 (  4910 PWs)   bands (ev):

   -37.3869 -37.3227 -37.2782 -37.1709 -37.1429 -37.1316  -1.0242  -0.3691
     3.6109   6.3464   6.6787   7.4347   8.4888   8.6475   9.9305  10.1338
    11.3597

          k = 0.1934 0.5583 0.2011 (  4914 PWs)   bands (ev):

   -37.3710 -37.3151 -37.2721 -37.1764 -37.1571 -37.1405  -0.8770  -0.2640
     3.7664   5.3817   6.0871   6.7720   7.9344   8.8255   9.1009  12.0958
    12.5668

          k = 0.1934 0.5583 0.4022 (  4898 PWs)   bands (ev):

   -37.3286 -37.2963 -37.2599 -37.1987 -37.1864 -37.1604  -0.4886  -0.0553
     4.0229   4.3412   4.5470   6.3232   7.1920   8.3736   9.7020  12.1351
    14.3353

          k = 0.1934 0.5583-0.6033 (  4908 PWs)   bands (ev):

   -37.2858 -37.2858 -37.2474 -37.2474 -37.1815 -37.1815  -0.0903  -0.0903
     3.7369   3.7369   5.1106   5.1106   7.7654   7.7654  10.6731  10.6731
    15.1106

     the Fermi energy is     7.6341 ev

!    total energy              =    -103.08267076 Ry
     estimated scf accuracy    <          2.6E-10 Ry
     smearing contrib. (-TS)   =       0.00072166 Ry
     internal energy E=F+TS    =    -103.08339242 Ry

     The total energy is F=E-TS. E is the sum of the following terms:
     one-electron contribution =     -29.43328141 Ry
     hartree contribution      =      17.30224849 Ry
     xc contribution           =     -27.58761926 Ry
     ewald contribution        =     -63.36474024 Ry

     convergence has been achieved in   5 iterations

     Forces acting on atoms (cartesian axes, Ry/au):

     atom    1 type  1   force =    -0.00122688    0.00070834   -0.00000000
     atom    2 type  1   force =     0.00122688   -0.00070834    0.00000000
     atom    3 type  1   force =    -0.00122688   -0.00070834    0.00000000
     atom    4 type  1   force =     0.00122688    0.00070834   -0.00000000
     atom    5 type  1   force =    -0.00000000   -0.00141667   -0.00000000
     atom    6 type  1   force =    -0.00000000    0.00141667    0.00000000
     atom    7 type  2   force =     0.00000000    0.00000000   -0.00000000
     atom    8 type  2   force =     0.00000000    0.00000000    0.00000000
     The non-local contrib.  to forces
     atom    1 type  1   force =    -0.00982495    0.00567244   -0.00000000
     atom    2 type  1   force =     0.00982495   -0.00567244    0.00000000
     atom    3 type  1   force =    -0.00982495   -0.00567244   -0.00000000
     atom    4 type  1   force =     0.00982495    0.00567244    0.00000000
     atom    5 type  1   force =     0.00000000   -0.01134487    0.00000000
     atom    6 type  1   force =     0.00000000    0.01134487    0.00000000
     atom    7 type  2   force =     0.00000000   -0.00000000    0.00000000
     atom    8 type  2   force =     0.00000000   -0.00000000    0.00000000
     The ionic contribution  to forces
     atom    1 type  1   force =    -0.24605354    0.14205908   -0.00000000
     atom    2 type  1   force =     0.24605354   -0.14205908   -0.00000000
     atom    3 type  1   force =    -0.24605354   -0.14205900   -0.00000000
     atom    4 type  1   force =     0.24605354    0.14205900    0.00000000
     atom    5 type  1   force =     0.00000007   -0.28411811    0.00000000
     atom    6 type  1   force =    -0.00000007    0.28411811   -0.00000000
     atom    7 type  2   force =     0.00000008   -0.00000005   -0.00000000
     atom    8 type  2   force =    -0.00000008    0.00000005    0.00000000
     The local contribution  to forces
     atom    1 type  1   force =     0.25465974   -0.14702787    0.00000000
     atom    2 type  1   force =    -0.25465974    0.14702787    0.00000000
     atom    3 type  1   force =     0.25465974    0.14702787    0.00000000
     atom    4 type  1   force =    -0.25465974   -0.14702787    0.00000000
     atom    5 type  1   force =     0.00000000    0.29405574    0.00000000
     atom    6 type  1   force =     0.00000000   -0.29405574    0.00000000
     atom    7 type  2   force =    -0.00000001    0.00000001   -0.00000000
     atom    8 type  2   force =     0.00000001   -0.00000001   -0.00000000
     The core correction contribution to forces
     atom    1 type  1   force =     0.00000000    0.00000000    0.00000000
     atom    2 type  1   force =     0.00000000    0.00000000    0.00000000
     atom    3 type  1   force =     0.00000000    0.00000000    0.00000000
     atom    4 type  1   force =     0.00000000    0.00000000    0.00000000
     atom    5 type  1   force =     0.00000000    0.00000000    0.00000000
     atom    6 type  1   force =     0.00000000    0.00000000    0.00000000
     atom    7 type  2   force =    -0.00000000    0.00000000   -0.00000000
     atom    8 type  2   force =     0.00000000   -0.00000000   -0.00000000
     The Hubbard contrib.    to forces
     atom    1 type  1   force =     0.00000000    0.00000000    0.00000000
     atom    2 type  1   force =     0.00000000    0.00000000    0.00000000
     atom    3 type  1   force =     0.00000000    0.00000000    0.00000000
     atom    4 type  1   force =     0.00000000    0.00000000    0.00000000
     atom    5 type  1   force =     0.00000000    0.00000000    0.00000000
     atom    6 type  1   force =     0.00000000    0.00000000    0.00000000
     atom    7 type  2   force =     0.00000000    0.00000000    0.00000000
     atom    8 type  2   force =     0.00000000    0.00000000    0.00000000
     The SCF correction term to forces
     atom    1 type  1   force =    -0.00000816    0.00000471    0.00000000
     atom    2 type  1   force =     0.00000816   -0.00000471    0.00000000
     atom    3 type  1   force =    -0.00000816   -0.00000471    0.00000000
     atom    4 type  1   force =     0.00000816    0.00000471    0.00000000
     atom    5 type  1   force =    -0.00000000   -0.00000942    0.00000000
     atom    6 type  1   force =     0.00000000    0.00000942    0.00000000
     atom    7 type  2   force =    -0.00000000    0.00000000    0.00000000
     atom    8 type  2   force =     0.00000000   -0.00000000   -0.00000000

     Total force =     0.003470     Total SCF correction =     0.000023


     Computing stress (Cartesian axis) and pressure

          total   stress  (Ry/bohr**3)                   (kbar)     P=      502.14
   0.00341907   0.00000000  -0.00000000          502.96        0.00       -0.00
   0.00000000   0.00341907   0.00000000            0.00      502.96        0.00
   0.00000000  -0.00000000   0.00340226            0.00       -0.00      500.49

     Energy error            =      7.4E-05 Ry
     Gradient error          =      1.4E-03 Ry/Bohr
     Cell gradient error     =      3.0E+00 kbar

     number of scf cycles    =   5
     number of bfgs steps    =   4

     enthalpy           old  =    -101.4916392529 Ry
     enthalpy           new  =    -101.4917135296 Ry

     CASE: enthalpy          _new < enthalpy          _old

     new trust radius        =       0.0035824316 bohr
ibrav =      4
 celldm(1) =      8.77239501
 celldm(3) =      0.80140286
Input lattice vectors:
     1.03448647     0.00000000     0.00000000
    -0.51724323     0.89589156    -0.00000000
    -0.00000000     0.00000000     0.82904041
New lattice vectors in INITIAL alat:
     1.03448647     0.00000000     0.00000000
    -0.51724323     0.89589156     0.00000000
     0.00000000     0.00000000     0.82904041
New lattice vectors in NEW alat (for information only):
     1.00000000     0.00000000     0.00000000
    -0.50000000     0.86602540     0.00000000
     0.00000000     0.00000000     0.80140286
Discrepancy in bohr =     0.000000    0.000000    0.000000
     new conv_thr            =            1.0E-10 Ry

     new unit-cell volume =    468.52855 a.u.^3 (    69.42877 Ang^3 )
     density =      2.33951 g/cm^3

CELL_PARAMETERS (alat=  8.47995145)
   1.034486467   0.000000000   0.000000000
  -0.517243233   0.895891560   0.000000000
   0.000000000   0.000000000   0.829040414

ATOMIC_POSITIONS (crystal)
Li            0.1679017136        0.8320982864        0.7500000000
Li            0.8320982864        0.1679017136        0.2500000000
Li            0.3358034272        0.1679017136        0.2500000000
Li            0.6641965728        0.8320982864        0.7500000000
Li            0.1679017136        0.3358034272        0.7500000000
Li            0.8320982864        0.6641965728        0.2500000000
Si            0.3333333300        0.6666666700        0.2500000000
Si            0.6666666700        0.3333333300        0.7500000000



     Writing config-only to output data dir ./output/LiSi.save/
     NEW-OLD atomic charge density approx. for the potential
     extrapolated charge   26.02510, renormalised to   26.00000

     total cpu time spent up to now is       27.9 secs

     Self-consistent Calculation

     iteration #  1     ecut=    80.00 Ry     beta= 0.70
[...]
     unit-cell volume          =     468.5104 (a.u.)^3
     number of atoms/cell      =            8
     number of atomic types    =            2
     number of electrons       =        26.00
     number of Kohn-Sham states=           17
     kinetic-energy cutoff     =      80.0000  Ry
     charge density cutoff     =     320.0000  Ry
     scf convergence threshold =      1.0E-10
     mixing beta               =       0.7000
     number of iterations used =            8  plain     mixing
     press convergence thresh. =      1.0E+00
     Exchange-correlation= PBE
                           (   1   4   3   4   0   0   0)

     celldm(1)=   8.479951  celldm(2)=   0.000000  celldm(3)=   0.767308
     celldm(4)=   0.000000  celldm(5)=   0.000000  celldm(6)=   0.000000

     crystal axes: (cart. coord. in units of alat)
               a(1) = (   1.034888   0.000000   0.000000 )  
               a(2) = (  -0.517444   0.896239   0.000000 )  
               a(3) = (   0.000000   0.000000   0.828366 )  

     reciprocal axes: (cart. coord. in units 2 pi/alat)
               b(1) = (  0.966289  0.557887 -0.000000 )  
               b(2) = (  0.000000  1.115774  0.000000 )  
               b(3) = (  0.000000 -0.000000  1.207196 )  


     PseudoPot. # 1 for Li read from file:
     ../pseudo/Li_ONCV_PBE_sr.upf
     MD5 check sum: 50ff420e78310ffa21704f3361e624a4
     Pseudo is Norm-conserving, Zval =  3.0
     Generated using ONCVPSP code by D. R. Hamann
     Using radial grid of 1944 points,  4 beta functions with: 
                l(1) =   0
                l(2) =   0
                l(3) =   1
                l(4) =   1

     PseudoPot. # 2 for Si read from file:
     ../pseudo/Si_ONCV_PBE_sr.upf
     MD5 check sum: e543d271109d17c80368dfa7c482276d
     Pseudo is Norm-conserving + core correction, Zval =  4.0
     Generated using ONCVPSP code by D. R. Hamann
     Using radial grid of 1510 points,  6 beta functions with: 
                l(1) =   0
                l(2) =   0
                l(3) =   1
                l(4) =   1
                l(5) =   2
                l(6) =   2

     atomic species   valence    mass     pseudopotential
        Li             3.00     6.94100     Li( 1.00)
        Si             4.00    28.08550     Si( 1.00)

     24 Sym. Ops., with inversion, found (12 have fractional translation)



   Cartesian axes

     site n.     atom                  positions (alat units)
         1           Li  tau(   1) = (  -0.2569645   0.7458511   0.6212744  )
         2           Li  tau(   2) = (   0.7744082   0.1503878   0.2070915  )
         3           Li  tau(   3) = (   0.2604793   0.1503878   0.2070915  )
         4           Li  tau(   4) = (   0.2569645   0.7458511   0.6212744  )
         5           Li  tau(   5) = (  -0.0000000   0.3007755   0.6212744  )
         6           Li  tau(   6) = (   0.5174438   0.5954633   0.2070915  )
         7           Si  tau(   7) = (  -0.0000000   0.5974926   0.2070915  )
         8           Si  tau(   8) = (   0.5174438   0.2987463   0.6212744  )

     number of k points=    20  Marzari-Vanderbilt smearing, width (Ry)=  0.0200
                       cart. coord. in units 2pi/alat
        k(    1) = (   0.0000000   0.0000000   0.0000000), wk =   0.0133333
        k(    2) = (   0.0000000   0.0000000   0.2011994), wk =   0.0266667
        k(    3) = (   0.0000000   0.0000000   0.4023987), wk =   0.0266667
        k(    4) = (   0.0000000   0.0000000  -0.6035981), wk =   0.0133333
        k(    5) = (   0.0000000   0.2231548   0.0000000), wk =   0.0800000
        k(    6) = (   0.0000000   0.2231548   0.2011994), wk =   0.1600000
        k(    7) = (   0.0000000   0.2231548   0.4023987), wk =   0.1600000
        k(    8) = (   0.0000000   0.2231548  -0.6035981), wk =   0.0800000
        k(    9) = (   0.0000000   0.4463096   0.0000000), wk =   0.0800000
        k(   10) = (   0.0000000   0.4463096   0.2011994), wk =   0.1600000
        k(   11) = (   0.0000000   0.4463096   0.4023987), wk =   0.1600000
        k(   12) = (   0.0000000   0.4463096  -0.6035981), wk =   0.0800000
        k(   13) = (   0.1932577   0.3347322   0.0000000), wk =   0.0800000
        k(   14) = (   0.1932577   0.3347322   0.2011994), wk =   0.1600000
        k(   15) = (   0.1932577   0.3347322   0.4023987), wk =   0.1600000
        k(   16) = (   0.1932577   0.3347322  -0.6035981), wk =   0.0800000
        k(   17) = (   0.1932577   0.5578870   0.0000000), wk =   0.0800000
        k(   18) = (   0.1932577   0.5578870   0.2011994), wk =   0.1600000
        k(   19) = (   0.1932577   0.5578870   0.4023987), wk =   0.1600000
        k(   20) = (   0.1932577   0.5578870  -0.6035981), wk =   0.0800000

     Dense  grid:    45081 G-vectors     FFT dimensions: (  50,  50,  40)

     Estimated max dynamical RAM per process >      20.50 MB

     Estimated total dynamical RAM >     164.02 MB

     Initial potential from superposition of free atoms

     starting charge      25.9714, renormalised to      26.0000
     Starting wfcs are   20 randomized atomic wfcs

     total cpu time spent up to now is       41.3 secs

     Self-consistent Calculation

     iteration #  1     ecut=    80.00 Ry     beta= 0.70
     Davidson diagonalization with overlap
     c_bands:  1 eigenvalues not converged
     c_bands:  1 eigenvalues not converged
     c_bands:  1 eigenvalues not converged
     c_bands:  1 eigenvalues not converged
     c_bands:  1 eigenvalues not converged
     ethr =  1.00E-06,  avg # of iterations = 16.4

     total cpu time spent up to now is       42.7 secs

     total energy              =    -103.08344547 Ry
     estimated scf accuracy    <       0.01933170 Ry

     iteration #  2     ecut=    80.00 Ry     beta= 0.70
     Davidson diagonalization with overlap
     ethr =  7.44E-05,  avg # of iterations =  1.4

     total cpu time spent up to now is       43.0 secs

     total energy              =    -103.08406429 Ry
     estimated scf accuracy    <       0.00197671 Ry

     iteration #  3     ecut=    80.00 Ry     beta= 0.70
     Davidson diagonalization with overlap
     ethr =  7.60E-06,  avg # of iterations =  2.0

     total cpu time spent up to now is       43.4 secs

     total energy              =    -103.08430123 Ry
     estimated scf accuracy    <       0.00048655 Ry

     iteration #  4     ecut=    80.00 Ry     beta= 0.70
     Davidson diagonalization with overlap
     ethr =  1.87E-06,  avg # of iterations =  2.3

     total cpu time spent up to now is       43.8 secs

     total energy              =    -103.08438701 Ry
     estimated scf accuracy    <       0.00000330 Ry

     iteration #  5     ecut=    80.00 Ry     beta= 0.70
     Davidson diagonalization with overlap
     ethr =  1.27E-08,  avg # of iterations =  3.2

     total cpu time spent up to now is       44.3 secs

     total energy              =    -103.08438800 Ry
     estimated scf accuracy    <       0.00000006 Ry

     iteration #  6     ecut=    80.00 Ry     beta= 0.70
     Davidson diagonalization with overlap
     ethr =  2.42E-10,  avg # of iterations =  3.4

     total cpu time spent up to now is       44.7 secs

     total energy              =    -103.08438803 Ry
     estimated scf accuracy    <          1.0E-09 Ry

     iteration #  7     ecut=    80.00 Ry     beta= 0.70
     Davidson diagonalization with overlap
     ethr =  3.92E-12,  avg # of iterations =  3.2

     total cpu time spent up to now is       45.2 secs

     End of self-consistent calculation

          k = 0.0000 0.0000 0.0000 (  5647 PWs)   bands (ev):

   -37.4892 -37.2454 -37.2454 -37.2299 -37.1348 -37.1348  -1.9255   2.5528
     4.1706   4.1706   4.8366   6.6916   7.4904   7.4904  10.9671  11.0847
    14.1650

          k = 0.0000 0.0000 0.2012 (  5624 PWs)   bands (ev):

   -37.4717 -37.2471 -37.2378 -37.2378 -37.1421 -37.1421  -1.7396   1.9941
     4.3260   4.3260   5.0055   6.7753   7.1573   7.1573  10.3345  11.7347
    13.6205

          k = 0.0000 0.0000 0.4024 (  5672 PWs)   bands (ev):

   -37.4240 -37.2943 -37.2172 -37.2172 -37.1620 -37.1620  -1.1896   0.8374
     4.7817   4.7817   5.5117   6.3696   6.3696   6.7886   9.5605  11.1429
    12.9895

          k = 0.0000 0.0000-0.6036 (  5708 PWs)   bands (ev):

   -37.3591 -37.3591 -37.1895 -37.1895 -37.1895 -37.1895  -0.3042  -0.3042
     5.4980   5.4980   5.4980   5.4980   6.2455   6.2455   9.9088   9.9088
    12.7812

          k = 0.0000 0.2232 0.0000 (  5644 PWs)   bands (ev):

   -37.4693 -37.2685 -37.2470 -37.2236 -37.1383 -37.1334  -1.7663   1.3567
     4.1511   5.1609   5.3039   6.3286   7.9405   8.7480   9.8170  11.1273
    12.6162

          k = 0.0000 0.2232 0.2012 (  5660 PWs)   bands (ev):

   -37.4524 -37.2625 -37.2393 -37.2364 -37.1477 -37.1408  -1.5861   1.2417
     4.3138   4.3237   5.7853   6.5560   7.4950   7.5313  10.4835  11.3633
    12.6509

          k = 0.0000 0.2232 0.4024 (  5688 PWs)   bands (ev):

   -37.4066 -37.2857 -37.2334 -37.2181 -37.1721 -37.1613  -1.0590   0.6724
     4.0129   4.7935   5.7177   6.3637   6.5356   6.8632  10.3587  11.0716
    12.5446

          k = 0.0000 0.2232-0.6036 (  5692 PWs)   bands (ev):

   -37.3449 -37.3449 -37.2037 -37.2037 -37.1896 -37.1896  -0.2427  -0.2427
     4.6159   4.6159   5.5605   5.5605   6.6907   6.6907  10.4833  10.4833
    12.8469

          k = 0.0000 0.4463 0.0000 (  5640 PWs)   bands (ev):

   -37.4207 -37.3230 -37.2496 -37.2077 -37.1486 -37.1310  -1.3400   0.1080
     4.1275   5.0853   6.0686   7.9600   8.3910   9.0188   9.8514  11.2709
    11.7814

          k = 0.0000 0.4463 0.2012 (  5666 PWs)   bands (ev):

   -37.4049 -37.3149 -37.2415 -37.2167 -37.1629 -37.1388  -1.1768   0.1737
     4.3012   4.7165   5.6379   6.5767   8.1700   8.5781  10.5208  11.6238
    12.2359

          k = 0.0000 0.4463 0.4024 (  5661 PWs)   bands (ev):

   -37.3630 -37.2968 -37.2396 -37.2195 -37.1987 -37.1602  -0.7212   0.2135
     3.8191   4.8038   4.8174   6.0710   6.8190   7.7406  11.0187  12.4433
    12.8033

          k = 0.0000 0.4463-0.6036 (  5646 PWs)   bands (ev):

   -37.3122 -37.3122 -37.2366 -37.2366 -37.1897 -37.1897  -0.1299  -0.1299
     3.8212   3.8212   5.6643   5.6643   6.7511   6.7511  12.0343  12.0343
    12.9839

          k = 0.1933 0.3347 0.0000 (  5673 PWs)   bands (ev):

   -37.4342 -37.2945 -37.2734 -37.1997 -37.1411 -37.1377  -1.4542   0.3590
     3.8141   5.7893   6.2951   6.6240   8.6136   9.0935   9.6104  10.6237
    11.1985

          k = 0.1933 0.3347 0.2012 (  5663 PWs)   bands (ev):

   -37.4183 -37.2856 -37.2697 -37.2074 -37.1534 -37.1451  -1.2864   0.3997
     3.9743   4.7836   6.2999   7.0822   7.1130   7.9826  10.7825  11.2306
    12.6512

          k = 0.1933 0.3347 0.4024 (  5660 PWs)   bands (ev):

   -37.3755 -37.2767 -37.2613 -37.2160 -37.1831 -37.1651  -0.8105   0.3347
     3.8653   4.4432   5.1483   6.4576   6.9315   7.3470  10.7318  11.4832
    13.1739

          k = 0.1933 0.3347-0.6036 (  5654 PWs)   bands (ev):

   -37.3203 -37.3203 -37.2283 -37.2283 -37.1898 -37.1898  -0.1530  -0.1530
     4.0208   4.0208   5.3050   5.3050   7.2480   7.2480  10.8396  10.8396
    13.6152

          k = 0.1933 0.5579 0.0000 (  5642 PWs)   bands (ev):

   -37.3966 -37.3295 -37.2857 -37.1783 -37.1511 -37.1397  -1.0321  -0.3767
     3.6054   6.3350   6.6900   7.4430   8.4748   8.6305   9.9235  10.1250
    11.3123

          k = 0.1933 0.5579 0.2012 (  5661 PWs)   bands (ev):

   -37.3806 -37.3218 -37.2796 -37.1839 -37.1655 -37.1486  -0.8838  -0.2703
     3.7610   5.3820   6.0874   6.7624   7.9268   8.8140   9.0846  12.0861
    12.5691

          k = 0.1933 0.5579 0.4024 (  5655 PWs)   bands (ev):

   -37.3377 -37.3027 -37.2670 -37.2076 -37.1945 -37.1686  -0.4924  -0.0581
     4.0177   4.3350   4.5415   6.3168   7.1801   8.3609   9.6855  12.1211
    14.3151

          k = 0.1933 0.5579-0.6036 (  5670 PWs)   bands (ev):

   -37.2928 -37.2928 -37.2558 -37.2558 -37.1899 -37.1899  -0.0912  -0.0912
     3.7279   3.7279   5.1046   5.1046   7.7529   7.7529  10.6576  10.6576
    15.0889

     the Fermi energy is     7.6267 ev

!    total energy              =    -103.08438803 Ry
     estimated scf accuracy    <          9.5E-11 Ry
     smearing contrib. (-TS)   =       0.00068033 Ry
     internal energy E=F+TS    =    -103.08506836 Ry

     The total energy is F=E-TS. E is the sum of the following terms:
     one-electron contribution =     -29.44928236 Ry
     hartree contribution      =      17.30164813 Ry
     xc contribution           =     -27.58440180 Ry
     ewald contribution        =     -63.35303233 Ry

     convergence has been achieved in   7 iterations

     Forces acting on atoms (cartesian axes, Ry/au):

     atom    1 type  1   force =     0.00002590   -0.00001495   -0.00000000
     atom    2 type  1   force =    -0.00002590    0.00001495    0.00000000
     atom    3 type  1   force =     0.00002590    0.00001495   -0.00000000
     atom    4 type  1   force =    -0.00002590   -0.00001495    0.00000000
     atom    5 type  1   force =    -0.00000000    0.00002991   -0.00000000
     atom    6 type  1   force =     0.00000000   -0.00002991    0.00000000
     atom    7 type  2   force =     0.00000000   -0.00000000   -0.00000000
     atom    8 type  2   force =     0.00000000    0.00000000    0.00000000
     The non-local contrib.  to forces
     atom    1 type  1   force =    -0.00979057    0.00565259    0.00000000
     atom    2 type  1   force =     0.00979057   -0.00565259   -0.00000000
     atom    3 type  1   force =    -0.00979057   -0.00565259    0.00000000
     atom    4 type  1   force =     0.00979057    0.00565259   -0.00000000
     atom    5 type  1   force =    -0.00000000   -0.01130518    0.00000000
     atom    6 type  1   force =     0.00000000    0.01130518    0.00000000
     atom    7 type  2   force =     0.00000000    0.00000000    0.00000000
     atom    8 type  2   force =    -0.00000000   -0.00000000    0.00000000
     The ionic contribution  to forces
     atom    1 type  1   force =    -0.23213861    0.13402529   -0.00000000
     atom    2 type  1   force =     0.23213861   -0.13402529    0.00000000
     atom    3 type  1   force =    -0.23213861   -0.13402521    0.00000000
     atom    4 type  1   force =     0.23213861    0.13402521   -0.00000000
     atom    5 type  1   force =     0.00000007   -0.26805053    0.00000000
     atom    6 type  1   force =    -0.00000007    0.26805053    0.00000000
     atom    7 type  2   force =     0.00000008   -0.00000005    0.00000000
     atom    8 type  2   force =    -0.00000008    0.00000005   -0.00000000
     The local contribution  to forces
     atom    1 type  1   force =     0.24195101   -0.13969048   -0.00000000
     atom    2 type  1   force =    -0.24195101    0.13969048    0.00000000
     atom    3 type  1   force =     0.24195101    0.13969048    0.00000000
     atom    4 type  1   force =    -0.24195101   -0.13969048   -0.00000000
     atom    5 type  1   force =     0.00000000    0.27938096   -0.00000000
     atom    6 type  1   force =     0.00000000   -0.27938096    0.00000000
     atom    7 type  2   force =    -0.00000001    0.00000001   -0.00000000
     atom    8 type  2   force =     0.00000001   -0.00000001    0.00000000
     The core correction contribution to forces
     atom    1 type  1   force =     0.00000000    0.00000000    0.00000000
     atom    2 type  1   force =     0.00000000    0.00000000    0.00000000
     atom    3 type  1   force =     0.00000000    0.00000000    0.00000000
     atom    4 type  1   force =     0.00000000    0.00000000    0.00000000
     atom    5 type  1   force =     0.00000000    0.00000000    0.00000000
     atom    6 type  1   force =     0.00000000    0.00000000    0.00000000
     atom    7 type  2   force =    -0.00000000    0.00000000   -0.00000000
     atom    8 type  2   force =     0.00000000   -0.00000000    0.00000000
     The Hubbard contrib.    to forces
     atom    1 type  1   force =     0.00000000    0.00000000    0.00000000
     atom    2 type  1   force =     0.00000000    0.00000000    0.00000000
     atom    3 type  1   force =     0.00000000    0.00000000    0.00000000
     atom    4 type  1   force =     0.00000000    0.00000000    0.00000000
     atom    5 type  1   force =     0.00000000    0.00000000    0.00000000
     atom    6 type  1   force =     0.00000000    0.00000000    0.00000000
     atom    7 type  2   force =     0.00000000    0.00000000    0.00000000
     atom    8 type  2   force =     0.00000000    0.00000000    0.00000000
     The SCF correction term to forces
     atom    1 type  1   force =     0.00000405   -0.00000234   -0.00000000
     atom    2 type  1   force =    -0.00000405    0.00000234    0.00000000
     atom    3 type  1   force =     0.00000405    0.00000234   -0.00000000
     atom    4 type  1   force =    -0.00000405   -0.00000234   -0.00000000
     atom    5 type  1   force =     0.00000000    0.00000467    0.00000000
     atom    6 type  1   force =    -0.00000000   -0.00000467    0.00000000
     atom    7 type  2   force =     0.00000000   -0.00000000    0.00000000
     atom    8 type  2   force =    -0.00000000    0.00000000   -0.00000000

     Total force =     0.000073     Total SCF correction =     0.000011
     SCF correction compared to forces is large: reduce conv_thr to get better values


     Computing stress (Cartesian axis) and pressure

          total   stress  (Ry/bohr**3)                   (kbar)     P=      500.86
   0.00340296   0.00000000  -0.00000000          500.59        0.00       -0.00
   0.00000000   0.00340296   0.00000000            0.00      500.59        0.00
   0.00000000   0.00000000   0.00340837            0.00        0.00      501.39


     Writing all to output data dir ./output/LiSi.save/

     init_run     :      1.23s CPU      1.83s WALL (       2 calls)
     electrons    :     26.45s CPU     28.67s WALL (       9 calls)
     update_pot   :      3.07s CPU      3.13s WALL (       7 calls)
     forces       :      2.51s CPU      2.68s WALL (       9 calls)
     stress       :      9.42s CPU      9.94s WALL (       9 calls)

     Called by init_run:
     wfcinit      :      0.32s CPU      0.32s WALL (       2 calls)
     potinit      :      0.49s CPU      0.90s WALL (       2 calls)
     hinit0       :      0.37s CPU      0.44s WALL (       2 calls)

     Called by electrons:
     c_bands      :     22.54s CPU     23.62s WALL (      63 calls)
     sum_band     :      3.12s CPU      3.46s WALL (      63 calls)
     v_of_rho     :      0.86s CPU      1.97s WALL (      68 calls)
     mix_rho      :      0.06s CPU      0.09s WALL (      63 calls)

     Called by c_bands:
     init_us_2    :      0.60s CPU      0.66s WALL (    2920 calls)
     init_us_2:cp :      0.60s CPU      0.65s WALL (    2920 calls)
     cegterg      :     21.10s CPU     21.71s WALL (    1260 calls)

     Called by *egterg:
     cdiaghg      :      1.52s CPU      1.57s WALL (    4595 calls)
     h_psi        :     17.20s CPU     17.70s WALL (    4855 calls)
     g_psi        :      0.09s CPU      0.09s WALL (    3555 calls)

     Called by h_psi:
     h_psi:calbec :      1.58s CPU      1.62s WALL (    4855 calls)
     vloc_psi     :     14.39s CPU     14.82s WALL (    4855 calls)
     add_vuspsi   :      1.17s CPU      1.19s WALL (    4855 calls)

     General routines
     calbec       :      2.21s CPU      2.26s WALL (    5755 calls)
     fft          :      0.99s CPU      2.46s WALL (     907 calls)
     ffts         :      0.04s CPU      0.10s WALL (      63 calls)
     fftw         :     14.90s CPU     15.33s WALL (  139570 calls)

     Parallel routines

     PWSCF        :     42.96s CPU     46.86s WALL


   This run was terminated on:  17:42:29  29Dec2024            

=------------------------------------------------------------------------------=
   JOB DONE.
=------------------------------------------------------------------------------=
