
     Program PWSCF v.7.2 starts on 29Dec2024 at 11:19: 0 

     This program is part of the open-source Quantum ESPRESSO suite
     for quantum simulation of materials; please cite
         "P. Giannozzi et al., J. Phys.:Condens. Matter 21 395502 (2009);
         "P. Giannozzi et al., J. Phys.:Condens. Matter 29 465901 (2017);
         "P. Giannozzi et al., J. Chem. Phys. 152 154105 (2020);
          URL http://www.quantum-espresso.org", 
     in publications or presentations arising from this work. More details at
     http://www.quantum-espresso.org/quote

     Parallel version (MPI & OpenMP), running on       8 processor cores
     Number of MPI processes:                 8
     Threads/MPI process:                     1

     MPI processes distributed on     1 nodes
     480367 MiB available memory on the printing compute node when the environment starts

     Waiting for input...
     Reading input from standard input

     Current dimensions of program PWSCF are:
     Max number of different atomic species (ntypx) = 10
     Max number of k-points (npk) =  40000
     Max angular momentum in pseudopotentials (lmaxx) =  4

     R & G space division:  proc/nbgrp/npool/nimage =       8
     Subspace diagonalization in iterative solution of the eigenvalue problem:
     a serial algorithm will be used


     Parallelization info
     --------------------
     sticks:   dense  smooth     PW     G-vecs:    dense   smooth      PW
     Min          76      76     23                 4198     4198     681
     Max          77      77     24                 4204     4204     690
     Sum         613     613    187                33609    33609    5487

     Using Slab Decomposition



     bravais-lattice index     =            4
     lattice parameter (alat)  =       5.2964  a.u.
     unit-cell volume          =     349.5058 (a.u.)^3
     number of atoms/cell      =            4
     number of atomic types    =            2
     number of electrons       =        13.00
     number of Kohn-Sham states=           11
     kinetic-energy cutoff     =      80.0000  Ry
     charge density cutoff     =     320.0000  Ry
     scf convergence threshold =      1.0E-08
     mixing beta               =       0.7000
     number of iterations used =            8  plain     mixing
     energy convergence thresh.=      1.0E-04
     force convergence thresh. =      1.0E-03
     press convergence thresh. =      1.0E+00
     Exchange-correlation= PBE
                           (   1   4   3   4   0   0   0)
     nstep                     =           50


     celldm(1)=   5.296397  celldm(2)=   0.000000  celldm(3)=   2.716328
     celldm(4)=   0.000000  celldm(5)=   0.000000  celldm(6)=   0.000000

     crystal axes: (cart. coord. in units of alat)
               a(1) = (   1.000000   0.000000   0.000000 )  
               a(2) = (  -0.500000   0.866025   0.000000 )  
               a(3) = (   0.000000   0.000000   2.716328 )  

     reciprocal axes: (cart. coord. in units 2 pi/alat)
               b(1) = (  1.000000  0.577350 -0.000000 )  
               b(2) = (  0.000000  1.154701  0.000000 )  
               b(3) = (  0.000000 -0.000000  0.368144 )  


     PseudoPot. # 1 for Li read from file:
     ../pseudo/Li_ONCV_PBE_sr.upf
     MD5 check sum: 50ff420e78310ffa21704f3361e624a4
     Pseudo is Norm-conserving, Zval =  3.0
     Generated using ONCVPSP code by D. R. Hamann
     Using radial grid of 1944 points,  4 beta functions with: 
                l(1) =   0
                l(2) =   0
                l(3) =   1
                l(4) =   1

     PseudoPot. # 2 for Si read from file:
     ../pseudo/Si_ONCV_PBE_sr.upf
     MD5 check sum: e543d271109d17c80368dfa7c482276d
     Pseudo is Norm-conserving + core correction, Zval =  4.0
     Generated using ONCVPSP code by D. R. Hamann
     Using radial grid of 1510 points,  6 beta functions with: 
                l(1) =   0
                l(2) =   0
                l(3) =   1
                l(4) =   1
                l(5) =   2
                l(6) =   2

     atomic species   valence    mass     pseudopotential
        Li             3.00     6.94100     Li( 1.00)
        Si             4.00    28.08550     Si( 1.00)

     12 Sym. Ops. (no inversion) found



   Cartesian axes

     site n.     atom                  positions (alat units)
         1           Li  tau(   1) = (   0.0000000   0.0000000   0.7298475  )
         2           Li  tau(   2) = (   0.0000000   0.0000000   1.9864806  )
         3           Li  tau(   3) = (   0.5000000   0.2886751   0.0000000  )
         4           Si  tau(   4) = (  -0.0000000   0.5773503   1.3581641  )

     number of k points=    24  Marzari-Vanderbilt smearing, width (Ry)=  0.0200
                       cart. coord. in units 2pi/alat
        k(    1) = (   0.0000000   0.0000000   0.0000000), wk =   0.0082305
        k(    2) = (   0.0000000   0.0000000   0.1227147), wk =   0.0164609
        k(    3) = (   0.0000000   0.1283001   0.0000000), wk =   0.0493827
        k(    4) = (   0.0000000   0.1283001   0.1227147), wk =   0.0987654
        k(    5) = (   0.0000000   0.2566001   0.0000000), wk =   0.0493827
        k(    6) = (   0.0000000   0.2566001   0.1227147), wk =   0.0987654
        k(    7) = (   0.0000000   0.3849002   0.0000000), wk =   0.0493827
        k(    8) = (   0.0000000   0.3849002   0.1227147), wk =   0.0987654
        k(    9) = (   0.0000000   0.5132002   0.0000000), wk =   0.0493827
        k(   10) = (   0.0000000   0.5132002   0.1227147), wk =   0.0987654
        k(   11) = (   0.1111111   0.1924501   0.0000000), wk =   0.0493827
        k(   12) = (   0.1111111   0.1924501   0.1227147), wk =   0.0987654
        k(   13) = (   0.1111111   0.3207501   0.0000000), wk =   0.0987654
        k(   14) = (   0.1111111   0.3207501   0.1227147), wk =   0.1975309
        k(   15) = (   0.1111111   0.4490502   0.0000000), wk =   0.0987654
        k(   16) = (   0.1111111   0.4490502   0.1227147), wk =   0.1975309
        k(   17) = (   0.1111111   0.5773503   0.0000000), wk =   0.0493827
        k(   18) = (   0.1111111   0.5773503   0.1227147), wk =   0.0987654
        k(   19) = (   0.2222222   0.3849002   0.0000000), wk =   0.0493827
        k(   20) = (   0.2222222   0.3849002   0.1227147), wk =   0.0987654
        k(   21) = (   0.2222222   0.5132002   0.0000000), wk =   0.0987654
        k(   22) = (   0.2222222   0.5132002   0.1227147), wk =   0.1975309
        k(   23) = (   0.3333333   0.5773503   0.0000000), wk =   0.0164609
        k(   24) = (   0.3333333   0.5773503   0.1227147), wk =   0.0329218

     Dense  grid:    33609 G-vectors     FFT dimensions: (  32,  32,  81)

     Estimated max dynamical RAM per process >      17.07 MB

     Estimated total dynamical RAM >     136.56 MB

     Initial potential from superposition of free atoms

     starting charge      12.9857, renormalised to      13.0000
     Starting wfcs are   10 randomized atomic wfcs +    1 random wfcs

     total cpu time spent up to now is        0.8 secs

     Self-consistent Calculation

     iteration #  1     ecut=    80.00 Ry     beta= 0.70
     Davidson diagonalization with overlap
     ethr =  1.00E-02,  avg # of iterations =  6.7

     Threshold (ethr) on eigenvalues was too large:
     Diagonalizing with lowered threshold

     Davidson diagonalization with overlap
     ethr =  2.86E-04,  avg # of iterations =  2.6

     total cpu time spent up to now is        1.4 secs

     total energy              =     -51.63198171 Ry
     estimated scf accuracy    <       0.03743585 Ry

     iteration #  2     ecut=    80.00 Ry     beta= 0.70
     Davidson diagonalization with overlap
     ethr =  2.88E-04,  avg # of iterations =  3.1

     total cpu time spent up to now is        1.7 secs

     total energy              =     -51.58068431 Ry
     estimated scf accuracy    <       0.56593973 Ry

     iteration #  3     ecut=    80.00 Ry     beta= 0.70
     Davidson diagonalization with overlap
     ethr =  2.88E-04,  avg # of iterations =  2.7

     total cpu time spent up to now is        1.9 secs

     total energy              =     -51.64711843 Ry
     estimated scf accuracy    <       0.01052406 Ry

     iteration #  4     ecut=    80.00 Ry     beta= 0.70
     Davidson diagonalization with overlap
     ethr =  8.10E-05,  avg # of iterations =  1.1

     total cpu time spent up to now is        2.1 secs

     total energy              =     -51.64790946 Ry
     estimated scf accuracy    <       0.00026625 Ry

     iteration #  5     ecut=    80.00 Ry     beta= 0.70
     Davidson diagonalization with overlap
     ethr =  2.05E-06,  avg # of iterations =  5.1

     total cpu time spent up to now is        2.3 secs

     total energy              =     -51.64793468 Ry
     estimated scf accuracy    <       0.00000394 Ry

     iteration #  6     ecut=    80.00 Ry     beta= 0.70
     Davidson diagonalization with overlap
     ethr =  3.03E-08,  avg # of iterations =  2.3

     total cpu time spent up to now is        2.6 secs

     total energy              =     -51.64793567 Ry
     estimated scf accuracy    <       0.00000020 Ry

     iteration #  7     ecut=    80.00 Ry     beta= 0.70
     Davidson diagonalization with overlap
     ethr =  1.51E-09,  avg # of iterations =  1.7

     total cpu time spent up to now is        2.8 secs

     total energy              =     -51.64793569 Ry
     estimated scf accuracy    <       0.00000002 Ry

     iteration #  8     ecut=    80.00 Ry     beta= 0.70
     Davidson diagonalization with overlap
     ethr =  1.19E-10,  avg # of iterations =  1.9

     total cpu time spent up to now is        3.0 secs

     End of self-consistent calculation

          k = 0.0000 0.0000 0.0000 (  4223 PWs)   bands (ev):

   -41.4541 -40.7102 -40.7099  -6.3249   0.6547   1.4393   4.7529   9.1889
    13.9487  13.9487  16.2614

          k = 0.0000 0.0000 0.1227 (  4223 PWs)   bands (ev):

   -41.4541 -40.7115 -40.7086  -6.3247   0.3947   2.1395   3.8745  10.6477
    13.9509  13.9509  13.9982

          k = 0.0000 0.1283 0.0000 (  4247 PWs)   bands (ev):

   -41.4500 -40.7060 -40.7058  -6.0358   0.8615   1.6421   5.0437   9.0678
    11.6522  12.6920  15.6435

          k = 0.0000 0.1283 0.1227 (  4238 PWs)   bands (ev):

   -41.4500 -40.7072 -40.7046  -6.0357   0.5953   2.3576   4.1151  10.3729
    11.8357  12.6979  14.0176

          k = 0.0000 0.2566 0.0000 (  4237 PWs)   bands (ev):

   -41.4397 -40.6956 -40.6954  -5.1723   1.4744   2.2442   5.9080   7.2431
     9.8698  11.1920  13.5521

          k = 0.0000 0.2566 0.1227 (  4257 PWs)   bands (ev):

   -41.4397 -40.6965 -40.6945  -5.1720   1.1944   2.9971   4.7720   7.5876
    11.0660  11.1998  12.8993

          k = 0.0000 0.3849 0.0000 (  4241 PWs)   bands (ev):

   -41.4280 -40.6839 -40.6833  -3.7478   2.4432   3.0241   4.1969   7.2726
     9.2754  10.1462  10.5942

          k = 0.0000 0.3849 0.1227 (  4227 PWs)   bands (ev):

   -41.4280 -40.6843 -40.6829  -3.7472   2.1584   3.5195   4.3220   6.3270
     9.5049  10.1550  11.5816

          k = 0.0000 0.5132 0.0000 (  4231 PWs)   bands (ev):

   -41.4204 -40.6762 -40.6754  -1.8206   0.8663   3.4778   4.6571   7.7188
     7.8627   9.6171   9.8995

          k = 0.0000 0.5132 0.1227 (  4201 PWs)   bands (ev):

   -41.4204 -40.6764 -40.6753  -1.8188   0.8713   3.2526   5.1703   7.3791
     7.8428   9.6265   9.8422

          k = 0.1111 0.1925 0.0000 (  4237 PWs)   bands (ev):

   -41.4428 -40.6987 -40.6986  -5.4595   1.2726   2.0468   5.6220   8.4411
     9.7680  10.7607  14.8784

          k = 0.1111 0.1925 0.1227 (  4247 PWs)   bands (ev):

   -41.4428 -40.6997 -40.6975  -5.4592   0.9963   2.7890   4.5770   9.0701
     9.9751  11.4869  13.9385

          k = 0.1111 0.3208 0.0000 (  4233 PWs)   bands (ev):

   -41.4318 -40.6877 -40.6872  -4.3144   2.0777   2.8295   5.8035   6.7518
     8.1635  10.0750  11.8420

          k = 0.1111 0.3208 0.1227 (  4229 PWs)   bands (ev):

   -41.4318 -40.6883 -40.6867  -4.3139   1.7904   3.6009   5.1189   6.3717
     8.4170  10.7366  12.1652

          k = 0.1111 0.4491 0.0000 (  4226 PWs)   bands (ev):

   -41.4222 -40.6780 -40.6773  -2.6242   2.4003   3.1672   4.2702   7.4378
     8.0470   8.7084   9.6667

          k = 0.1111 0.4491 0.1227 (  4221 PWs)   bands (ev):

   -41.4222 -40.6782 -40.6771  -2.6231   2.4308   2.9079   4.8916   6.8392
     7.7514   8.5369  10.5822

          k = 0.1111 0.5774 0.0000 (  4210 PWs)   bands (ev):

   -41.4184 -40.6742 -40.6733  -0.8168   0.1642   3.8856   5.1492   7.1469
     7.4774   7.5849  10.8128

          k = 0.1111 0.5774 0.1227 (  4211 PWs)   bands (ev):

   -41.4184 -40.6743 -40.6733  -0.8123   0.1639   3.6830   5.5346   7.0769
     7.5267   7.8031   9.9008

          k = 0.2222 0.3849 0.0000 (  4211 PWs)   bands (ev):

   -41.4229 -40.6787 -40.6780  -2.8985   3.0553   3.5974   4.6328   5.2679
     7.9858   9.7538  10.0007

          k = 0.2222 0.3849 0.1227 (  4210 PWs)   bands (ev):

   -41.4229 -40.6790 -40.6778  -2.8976   2.7676   4.0780   4.7610   5.1843
     7.2289   9.4502  10.5206

          k = 0.2222 0.5132 0.0000 (  4200 PWs)   bands (ev):

   -41.4171 -40.6729 -40.6719  -0.9824   1.6766   4.1372   4.1827   5.5850
     7.5714   8.1258  10.4474

          k = 0.2222 0.5132 0.1227 (  4203 PWs)   bands (ev):

   -41.4171 -40.6729 -40.6719  -0.9796   1.6830   3.9284   4.1908   6.0182
     7.5678   8.2382   9.3225

          k = 0.3333 0.5774 0.0000 (  4236 PWs)   bands (ev):

   -41.4150 -40.6709 -40.6698   0.5441   1.7323   1.8558   4.9430   6.7947
     6.9316   7.0774   9.4956

          k = 0.3333 0.5774 0.1227 (  4218 PWs)   bands (ev):

   -41.4150 -40.6708 -40.6699   0.5558   1.7282   1.8569   4.6794   6.8830
     7.0700   7.7271   9.2959

     the Fermi energy is     4.7775 ev

!    total energy              =     -51.64793569 Ry
     estimated scf accuracy    <          9.8E-10 Ry
     smearing contrib. (-TS)   =      -0.00036346 Ry
     internal energy E=F+TS    =     -51.64757223 Ry

     The total energy is F=E-TS. E is the sum of the following terms:
     one-electron contribution =     -21.85579094 Ry
     hartree contribution      =      10.42904582 Ry
     xc contribution           =     -13.39141559 Ry
     ewald contribution        =     -26.82941152 Ry

     convergence has been achieved in   8 iterations

     Forces acting on atoms (cartesian axes, Ry/au):

     atom    1 type  1   force =     0.00000000   -0.00000000   -0.01762692
     atom    2 type  1   force =     0.00000000    0.00000000    0.01762692
     atom    3 type  1   force =     0.00000000    0.00000000    0.00000000
     atom    4 type  2   force =     0.00000000    0.00000000    0.00000000
     The non-local contrib.  to forces
     atom    1 type  1   force =     0.00000000   -0.00000000   -0.04874697
     atom    2 type  1   force =    -0.00000000    0.00000000    0.04874697
     atom    3 type  1   force =     0.00000000    0.00000000    0.00000000
     atom    4 type  2   force =     0.00000000    0.00000000    0.00000000
     The ionic contribution  to forces
     atom    1 type  1   force =    -0.00000000    0.00000000   -1.41638736
     atom    2 type  1   force =    -0.00000000    0.00000000    1.41638736
     atom    3 type  1   force =    -0.00000000    0.00000000    0.00000000
     atom    4 type  2   force =     0.00000001   -0.00000000   -0.00000000
     The local contribution  to forces
     atom    1 type  1   force =    -0.00000000   -0.00000000    1.44754501
     atom    2 type  1   force =    -0.00000000   -0.00000000   -1.44754501
     atom    3 type  1   force =    -0.00000052    0.00000030   -0.00000000
     atom    4 type  2   force =     0.00000000   -0.00000000   -0.00000000
     The core correction contribution to forces
     atom    1 type  1   force =     0.00000000    0.00000000    0.00000000
     atom    2 type  1   force =     0.00000000    0.00000000    0.00000000
     atom    3 type  1   force =     0.00000000    0.00000000    0.00000000
     atom    4 type  2   force =    -0.00000000    0.00000000    0.00000000
     The Hubbard contrib.    to forces
     atom    1 type  1   force =     0.00000000    0.00000000    0.00000000
     atom    2 type  1   force =     0.00000000    0.00000000    0.00000000
     atom    3 type  1   force =     0.00000000    0.00000000    0.00000000
     atom    4 type  2   force =     0.00000000    0.00000000    0.00000000
     The SCF correction term to forces
     atom    1 type  1   force =     0.00000000   -0.00000000   -0.00003761
     atom    2 type  1   force =     0.00000000   -0.00000000    0.00003761
     atom    3 type  1   force =     0.00000000   -0.00000000   -0.00000000
     atom    4 type  2   force =    -0.00000000    0.00000000    0.00000000

     Total force =     0.024928     Total SCF correction =     0.000053


     Computing stress (Cartesian axis) and pressure

          total   stress  (Ry/bohr**3)                   (kbar)     P=      114.03
   0.00055901   0.00000000   0.00000000           82.23        0.00        0.00
   0.00000000   0.00055901   0.00000000            0.00       82.23        0.00
   0.00000000   0.00000000   0.00120750            0.00        0.00      177.63


     BFGS Geometry Optimization
     Energy error            =      0.0E+00 Ry
     Gradient error          =      1.8E-02 Ry/Bohr
     Cell gradient error     =      4.2E+02 kbar

     number of scf cycles    =   1
     number of bfgs steps    =   0

     enthalpy           new  =     -50.4599896212 Ry

     new trust radius        =       0.2654626099 bohr
ibrav =      4
 celldm(1) =      4.92036309
 celldm(3) =      2.76373174
Input lattice vectors:
     0.92900199     0.00000000     0.00000000
    -0.46450100     0.80453932     0.00000000
     0.00000000     0.00000000     2.56751229
New lattice vectors in INITIAL alat:
     0.92900199     0.00000000     0.00000000
    -0.46450100     0.80453932     0.00000000
     0.00000000     0.00000000     2.56751229
New lattice vectors in NEW alat (for information only):
     1.00000000     0.00000000     0.00000000
    -0.50000000     0.86602540     0.00000000
     0.00000000     0.00000000     2.76373174
Discrepancy in bohr =     0.000000    0.000000    0.000000
     new conv_thr            =       0.0000000100 Ry

     new unit-cell volume =    285.11363 a.u.^3 (    42.24948 Ang^3 )
     density =      1.92226 g/cm^3

CELL_PARAMETERS (alat=  5.29639671)
   0.929001991   0.000000000   0.000000000
  -0.464500995   0.804539324   0.000000000
   0.000000000   0.000000000   2.567512287

ATOMIC_POSITIONS (crystal)
Li            0.0000000000       -0.0000000000        0.2674637808
Li            0.0000000000        0.0000000000        0.7325362192
Li            0.6666666700        0.3333333300        0.0000000000
Si            0.3333333300        0.6666666700        0.5000000000



     Writing config-only to output data dir ./output/LiSi.save/
     NEW-OLD atomic charge density approx. for the potential
     extrapolated charge   10.06721, renormalised to   13.00000

     total cpu time spent up to now is        4.3 secs

     Self-consistent Calculation

     iteration #  1     ecut=    80.00 Ry     beta= 0.70
     Davidson diagonalization with overlap
     c_bands:  1 eigenvalues not converged
     ethr =  1.00E-06,  avg # of iterations = 11.0

     total cpu time spent up to now is        4.9 secs

     total energy              =     -50.70186708 Ry
     estimated scf accuracy    <       0.83268279 Ry

     iteration #  2     ecut=    80.00 Ry     beta= 0.70
     Davidson diagonalization with overlap
     ethr =  6.41E-03,  avg # of iterations =  5.0

     total cpu time spent up to now is        5.2 secs

     total energy              =     -50.41303404 Ry
     estimated scf accuracy    <      16.46839867 Ry

     iteration #  3     ecut=    80.00 Ry     beta= 0.70
     Davidson diagonalization with overlap
     ethr =  6.41E-03,  avg # of iterations =  3.1

     total cpu time spent up to now is        5.4 secs

     total energy              =     -51.53516834 Ry
     estimated scf accuracy    <       0.74510204 Ry

     iteration #  4     ecut=    80.00 Ry     beta= 0.70
     Davidson diagonalization with overlap
     ethr =  5.73E-03,  avg # of iterations =  1.5

     total cpu time spent up to now is        5.6 secs

     total energy              =     -51.56731412 Ry
     estimated scf accuracy    <       0.04443821 Ry

     iteration #  5     ecut=    80.00 Ry     beta= 0.70
     Davidson diagonalization with overlap
     ethr =  3.42E-04,  avg # of iterations =  4.2

     total cpu time spent up to now is        5.8 secs

     total energy              =     -51.56673283 Ry
     estimated scf accuracy    <       0.01067509 Ry

     iteration #  6     ecut=    80.00 Ry     beta= 0.70
     Davidson diagonalization with overlap
     ethr =  8.21E-05,  avg # of iterations =  2.2

     total cpu time spent up to now is        6.0 secs

     total energy              =     -51.56743817 Ry
     estimated scf accuracy    <       0.00069598 Ry

     iteration #  7     ecut=    80.00 Ry     beta= 0.70
     Davidson diagonalization with overlap
     ethr =  5.35E-06,  avg # of iterations =  3.9

     total cpu time spent up to now is        6.2 secs

     total energy              =     -51.56747110 Ry
     estimated scf accuracy    <       0.00007360 Ry

     iteration #  8     ecut=    80.00 Ry     beta= 0.70
     Davidson diagonalization with overlap
     ethr =  5.66E-07,  avg # of iterations =  1.8

     total cpu time spent up to now is        6.4 secs

     total energy              =     -51.56748662 Ry
     estimated scf accuracy    <       0.00002315 Ry

     iteration #  9     ecut=    80.00 Ry     beta= 0.70
     Davidson diagonalization with overlap
     ethr =  1.78E-07,  avg # of iterations =  1.0

     total cpu time spent up to now is        6.6 secs

     total energy              =     -51.56748723 Ry
     estimated scf accuracy    <       0.00000372 Ry

     iteration # 10     ecut=    80.00 Ry     beta= 0.70
     Davidson diagonalization with overlap
     ethr =  2.86E-08,  avg # of iterations =  1.0

     total cpu time spent up to now is        6.8 secs

     total energy              =     -51.56748710 Ry
     estimated scf accuracy    <       0.00000093 Ry

     iteration # 11     ecut=    80.00 Ry     beta= 0.70
     Davidson diagonalization with overlap
     ethr =  7.12E-09,  avg # of iterations =  1.3

     total cpu time spent up to now is        7.0 secs

     total energy              =     -51.56748724 Ry
     estimated scf accuracy    <       0.00000003 Ry

     iteration # 12     ecut=    80.00 Ry     beta= 0.70
     Davidson diagonalization with overlap
     ethr =  2.53E-10,  avg # of iterations =  1.5

     total cpu time spent up to now is        7.1 secs

     End of self-consistent calculation

          k = 0.0000 0.0000 0.0000 (  4223 PWs)   bands (ev):

   -39.6468 -38.9887 -38.9847  -6.1055   1.6907   2.8995   6.1205  11.1691
    17.8985  19.0587  19.5531

          k = 0.0000 0.0000 0.1298 (  4223 PWs)   bands (ev):

   -39.6468 -38.9917 -38.9818  -6.1056   1.5239   3.4885   5.2790  12.6222
    16.5547  17.9034  17.9034

          k = 0.0000 0.1381 0.0000 (  4247 PWs)   bands (ev):

   -39.6377 -38.9796 -38.9762  -5.7729   1.9149   3.1048   6.4521  11.0077
    14.7117  15.9909  18.5576

          k = 0.0000 0.1381 0.1298 (  4238 PWs)   bands (ev):

   -39.6376 -38.9824 -38.9735  -5.7730   1.7383   3.7200   5.5417  12.4178
    14.7951  15.9994  16.5093

          k = 0.0000 0.2762 0.0000 (  4237 PWs)   bands (ev):

   -39.6145 -38.9563 -38.9547  -4.7795   2.5814   3.7129   7.4401   9.2714
    12.1278  16.1807  16.6050

          k = 0.0000 0.2762 0.1298 (  4257 PWs)   bands (ev):

   -39.6144 -38.9588 -38.9522  -4.7795   2.3787   4.3988   6.2471   9.8286
    13.2345  15.2561  17.1774

          k = 0.0000 0.4143 0.0000 (  4241 PWs)   bands (ev):

   -39.5880 -38.9301 -38.9298  -3.1387   3.6394   4.4212   5.9713   9.0109
    11.3752  12.8066  14.3003

          k = 0.0000 0.4143 0.1298 (  4227 PWs)   bands (ev):

   -39.5880 -38.9320 -38.9279  -3.1385   3.4087   4.9272   5.9443   8.1662
    11.6523  13.7871  14.6596

          k = 0.0000 0.5524 0.0000 (  4231 PWs)   bands (ev):

   -39.5708 -38.9139 -38.9125  -0.8814   1.9809   4.7723   6.2759   9.7466
     9.8570  11.9713  13.7180

          k = 0.0000 0.5524 0.1298 (  4201 PWs)   bands (ev):

   -39.5708 -38.9145 -38.9119  -0.8802   1.9891   4.5643   6.8010   9.3029
     9.7607  12.0867  13.0660

          k = 0.1196 0.2072 0.0000 (  4237 PWs)   bands (ev):

   -39.6215 -38.9634 -38.9612  -5.1098   2.3620   3.5152   7.1130  10.4252
    12.2729  13.5954  17.7140

          k = 0.1196 0.2072 0.1298 (  4247 PWs)   bands (ev):

   -39.6215 -38.9659 -38.9586  -5.1099   2.1672   4.1790   6.0417  11.4939
    12.3197  14.1031  16.4705

          k = 0.1196 0.3453 0.0000 (  4233 PWs)   bands (ev):

   -39.5967 -38.9385 -38.9381  -3.7921   3.2421   4.2987   7.7558   8.4126
    10.2829  12.4894  14.2081

          k = 0.1196 0.3453 0.1298 (  4229 PWs)   bands (ev):

   -39.5967 -38.9408 -38.9358  -3.7921   3.0189   5.0349   6.6553   8.4629
    10.6726  13.0605  14.5797

          k = 0.1196 0.4834 0.0000 (  4226 PWs)   bands (ev):

   -39.5749 -38.9177 -38.9166  -1.8383   3.7424   4.4432   5.9407   9.5569
     9.9627  10.9193  11.6481

          k = 0.1196 0.4834 0.1298 (  4221 PWs)   bands (ev):

   -39.5749 -38.9186 -38.9157  -1.8378   3.7885   4.2216   6.5103   8.6680
     9.9568  10.5768  12.9204

          k = 0.1196 0.6215 0.0000 (  4210 PWs)   bands (ev):

   -39.5663 -38.9096 -38.9079   0.5351   0.9253   5.2415   6.7522   9.3191
     9.4258   9.6019  12.8908

          k = 0.1196 0.6215 0.1298 (  4211 PWs)   bands (ev):

   -39.5663 -38.9099 -38.9076   0.5397   0.9261   5.0401   7.2105   9.0641
     9.5094   9.7641  12.0909

          k = 0.2392 0.4143 0.0000 (  4211 PWs)   bands (ev):

   -39.5765 -38.9192 -38.9182  -2.1591   4.3295   5.0442   6.5528   6.9772
     9.9076  11.9358  12.0132

          k = 0.2392 0.4143 0.1298 (  4210 PWs)   bands (ev):

   -39.5765 -38.9203 -38.9171  -2.1587   4.0818   5.6010   6.5535   6.7914
     9.2457  11.5624  12.9086

          k = 0.2392 0.5524 0.0000 (  4200 PWs)   bands (ev):

   -39.5633 -38.9068 -38.9049   0.0950   2.9418   5.6221   5.6416   7.4497
     9.3712  10.3002  12.3772

          k = 0.2392 0.5524 0.1298 (  4203 PWs)   bands (ev):

   -39.5633 -38.9069 -38.9048   0.0968   2.9531   5.3651   5.7444   7.8117
     9.4032  10.2790  11.5435

          k = 0.3588 0.6215 0.0000 (  4236 PWs)   bands (ev):

   -39.5588 -38.9025 -38.9004   2.5497   2.5859   2.8000   6.6141   8.2914
     8.8827   9.0930  11.7846

          k = 0.3588 0.6215 0.1298 (  4218 PWs)   bands (ev):

   -39.5588 -38.9024 -38.9005   2.5442   2.6103   2.8023   6.2919   8.4181
     9.0658   9.7811  11.4094

     the Fermi energy is     6.3915 ev

!    total energy              =     -51.56748724 Ry
     estimated scf accuracy    <          6.1E-10 Ry
     smearing contrib. (-TS)   =      -0.00011928 Ry
     internal energy E=F+TS    =     -51.56736797 Ry

     The total energy is F=E-TS. E is the sum of the following terms:
     one-electron contribution =     -19.05884749 Ry
     hartree contribution      =       9.88428081 Ry
     xc contribution           =     -13.63573886 Ry
     ewald contribution        =     -28.75706242 Ry

     convergence has been achieved in  12 iterations

     Forces acting on atoms (cartesian axes, Ry/au):

     atom    1 type  1   force =     0.00000000    0.00000000   -0.04541743
     atom    2 type  1   force =     0.00000000    0.00000000    0.04541743
     atom    3 type  1   force =     0.00000000    0.00000000    0.00000000
     atom    4 type  2   force =     0.00000000    0.00000000    0.00000000
     The non-local contrib.  to forces
     atom    1 type  1   force =     0.00000000    0.00000000   -0.03634054
     atom    2 type  1   force =     0.00000000    0.00000000    0.03634054
     atom    3 type  1   force =     0.00000000    0.00000000    0.00000000
     atom    4 type  2   force =     0.00000000   -0.00000000    0.00000000
     The ionic contribution  to forces
     atom    1 type  1   force =    -0.00000000    0.00000000   -1.59849557
     atom    2 type  1   force =    -0.00000000    0.00000000    1.59849557
     atom    3 type  1   force =    -0.00000000    0.00000000    0.00000000
     atom    4 type  2   force =     0.00000001   -0.00000000    0.00000000
     The local contribution  to forces
     atom    1 type  1   force =    -0.00000000   -0.00000000    1.58945191
     atom    2 type  1   force =    -0.00000000   -0.00000000   -1.58945191
     atom    3 type  1   force =    -0.00000048    0.00000028   -0.00000000
     atom    4 type  2   force =    -0.00000001    0.00000000    0.00000000
     The core correction contribution to forces
     atom    1 type  1   force =     0.00000000    0.00000000    0.00000000
     atom    2 type  1   force =     0.00000000    0.00000000    0.00000000
     atom    3 type  1   force =     0.00000000    0.00000000    0.00000000
     atom    4 type  2   force =    -0.00000000    0.00000000    0.00000000
     The Hubbard contrib.    to forces
     atom    1 type  1   force =     0.00000000    0.00000000    0.00000000
     atom    2 type  1   force =     0.00000000    0.00000000    0.00000000
     atom    3 type  1   force =     0.00000000    0.00000000    0.00000000
     atom    4 type  2   force =     0.00000000    0.00000000    0.00000000
     The SCF correction term to forces
     atom    1 type  1   force =     0.00000000   -0.00000000   -0.00003322
     atom    2 type  1   force =     0.00000000   -0.00000000    0.00003322
     atom    3 type  1   force =     0.00000000   -0.00000000   -0.00000000
     atom    4 type  2   force =    -0.00000000    0.00000000   -0.00000000

     Total force =     0.064230     Total SCF correction =     0.000047


     Computing stress (Cartesian axis) and pressure

          total   stress  (Ry/bohr**3)                   (kbar)     P=      297.65
   0.00168264   0.00000000  -0.00000000          247.52        0.00       -0.00
  -0.00000000   0.00168264  -0.00000000           -0.00      247.52       -0.00
   0.00000000   0.00000000   0.00270483            0.00        0.00      397.89

     Energy error            =      1.4E-01 Ry
     Gradient error          =      4.5E-02 Ry/Bohr
     Cell gradient error     =      2.5E+02 kbar

     number of scf cycles    =   2
     number of bfgs steps    =   1

     enthalpy           old  =     -50.4599896212 Ry
     enthalpy           new  =     -50.5984057223 Ry

     CASE: enthalpy          _new < enthalpy          _old

     new trust radius        =       0.2859296852 bohr
ibrav =      4
 celldm(1) =      4.50376487
 celldm(3) =      2.91181088
Input lattice vectors:
     0.85034508    -0.00000000     0.00000000
    -0.42517254     0.73642044     0.00000000
    -0.00000000    -0.00000000     2.47604405
New lattice vectors in INITIAL alat:
     0.85034508     0.00000000     0.00000000
    -0.42517254     0.73642044     0.00000000
     0.00000000     0.00000000     2.47604405
New lattice vectors in NEW alat (for information only):
     1.00000000     0.00000000     0.00000000
    -0.50000000     0.86602540     0.00000000
     0.00000000     0.00000000     2.91181088
Discrepancy in bohr =     0.000000    0.000000    0.000000
     new conv_thr            =       0.0000000045 Ry

     new unit-cell volume =    230.36735 a.u.^3 (    34.13692 Ang^3 )
     density =      2.37908 g/cm^3

CELL_PARAMETERS (alat=  5.29639671)
   0.850345076   0.000000000   0.000000000
  -0.425172538   0.736420438   0.000000000
   0.000000000   0.000000000   2.476044047

ATOMIC_POSITIONS (crystal)
Li            0.0000000000       -0.0000000000        0.2616331072
Li            0.0000000000        0.0000000000        0.7383668928
Li            0.6666666700        0.3333333300        0.0000000000
Si            0.3333333300        0.6666666700        0.5000000000



     Writing config-only to output data dir ./output/LiSi.save/
     NEW-OLD atomic charge density approx. for the potential
     extrapolated charge    9.91398, renormalised to   13.00000

     total cpu time spent up to now is        8.4 secs

     Self-consistent Calculation

     iteration #  1     ecut=    80.00 Ry     beta= 0.70
     Davidson diagonalization with overlap
     ethr =  1.00E-06,  avg # of iterations =  9.9

     total cpu time spent up to now is        8.9 secs

     total energy              =     -50.52505460 Ry
     estimated scf accuracy    <       0.91829036 Ry

     iteration #  2     ecut=    80.00 Ry     beta= 0.70
     Davidson diagonalization with overlap
     ethr =  7.06E-03,  avg # of iterations =  4.6

     total cpu time spent up to now is        9.2 secs

     total energy              =     -50.09999331 Ry
     estimated scf accuracy    <      16.94297792 Ry

     iteration #  3     ecut=    80.00 Ry     beta= 0.70
     Davidson diagonalization with overlap
     ethr =  7.06E-03,  avg # of iterations =  3.4

     total cpu time spent up to now is        9.4 secs

     total energy              =     -51.38482634 Ry
     estimated scf accuracy    <       0.53415555 Ry

     iteration #  4     ecut=    80.00 Ry     beta= 0.70
     Davidson diagonalization with overlap
     ethr =  4.11E-03,  avg # of iterations =  1.9

     total cpu time spent up to now is        9.6 secs

     total energy              =     -51.41703673 Ry
     estimated scf accuracy    <       0.01659611 Ry

     iteration #  5     ecut=    80.00 Ry     beta= 0.70
     Davidson diagonalization with overlap
     ethr =  1.28E-04,  avg # of iterations =  4.1

     total cpu time spent up to now is        9.8 secs

     total energy              =     -51.41820606 Ry
     estimated scf accuracy    <       0.00100794 Ry

     iteration #  6     ecut=    80.00 Ry     beta= 0.70
     Davidson diagonalization with overlap
     ethr =  7.75E-06,  avg # of iterations =  2.8

     total cpu time spent up to now is       10.0 secs

     total energy              =     -51.41800849 Ry
     estimated scf accuracy    <       0.00094930 Ry

     iteration #  7     ecut=    80.00 Ry     beta= 0.70
     Davidson diagonalization with overlap
     ethr =  7.30E-06,  avg # of iterations =  1.5

     total cpu time spent up to now is       10.2 secs

     total energy              =     -51.41813543 Ry
     estimated scf accuracy    <       0.00016190 Ry

     iteration #  8     ecut=    80.00 Ry     beta= 0.70
     Davidson diagonalization with overlap
     ethr =  1.25E-06,  avg # of iterations =  1.1

     total cpu time spent up to now is       10.3 secs

     total energy              =     -51.41815286 Ry
     estimated scf accuracy    <       0.00000312 Ry

     iteration #  9     ecut=    80.00 Ry     beta= 0.70
     Davidson diagonalization with overlap
     ethr =  2.40E-08,  avg # of iterations =  1.3

     total cpu time spent up to now is       10.5 secs

     total energy              =     -51.41815328 Ry
     estimated scf accuracy    <       0.00000011 Ry

     iteration # 10     ecut=    80.00 Ry     beta= 0.70
     Davidson diagonalization with overlap
     ethr =  8.74E-10,  avg # of iterations =  1.8

     total cpu time spent up to now is       10.7 secs

     End of self-consistent calculation

          k = 0.0000 0.0000 0.0000 (  4223 PWs)   bands (ev):

   -37.5642 -37.0497 -37.0202  -5.8517   2.8455   4.8269   7.5052  13.1670
    22.1241  22.6003  24.4197

          k = 0.0000 0.0000 0.1346 (  4223 PWs)   bands (ev):

   -37.5640 -37.0543 -37.0158  -5.8518   2.7986   5.1794   6.8838  14.3554
    19.1700  22.6072  22.6073

          k = 0.0000 0.1509 0.0000 (  4247 PWs)   bands (ev):

   -37.5411 -37.0285 -37.0024  -5.4578   3.1093   5.0249   7.8778  13.0484
    18.5958  21.9549  23.5276

          k = 0.0000 0.1509 0.1346 (  4238 PWs)   bands (ev):

   -37.5408 -37.0328 -36.9983  -5.4579   3.0529   5.4139   7.1722  14.3176
    18.5035  19.1754  20.5673

          k = 0.0000 0.3018 0.0000 (  4237 PWs)   bands (ev):

   -37.4822 -36.9747 -36.9573  -4.2840   3.8915   5.6155   8.9925  11.8209
    14.7199  19.6348  20.1809

          k = 0.0000 0.3018 0.1346 (  4257 PWs)   bands (ev):

   -37.4821 -36.9783 -36.9538  -4.2841   3.8038   6.1158   7.9542  12.6767
    15.4851  17.9307  18.5566

          k = 0.0000 0.4526 0.0000 (  4241 PWs)   bands (ev):

   -37.4150 -36.9131 -36.9056  -2.3559   5.1347   6.2986   8.3057  10.7671
    13.6110  15.7204  17.5825

          k = 0.0000 0.4526 0.1346 (  4227 PWs)   bands (ev):

   -37.4149 -36.9159 -36.9028  -2.3560   4.9935   6.8228   7.9242  10.3038
    14.1470  16.2580  17.8698

          k = 0.0000 0.6035 0.0000 (  4231 PWs)   bands (ev):

   -37.3709 -36.8727 -36.8717   0.2536   3.7028   6.4866   8.2606  11.7860
    12.2805  14.4775  16.6308

          k = 0.0000 0.6035 0.1346 (  4201 PWs)   bands (ev):

   -37.3709 -36.8751 -36.8693   0.2541   3.7129   6.3070   8.7739  11.3596
    11.9503  14.9441  15.9571

          k = 0.1307 0.2263 0.0000 (  4237 PWs)   bands (ev):

   -37.5000 -36.9910 -36.9709  -4.6738   3.6342   5.4244   8.6237  12.6609
    15.5158  17.5571  21.5679

          k = 0.1307 0.2263 0.1346 (  4247 PWs)   bands (ev):

   -37.4999 -36.9948 -36.9673  -4.6740   3.5573   5.8868   7.7223  13.9957
    15.5218  17.5686  19.1617

          k = 0.1307 0.3772 0.0000 (  4233 PWs)   bands (ev):

   -37.4370 -36.9333 -36.9225  -3.1219   4.6674   6.1941  10.1008  10.3177
    13.0017  15.6455  17.4252

          k = 0.1307 0.3772 0.1346 (  4229 PWs)   bands (ev):

   -37.4369 -36.9363 -36.9195  -3.1221   4.5469   6.7976   8.5041  11.0908
    13.6995  15.8680  17.6373

          k = 0.1307 0.5281 0.0000 (  4226 PWs)   bands (ev):

   -37.3814 -36.8822 -36.8796  -0.8399   5.6649   6.0911   8.0193  11.9413
    12.3467  13.7811  14.2750

          k = 0.1307 0.5281 0.1346 (  4221 PWs)   bands (ev):

   -37.3814 -36.8847 -36.8771  -0.8399   5.7217   5.9399   8.4481  10.7938
    12.8713  13.2318  15.8118

          k = 0.1307 0.6790 0.0000 (  4210 PWs)   bands (ev):

   -37.3594 -36.8626 -36.8620   1.6801   2.7036   7.0652   8.7398  11.5668
    11.8753  12.6973  15.3382

          k = 0.1307 0.6790 0.1346 (  4211 PWs)   bands (ev):

   -37.3594 -36.8644 -36.8602   1.6817   2.7070   6.8711   9.2782  11.4487
    11.6075  12.6698  14.7935

          k = 0.2613 0.4526 0.0000 (  4211 PWs)   bands (ev):

   -37.3857 -36.8860 -36.8827  -1.2113   5.9562   6.9613   8.7212   9.8484
    11.8992  14.6401  14.6507

          k = 0.2613 0.4526 0.1346 (  4210 PWs)   bands (ev):

   -37.3856 -36.8886 -36.8802  -1.2114   5.7826   7.5157   8.6398   9.3051
    11.7458  14.4535  15.5832

          k = 0.2613 0.6035 0.0000 (  4200 PWs)   bands (ev):

   -37.3522 -36.8565 -36.8552   1.3786   4.7745   7.5430   7.9149   9.8800
    11.7282  12.9944  14.4607

          k = 0.2613 0.6035 0.1346 (  4203 PWs)   bands (ev):

   -37.3522 -36.8575 -36.8542   1.3791   4.7871   7.3068   8.1398  10.0164
    11.7664  12.6850  14.3298

          k = 0.3920 0.6790 0.0000 (  4236 PWs)   bands (ev):

   -37.3407 -36.8474 -36.8445   3.7833   4.1000   5.4943   8.9639  10.2470
    11.3529  11.6606  14.3664

          k = 0.3920 0.6790 0.1346 (  4218 PWs)   bands (ev):

   -37.3407 -36.8471 -36.8448   3.7772   4.1037   5.5450   8.5582  10.4049
    11.5860  12.3364  13.8120

     the Fermi energy is     8.3403 ev

!    total energy              =     -51.41815330 Ry
     estimated scf accuracy    <          2.9E-09 Ry
     smearing contrib. (-TS)   =       0.00026969 Ry
     internal energy E=F+TS    =     -51.41842299 Ry

     The total energy is F=E-TS. E is the sum of the following terms:
     one-electron contribution =     -15.55460188 Ry
     hartree contribution      =       9.16730112 Ry
     xc contribution           =     -13.92444591 Ry
     ewald contribution        =     -31.10667631 Ry

     convergence has been achieved in  10 iterations

     Forces acting on atoms (cartesian axes, Ry/au):

     atom    1 type  1   force =    -0.00000000   -0.00000000   -0.05901371
     atom    2 type  1   force =    -0.00000000   -0.00000000    0.05901371
     atom    3 type  1   force =     0.00000000    0.00000000    0.00000000
     atom    4 type  2   force =     0.00000000    0.00000000    0.00000000
     The non-local contrib.  to forces
     atom    1 type  1   force =     0.00000000   -0.00000000   -0.01473883
     atom    2 type  1   force =     0.00000000   -0.00000000    0.01473883
     atom    3 type  1   force =     0.00000000    0.00000000    0.00000000
     atom    4 type  2   force =     0.00000000    0.00000000    0.00000000
     The ionic contribution  to forces
     atom    1 type  1   force =    -0.00000000    0.00000000   -1.63742468
     atom    2 type  1   force =    -0.00000000    0.00000000    1.63742468
     atom    3 type  1   force =    -0.00000000    0.00000000    0.00000000
     atom    4 type  2   force =     0.00000001   -0.00000000    0.00000000
     The local contribution  to forces
     atom    1 type  1   force =     0.00000000   -0.00000000    1.59307044
     atom    2 type  1   force =     0.00000000   -0.00000000   -1.59307044
     atom    3 type  1   force =    -0.00000044    0.00000025   -0.00000000
     atom    4 type  2   force =    -0.00000001    0.00000001   -0.00000000
     The core correction contribution to forces
     atom    1 type  1   force =     0.00000000    0.00000000    0.00000000
     atom    2 type  1   force =     0.00000000    0.00000000    0.00000000
     atom    3 type  1   force =     0.00000000    0.00000000    0.00000000
     atom    4 type  2   force =    -0.00000000    0.00000000   -0.00000000
     The Hubbard contrib.    to forces
     atom    1 type  1   force =     0.00000000    0.00000000    0.00000000
     atom    2 type  1   force =     0.00000000    0.00000000    0.00000000
     atom    3 type  1   force =     0.00000000    0.00000000    0.00000000
     atom    4 type  2   force =     0.00000000    0.00000000    0.00000000
     The SCF correction term to forces
     atom    1 type  1   force =    -0.00000000    0.00000000    0.00007936
     atom    2 type  1   force =    -0.00000000    0.00000000   -0.00007936
     atom    3 type  1   force =     0.00000000   -0.00000000    0.00000000
     atom    4 type  2   force =     0.00000000   -0.00000000   -0.00000000

     Total force =     0.083458     Total SCF correction =     0.000112


     Computing stress (Cartesian axis) and pressure

          total   stress  (Ry/bohr**3)                   (kbar)     P=      641.14
   0.00410142   0.00000000   0.00000000          603.34        0.00        0.00
   0.00000000   0.00410142  -0.00000000            0.00      603.34       -0.00
   0.00000000   0.00000000   0.00487240            0.00        0.00      716.75

     Energy error            =      3.7E-02 Ry
     Gradient error          =      5.9E-02 Ry/Bohr
     Cell gradient error     =      2.2E+02 kbar

     number of scf cycles    =   3
     number of bfgs steps    =   2

     enthalpy           old  =     -50.5984057223 Ry
     enthalpy           new  =     -50.6351505959 Ry

     CASE: enthalpy          _new < enthalpy          _old

     new trust radius        =       0.0681717923 bohr
ibrav =      4
 celldm(1) =      4.58073289
 celldm(3) =      2.92717868
Input lattice vectors:
     0.86487722     0.00000000     0.00000000
    -0.43243861     0.74900565     0.00000000
    -0.00000000    -0.00000000     2.53165017
New lattice vectors in INITIAL alat:
     0.86487722     0.00000000     0.00000000
    -0.43243861     0.74900565     0.00000000
     0.00000000     0.00000000     2.53165017
New lattice vectors in NEW alat (for information only):
     1.00000000     0.00000000     0.00000000
    -0.50000000     0.86602540     0.00000000
     0.00000000     0.00000000     2.92717868
Discrepancy in bohr =     0.000000    0.000000    0.000000
     new conv_thr            =       0.0000000059 Ry

     new unit-cell volume =    243.66030 a.u.^3 (    36.10673 Ang^3 )
     density =      2.24929 g/cm^3

CELL_PARAMETERS (alat=  5.29639671)
   0.864877224   0.000000000   0.000000000
  -0.432438612   0.749005647   0.000000000
   0.000000000   0.000000000   2.531650170

ATOMIC_POSITIONS (crystal)
Li            0.0000000000       -0.0000000000        0.2593818549
Li            0.0000000000        0.0000000000        0.7406181451
Li            0.6666666700        0.3333333300        0.0000000000
Si            0.3333333300        0.6666666700        0.5000000000



     Writing config-only to output data dir ./output/LiSi.save/
     NEW-OLD atomic charge density approx. for the potential
     extrapolated charge   13.70844, renormalised to   13.00000

     total cpu time spent up to now is       11.9 secs

     Self-consistent Calculation

     iteration #  1     ecut=    80.00 Ry     beta= 0.70
     Davidson diagonalization with overlap
     ethr =  1.00E-06,  avg # of iterations =  7.2

     total cpu time spent up to now is       12.3 secs

     total energy              =     -51.32375966 Ry
     estimated scf accuracy    <       0.16237130 Ry

     iteration #  2     ecut=    80.00 Ry     beta= 0.70
     Davidson diagonalization with overlap
     ethr =  1.25E-03,  avg # of iterations =  3.6

     total cpu time spent up to now is       12.6 secs

     total energy              =     -51.20369532 Ry
     estimated scf accuracy    <       3.34161142 Ry

     iteration #  3     ecut=    80.00 Ry     beta= 0.70
     Davidson diagonalization with overlap
     ethr =  1.25E-03,  avg # of iterations =  2.6

     total cpu time spent up to now is       12.8 secs

     total energy              =     -51.47733437 Ry
     estimated scf accuracy    <       0.10990827 Ry

     iteration #  4     ecut=    80.00 Ry     beta= 0.70
     Davidson diagonalization with overlap
     ethr =  8.45E-04,  avg # of iterations =  1.0

     total cpu time spent up to now is       13.0 secs

     total energy              =     -51.47512097 Ry
     estimated scf accuracy    <       0.04153692 Ry

     iteration #  5     ecut=    80.00 Ry     beta= 0.70
     Davidson diagonalization with overlap
     ethr =  3.20E-04,  avg # of iterations =  1.4

     total cpu time spent up to now is       13.1 secs

     total energy              =     -51.47371918 Ry
     estimated scf accuracy    <       0.01698030 Ry

     iteration #  6     ecut=    80.00 Ry     beta= 0.70
     Davidson diagonalization with overlap
     ethr =  1.31E-04,  avg # of iterations =  1.7

     total cpu time spent up to now is       13.3 secs

     total energy              =     -51.47409207 Ry
     estimated scf accuracy    <       0.00349893 Ry

     iteration #  7     ecut=    80.00 Ry     beta= 0.70
     Davidson diagonalization with overlap
     ethr =  2.69E-05,  avg # of iterations =  2.5

     total cpu time spent up to now is       13.5 secs

     total energy              =     -51.47351527 Ry
     estimated scf accuracy    <       0.00244268 Ry

     iteration #  8     ecut=    80.00 Ry     beta= 0.70
     Davidson diagonalization with overlap
     ethr =  1.88E-05,  avg # of iterations =  1.7

     total cpu time spent up to now is       13.7 secs

     total energy              =     -51.47389330 Ry
     estimated scf accuracy    <       0.00038821 Ry

     iteration #  9     ecut=    80.00 Ry     beta= 0.70
     Davidson diagonalization with overlap
     ethr =  2.99E-06,  avg # of iterations =  1.9

     total cpu time spent up to now is       13.8 secs

     total energy              =     -51.47389757 Ry
     estimated scf accuracy    <       0.00031055 Ry

     iteration # 10     ecut=    80.00 Ry     beta= 0.70
     Davidson diagonalization with overlap
     ethr =  2.39E-06,  avg # of iterations =  1.0

     total cpu time spent up to now is       14.0 secs

     total energy              =     -51.47385695 Ry
     estimated scf accuracy    <       0.00035051 Ry

     iteration # 11     ecut=    80.00 Ry     beta= 0.70
     Davidson diagonalization with overlap
     ethr =  2.39E-06,  avg # of iterations =  1.0

     total cpu time spent up to now is       14.1 secs

     total energy              =     -51.47386617 Ry
     estimated scf accuracy    <       0.00003521 Ry

     iteration # 12     ecut=    80.00 Ry     beta= 0.70
     Davidson diagonalization with overlap
     ethr =  2.71E-07,  avg # of iterations =  1.0

     total cpu time spent up to now is       14.3 secs

     total energy              =     -51.47386681 Ry
     estimated scf accuracy    <       0.00000491 Ry

     iteration # 13     ecut=    80.00 Ry     beta= 0.70
     Davidson diagonalization with overlap
     ethr =  3.78E-08,  avg # of iterations =  1.0

     total cpu time spent up to now is       14.5 secs

     total energy              =     -51.47386676 Ry
     estimated scf accuracy    <       0.00000090 Ry

     iteration # 14     ecut=    80.00 Ry     beta= 0.70
     Davidson diagonalization with overlap
     ethr =  6.90E-09,  avg # of iterations =  1.1

     total cpu time spent up to now is       14.6 secs

     total energy              =     -51.47386686 Ry
     estimated scf accuracy    <       0.00000006 Ry

     iteration # 15     ecut=    80.00 Ry     beta= 0.70
     Davidson diagonalization with overlap
     ethr =  4.60E-10,  avg # of iterations =  1.2

     total cpu time spent up to now is       14.8 secs

     End of self-consistent calculation

          k = 0.0000 0.0000 0.0000 (  4223 PWs)   bands (ev):

   -38.0775 -37.5694 -37.5459  -6.0399   2.3602   4.2802   6.9744  12.3342
    21.0528  21.7923  23.1378

          k = 0.0000 0.0000 0.1317 (  4223 PWs)   bands (ev):

   -38.0774 -37.5725 -37.5430  -6.0400   2.3092   4.6303   6.3578  13.4917
    18.1629  21.7994  21.7994

          k = 0.0000 0.1483 0.0000 (  4247 PWs)   bands (ev):

   -38.0580 -37.5515 -37.5306  -5.6554   2.6276   4.4822   7.3344  12.2557
    17.7496  20.9171  22.4462

          k = 0.0000 0.1483 0.1317 (  4238 PWs)   bands (ev):

   -38.0579 -37.5543 -37.5279  -5.6555   2.5673   4.8660   6.6404  13.4906
    17.6179  18.2449  19.6388

          k = 0.0000 0.2967 0.0000 (  4237 PWs)   bands (ev):

   -38.0083 -37.5059 -37.4919  -4.5090   3.4203   5.0857   8.4105  11.1850
    13.8884  17.6423  18.8155

          k = 0.0000 0.2967 0.1317 (  4257 PWs)   bands (ev):

   -38.0083 -37.5083 -37.4896  -4.5091   3.3294   5.5726   7.4138  11.9958
    14.6493  17.0835  17.6527

          k = 0.0000 0.4450 0.0000 (  4241 PWs)   bands (ev):

   -37.9517 -37.4538 -37.4476  -2.6229   4.6813   5.8248   7.7232  10.1233
    12.8426  14.9872  16.7671

          k = 0.0000 0.4450 0.1317 (  4227 PWs)   bands (ev):

   -37.9517 -37.4557 -37.4458  -2.6230   4.5378   6.3515   7.3684   9.6245
    13.4197  15.4935  17.0210

          k = 0.0000 0.5934 0.0000 (  4231 PWs)   bands (ev):

   -37.9146 -37.4196 -37.4186  -0.0566   3.2800   6.0645   7.7109  11.1084
    11.5334  13.7088  15.9009

          k = 0.0000 0.5934 0.1317 (  4201 PWs)   bands (ev):

   -37.9146 -37.4212 -37.4170  -0.0561   3.2893   5.8825   8.2188  10.6716
    11.2614  14.1325  15.1985

          k = 0.1285 0.2225 0.0000 (  4237 PWs)   bands (ev):

   -38.0234 -37.5197 -37.5036  -4.8899   3.1593   4.8895   8.0544  11.9513
    14.8093  16.5454  20.7208

          k = 0.1285 0.2225 0.1317 (  4247 PWs)   bands (ev):

   -38.0233 -37.5222 -37.5012  -4.8900   3.0789   5.3412   7.1817  13.2423
    14.8189  16.5954  18.1549

          k = 0.1285 0.3709 0.0000 (  4233 PWs)   bands (ev):

   -37.9703 -37.4708 -37.4621  -3.3728   4.2046   5.6790   9.4794   9.7333
    12.3227  14.7013  16.6852

          k = 0.1285 0.3709 0.1317 (  4229 PWs)   bands (ev):

   -37.9702 -37.4729 -37.4601  -3.3730   4.0815   6.2637   7.9739  10.4329
    12.9861  15.0229  16.7812

          k = 0.1285 0.5192 0.0000 (  4226 PWs)   bands (ev):

   -37.9235 -37.4277 -37.4253  -1.1369   5.2261   5.6459   7.4446  11.2611
    11.6993  12.9475  13.5820

          k = 0.1285 0.5192 0.1317 (  4221 PWs)   bands (ev):

   -37.9234 -37.4293 -37.4237  -1.1369   5.2787   5.4917   7.8774  10.1546
    12.1779  12.4957  14.9936

          k = 0.1285 0.6676 0.0000 (  4210 PWs)   bands (ev):

   -37.9049 -37.4108 -37.4106   1.3981   2.2414   6.6434   8.2055  10.9045
    11.1955  11.9210  14.5597

          k = 0.1285 0.6676 0.1317 (  4211 PWs)   bands (ev):

   -37.9049 -37.4122 -37.4092   1.3995   2.2448   6.4478   8.7250  10.8244
    10.9457  11.9005  13.9654

          k = 0.2569 0.4450 0.0000 (  4211 PWs)   bands (ev):

   -37.9270 -37.4309 -37.4280  -1.5024   5.4990   6.4916   8.2198   9.1512
    11.2103  13.7821  14.0175

          k = 0.2569 0.4450 0.1317 (  4210 PWs)   bands (ev):

   -37.9270 -37.4326 -37.4263  -1.5024   5.3238   7.0569   8.1126   8.6866
    10.9642  13.7992  14.7687

          k = 0.2569 0.5934 0.0000 (  4200 PWs)   bands (ev):

   -37.8988 -37.4056 -37.4048   1.0459   4.3445   7.0848   7.4034   9.2152
    11.1438  12.2302  13.7359

          k = 0.2569 0.5934 0.1317 (  4203 PWs)   bands (ev):

   -37.8988 -37.4064 -37.4041   1.0465   4.3563   6.8487   7.5995   9.4113
    11.1735  11.9187  13.5650

          k = 0.3854 0.6676 0.0000 (  4236 PWs)   bands (ev):

   -37.8891 -37.3978 -37.3958   3.4808   3.7221   4.8814   8.4418   9.7882
    10.6591  11.0116  13.5461

          k = 0.3854 0.6676 0.1317 (  4218 PWs)   bands (ev):

   -37.8891 -37.3975 -37.3961   3.4755   3.7250   4.9225   8.0549   9.9399
    10.9496  11.6228  13.0446

     the Fermi energy is     7.7864 ev

!    total energy              =     -51.47386687 Ry
     estimated scf accuracy    <          9.8E-10 Ry
     smearing contrib. (-TS)   =       0.00036109 Ry
     internal energy E=F+TS    =     -51.47422796 Ry

     The total energy is F=E-TS. E is the sum of the following terms:
     one-electron contribution =     -16.24415556 Ry
     hartree contribution      =       9.22841484 Ry
     xc contribution           =     -13.83875326 Ry
     ewald contribution        =     -30.61973398 Ry

     convergence has been achieved in  15 iterations

     Forces acting on atoms (cartesian axes, Ry/au):

     atom    1 type  1   force =    -0.00000000   -0.00000000   -0.03899395
     atom    2 type  1   force =     0.00000000   -0.00000000    0.03899395
     atom    3 type  1   force =     0.00000000    0.00000000    0.00000000
     atom    4 type  2   force =     0.00000000    0.00000000    0.00000000
     The non-local contrib.  to forces
     atom    1 type  1   force =     0.00000000    0.00000000   -0.01712170
     atom    2 type  1   force =     0.00000000    0.00000000    0.01712170
     atom    3 type  1   force =     0.00000000    0.00000000    0.00000000
     atom    4 type  2   force =     0.00000000   -0.00000000    0.00000000
     The ionic contribution  to forces
     atom    1 type  1   force =    -0.00000000    0.00000000   -1.47329359
     atom    2 type  1   force =    -0.00000000    0.00000000    1.47329359
     atom    3 type  1   force =    -0.00000000    0.00000000    0.00000000
     atom    4 type  2   force =     0.00000001   -0.00000000    0.00000000
     The local contribution  to forces
     atom    1 type  1   force =    -0.00000000   -0.00000000    1.45146076
     atom    2 type  1   force =    -0.00000000   -0.00000000   -1.45146076
     atom    3 type  1   force =    -0.00000045    0.00000026   -0.00000000
     atom    4 type  2   force =    -0.00000001    0.00000001   -0.00000000
     The core correction contribution to forces
     atom    1 type  1   force =     0.00000000    0.00000000    0.00000000
     atom    2 type  1   force =     0.00000000    0.00000000    0.00000000
     atom    3 type  1   force =     0.00000000    0.00000000    0.00000000
     atom    4 type  2   force =    -0.00000000    0.00000000   -0.00000000
     The Hubbard contrib.    to forces
     atom    1 type  1   force =     0.00000000    0.00000000    0.00000000
     atom    2 type  1   force =     0.00000000    0.00000000    0.00000000
     atom    3 type  1   force =     0.00000000    0.00000000    0.00000000
     atom    4 type  2   force =     0.00000000    0.00000000    0.00000000
     The SCF correction term to forces
     atom    1 type  1   force =    -0.00000000    0.00000000   -0.00003942
     atom    2 type  1   force =    -0.00000000    0.00000000    0.00003942
     atom    3 type  1   force =    -0.00000000    0.00000000    0.00000000
     atom    4 type  2   force =    -0.00000000    0.00000000    0.00000000

     Total force =     0.055146     Total SCF correction =     0.000056


     Computing stress (Cartesian axis) and pressure

          total   stress  (Ry/bohr**3)                   (kbar)     P=      519.10
   0.00331659   0.00000000   0.00000000          487.89        0.00        0.00
   0.00000000   0.00331659   0.00000000            0.00      487.89        0.00
   0.00000000  -0.00000000   0.00395312            0.00       -0.00      581.52

     Energy error            =      1.1E-02 Ry
     Gradient error          =      3.9E-02 Ry/Bohr
     Cell gradient error     =      8.2E+01 kbar

     number of scf cycles    =   4
     number of bfgs steps    =   3

     enthalpy           old  =     -50.6351505959 Ry
     enthalpy           new  =     -50.6456823508 Ry

     CASE: enthalpy          _new < enthalpy          _old

     new trust radius        =       0.0654018765 bohr
ibrav =      4
 celldm(1) =      4.55675550
 celldm(3) =      2.99989654
Input lattice vectors:
     0.86035011     0.00000000     0.00000000
    -0.43017506     0.74508505    -0.00000000
     0.00000000     0.00000000     2.58096132
New lattice vectors in INITIAL alat:
     0.86035011     0.00000000     0.00000000
    -0.43017506     0.74508505     0.00000000
     0.00000000     0.00000000     2.58096132
New lattice vectors in NEW alat (for information only):
     1.00000000     0.00000000     0.00000000
    -0.50000000     0.86602540     0.00000000
     0.00000000     0.00000000     2.99989654
Discrepancy in bohr =     0.000000    0.000000    0.000000
     new conv_thr            =       0.0000000039 Ry

     new unit-cell volume =    245.81257 a.u.^3 (    36.42566 Ang^3 )
     density =      2.22959 g/cm^3

CELL_PARAMETERS (alat=  5.29639671)
   0.860350111   0.000000000   0.000000000
  -0.430175056   0.745085052   0.000000000
   0.000000000   0.000000000   2.580961319

ATOMIC_POSITIONS (crystal)
Li           -0.0000000000       -0.0000000000        0.2545042569
Li            0.0000000000        0.0000000000        0.7454957431
Li            0.6666666700        0.3333333300        0.0000000000
Si            0.3333333300        0.6666666700        0.5000000000



     Writing config-only to output data dir ./output/LiSi.save/
     NEW-OLD atomic charge density approx. for the potential
     extrapolated charge   13.11370, renormalised to   13.00000

     total cpu time spent up to now is       15.9 secs

     Self-consistent Calculation

     iteration #  1     ecut=    80.00 Ry     beta= 0.70
     Davidson diagonalization with overlap
     ethr =  1.00E-06,  avg # of iterations =  6.6

     total cpu time spent up to now is       16.3 secs

     total energy              =     -51.43683000 Ry
     estimated scf accuracy    <       0.06276137 Ry

     iteration #  2     ecut=    80.00 Ry     beta= 0.70
     Davidson diagonalization with overlap
     ethr =  4.83E-04,  avg # of iterations =  3.7

     total cpu time spent up to now is       16.5 secs

     total energy              =     -51.39146867 Ry
     estimated scf accuracy    <       1.22166468 Ry

     iteration #  3     ecut=    80.00 Ry     beta= 0.70
     Davidson diagonalization with overlap
     ethr =  4.83E-04,  avg # of iterations =  2.6

     total cpu time spent up to now is       16.7 secs

     total energy              =     -51.48624735 Ry
     estimated scf accuracy    <       0.02773526 Ry

     iteration #  4     ecut=    80.00 Ry     beta= 0.70
     Davidson diagonalization with overlap
     ethr =  2.13E-04,  avg # of iterations =  1.2

     total cpu time spent up to now is       16.9 secs

     total energy              =     -51.48669575 Ry
     estimated scf accuracy    <       0.00372299 Ry

     iteration #  5     ecut=    80.00 Ry     beta= 0.70
     Davidson diagonalization with overlap
     ethr =  2.86E-05,  avg # of iterations =  2.8

     total cpu time spent up to now is       17.0 secs

     total energy              =     -51.48687950 Ry
     estimated scf accuracy    <       0.00013644 Ry

     iteration #  6     ecut=    80.00 Ry     beta= 0.70
     Davidson diagonalization with overlap
     ethr =  1.05E-06,  avg # of iterations =  3.1

     total cpu time spent up to now is       17.2 secs

     total energy              =     -51.48686636 Ry
     estimated scf accuracy    <       0.00011228 Ry

     iteration #  7     ecut=    80.00 Ry     beta= 0.70
     Davidson diagonalization with overlap
     ethr =  8.64E-07,  avg # of iterations =  1.1

     total cpu time spent up to now is       17.4 secs

     total energy              =     -51.48687353 Ry
     estimated scf accuracy    <       0.00000029 Ry

     iteration #  8     ecut=    80.00 Ry     beta= 0.70
     Davidson diagonalization with overlap
     ethr =  2.25E-09,  avg # of iterations =  2.2

     total cpu time spent up to now is       17.6 secs

     total energy              =     -51.48687360 Ry
     estimated scf accuracy    <       0.00000039 Ry

     iteration #  9     ecut=    80.00 Ry     beta= 0.70
     Davidson diagonalization with overlap
     ethr =  2.25E-09,  avg # of iterations =  1.0

     total cpu time spent up to now is       17.7 secs

     End of self-consistent calculation

          k = 0.0000 0.0000 0.0000 (  4223 PWs)   bands (ev):

   -38.0470 -37.6610 -37.6262  -6.2422   2.0671   4.2469   6.7720  11.8188
    20.4817  21.9991  22.2670

          k = 0.0000 0.0000 0.1292 (  4223 PWs)   bands (ev):

   -38.0468 -37.6629 -37.6244  -6.2422   2.0360   4.5335   6.2254  12.8396
    17.7056  22.0047  22.0047

          k = 0.0000 0.1491 0.0000 (  4247 PWs)   bands (ev):

   -38.0257 -37.6424 -37.6114  -5.8502   2.3536   4.4498   7.1257  11.8037
    17.8212  20.4785  21.8682

          k = 0.0000 0.1491 0.1292 (  4238 PWs)   bands (ev):

   -38.0255 -37.6443 -37.6096  -5.8503   2.3153   4.7670   6.5063  12.9170
    17.4095  18.0880  19.8476

          k = 0.0000 0.2983 0.0000 (  4237 PWs)   bands (ev):

   -37.9715 -37.5953 -37.5737  -4.6816   3.2019   5.0580   8.1832  11.0793
    13.6350  17.8484  18.8328

          k = 0.0000 0.2983 0.1292 (  4257 PWs)   bands (ev):

   -37.9714 -37.5968 -37.5723  -4.6817   3.1381   5.4725   7.2832  11.9354
    14.2547  16.7774  17.8570

          k = 0.0000 0.4474 0.0000 (  4241 PWs)   bands (ev):

   -37.9094 -37.5414 -37.5309  -2.7600   4.5526   5.8370   7.7016   9.8627
    12.5258  14.9748  16.7531

          k = 0.0000 0.4474 0.1292 (  4227 PWs)   bands (ev):

   -37.9093 -37.5426 -37.5298  -2.7601   4.4380   6.3403   7.2992   9.4299
    13.2402  15.2531  16.9475

          k = 0.0000 0.5965 0.0000 (  4231 PWs)   bands (ev):

   -37.8686 -37.5061 -37.5029  -0.1495   3.2697   6.0594   7.6686  10.8440
    11.3282  13.5355  15.8868

          k = 0.0000 0.5965 0.1292 (  4201 PWs)   bands (ev):

   -37.8685 -37.5071 -37.5020  -0.1491   3.2777   5.8906   8.1594  10.4150
    11.0562  13.9945  15.1768

          k = 0.1291 0.2237 0.0000 (  4237 PWs)   bands (ev):

   -37.9879 -37.6095 -37.5851  -5.0699   2.9224   4.8596   7.8336  11.6503
    14.8531  16.5536  20.7419

          k = 0.1291 0.2237 0.1292 (  4247 PWs)   bands (ev):

   -37.9878 -37.6112 -37.5836  -5.0700   2.8677   5.2402   7.0468  12.8845
    14.8666  16.4960  17.7512

          k = 0.1291 0.3728 0.0000 (  4233 PWs)   bands (ev):

   -37.9298 -37.5590 -37.5448  -3.5240   4.0383   5.6615   9.2348   9.7488
    12.1947  14.5754  16.7617

          k = 0.1291 0.3728 0.1292 (  4229 PWs)   bands (ev):

   -37.9297 -37.5603 -37.5436  -3.5242   3.9447   6.1753   7.8790  10.3862
    12.9318  14.8411  16.6266

          k = 0.1291 0.5219 0.0000 (  4226 PWs)   bands (ev):

   -37.8783 -37.5145 -37.5094  -1.2475   5.2540   5.5826   7.3915  10.9935
    11.6414  12.8768  13.5521

          k = 0.1291 0.5219 0.1292 (  4221 PWs)   bands (ev):

   -37.8783 -37.5154 -37.5084  -1.2475   5.2980   5.4543   7.7840   9.9696
    12.1195  12.4868  14.8668

          k = 0.1291 0.6711 0.0000 (  4210 PWs)   bands (ev):

   -37.8579 -37.4968 -37.4954   1.3078   2.2314   6.6794   8.1826  10.6902
    11.0518  11.9823  14.3398

          k = 0.1291 0.6711 0.1292 (  4211 PWs)   bands (ev):

   -37.8579 -37.4977 -37.4945   1.3089   2.2343   6.4905   8.7025  10.6516
    10.7373  11.9347  13.7872

          k = 0.2583 0.4474 0.0000 (  4211 PWs)   bands (ev):

   -37.8822 -37.5178 -37.5119  -1.6196   5.4110   6.5162   8.2007   9.1925
    10.9487  13.5017  14.1097

          k = 0.2583 0.4474 0.1292 (  4210 PWs)   bands (ev):

   -37.8822 -37.5188 -37.5109  -1.6197   5.2639   7.0620   8.0501   8.6995
    10.7919  13.8845  14.5443

          k = 0.2583 0.5965 0.0000 (  4200 PWs)   bands (ev):

   -37.8512 -37.4908 -37.4904   0.9686   4.3394   7.0990   7.4667   9.1773
    11.1271  12.1226  13.4875

          k = 0.2583 0.5965 0.1292 (  4203 PWs)   bands (ev):

   -37.8512 -37.4917 -37.4895   0.9690   4.3493   6.8792   7.6640   9.3636
    11.1536  11.7069  13.5067

          k = 0.3874 0.6711 0.0000 (  4236 PWs)   bands (ev):

   -37.8405 -37.4828 -37.4815   3.4461   3.6163   5.0035   8.5260   9.8222
    10.5945  11.0450  13.3020

          k = 0.3874 0.6711 0.1292 (  4218 PWs)   bands (ev):

   -37.8405 -37.4826 -37.4817   3.4417   3.6187   5.0412   8.1438   9.9722
    10.9807  11.5506  12.8220

     the Fermi energy is     7.7596 ev

!    total energy              =     -51.48687363 Ry
     estimated scf accuracy    <          7.7E-11 Ry
     smearing contrib. (-TS)   =      -0.00080118 Ry
     internal energy E=F+TS    =     -51.48607245 Ry

     The total energy is F=E-TS. E is the sum of the following terms:
     one-electron contribution =     -16.06277948 Ry
     hartree contribution      =       9.09633176 Ry
     xc contribution           =     -13.81933828 Ry
     ewald contribution        =     -30.70028645 Ry

     convergence has been achieved in   9 iterations

     Forces acting on atoms (cartesian axes, Ry/au):

     atom    1 type  1   force =     0.00000000   -0.00000000   -0.01876524
     atom    2 type  1   force =     0.00000000   -0.00000000    0.01876524
     atom    3 type  1   force =     0.00000000    0.00000000    0.00000000
     atom    4 type  2   force =     0.00000000    0.00000000    0.00000000
     The non-local contrib.  to forces
     atom    1 type  1   force =     0.00000000    0.00000000   -0.00981433
     atom    2 type  1   force =     0.00000000    0.00000000    0.00981433
     atom    3 type  1   force =     0.00000000   -0.00000000    0.00000000
     atom    4 type  2   force =     0.00000000    0.00000000    0.00000000
     The ionic contribution  to forces
     atom    1 type  1   force =    -0.00000000    0.00000000   -1.24985000
     atom    2 type  1   force =    -0.00000000    0.00000000    1.24985000
     atom    3 type  1   force =    -0.00000000    0.00000000    0.00000000
     atom    4 type  2   force =     0.00000000   -0.00000000    0.00000000
     The local contribution  to forces
     atom    1 type  1   force =    -0.00000000   -0.00000000    1.24090425
     atom    2 type  1   force =    -0.00000000   -0.00000000   -1.24090425
     atom    3 type  1   force =    -0.00000044    0.00000026   -0.00000000
     atom    4 type  2   force =    -0.00000001    0.00000001   -0.00000000
     The core correction contribution to forces
     atom    1 type  1   force =     0.00000000    0.00000000    0.00000000
     atom    2 type  1   force =     0.00000000    0.00000000    0.00000000
     atom    3 type  1   force =     0.00000000    0.00000000    0.00000000
     atom    4 type  2   force =    -0.00000000    0.00000000   -0.00000000
     The Hubbard contrib.    to forces
     atom    1 type  1   force =     0.00000000    0.00000000    0.00000000
     atom    2 type  1   force =     0.00000000    0.00000000    0.00000000
     atom    3 type  1   force =     0.00000000    0.00000000    0.00000000
     atom    4 type  2   force =     0.00000000    0.00000000    0.00000000
     The SCF correction term to forces
     atom    1 type  1   force =     0.00000000   -0.00000000   -0.00000517
     atom    2 type  1   force =     0.00000000   -0.00000000    0.00000517
     atom    3 type  1   force =    -0.00000000    0.00000000    0.00000000
     atom    4 type  2   force =    -0.00000000    0.00000000    0.00000000

     Total force =     0.026538     Total SCF correction =     0.000007


     Computing stress (Cartesian axis) and pressure

          total   stress  (Ry/bohr**3)                   (kbar)     P=      490.77
   0.00323903   0.00000000   0.00000000          476.48        0.00        0.00
  -0.00000000   0.00323903   0.00000000           -0.00      476.48        0.00
   0.00000000   0.00000000   0.00353056            0.00        0.00      519.36

     Energy error            =      5.7E-03 Ry
     Gradient error          =      1.9E-02 Ry/Bohr
     Cell gradient error     =      2.4E+01 kbar

     number of scf cycles    =   5
     number of bfgs steps    =   4

     enthalpy           old  =     -50.6456823508 Ry
     enthalpy           new  =     -50.6513736844 Ry

     CASE: enthalpy          _new < enthalpy          _old

     new trust radius        =       0.0649130514 bohr
ibrav =      4
 celldm(1) =      4.50924437
 celldm(3) =      3.07204305
Input lattice vectors:
     0.85137965    -0.00000000     0.00000000
    -0.42568982     0.73731640     0.00000000
     0.00000000     0.00000000     2.61547493
New lattice vectors in INITIAL alat:
     0.85137965     0.00000000     0.00000000
    -0.42568982     0.73731640     0.00000000
     0.00000000     0.00000000     2.61547493
New lattice vectors in NEW alat (for information only):
     1.00000000     0.00000000     0.00000000
    -0.50000000     0.86602540     0.00000000
     0.00000000     0.00000000     3.07204305
Discrepancy in bohr =     0.000000    0.000000    0.000000
     new conv_thr            =       0.0000000019 Ry

     new unit-cell volume =    243.93226 a.u.^3 (    36.14703 Ang^3 )
     density =      2.24678 g/cm^3

CELL_PARAMETERS (alat=  5.29639671)
   0.851379648   0.000000000   0.000000000
  -0.425689824   0.737316403   0.000000000
   0.000000000   0.000000000   2.615474926

ATOMIC_POSITIONS (crystal)
Li            0.0000000000       -0.0000000000        0.2497556084
Li           -0.0000000000       -0.0000000000        0.7502443916
Li            0.6666666700        0.3333333300        0.0000000000
Si            0.3333333300        0.6666666700        0.5000000000



     Writing config-only to output data dir ./output/LiSi.save/
     NEW-OLD atomic charge density approx. for the potential
     extrapolated charge   12.89990, renormalised to   13.00000

     total cpu time spent up to now is       18.9 secs

     Self-consistent Calculation

     iteration #  1     ecut=    80.00 Ry     beta= 0.70
     Davidson diagonalization with overlap
     ethr =  1.00E-06,  avg # of iterations =  6.2

     total cpu time spent up to now is       19.3 secs

     total energy              =     -51.46458700 Ry
     estimated scf accuracy    <       0.02434758 Ry

     iteration #  2     ecut=    80.00 Ry     beta= 0.70
     Davidson diagonalization with overlap
     ethr =  1.87E-04,  avg # of iterations =  3.5

     total cpu time spent up to now is       19.5 secs

     total energy              =     -51.43289787 Ry
     estimated scf accuracy    <       0.62595256 Ry

     iteration #  3     ecut=    80.00 Ry     beta= 0.70
     Davidson diagonalization with overlap
     ethr =  1.87E-04,  avg # of iterations =  2.7

     total cpu time spent up to now is       19.7 secs

     total energy              =     -51.48245967 Ry
     estimated scf accuracy    <       0.00075076 Ry

     iteration #  4     ecut=    80.00 Ry     beta= 0.70
     Davidson diagonalization with overlap
     ethr =  5.78E-06,  avg # of iterations =  3.8

     total cpu time spent up to now is       19.9 secs

     total energy              =     -51.48252561 Ry
     estimated scf accuracy    <       0.00000450 Ry

     iteration #  5     ecut=    80.00 Ry     beta= 0.70
     Davidson diagonalization with overlap
     ethr =  3.46E-08,  avg # of iterations =  2.1

     total cpu time spent up to now is       20.1 secs

     total energy              =     -51.48252623 Ry
     estimated scf accuracy    <       0.00000375 Ry

     iteration #  6     ecut=    80.00 Ry     beta= 0.70
     Davidson diagonalization with overlap
     ethr =  2.89E-08,  avg # of iterations =  1.0

     total cpu time spent up to now is       20.2 secs

     total energy              =     -51.48252660 Ry
     estimated scf accuracy    <       0.00000023 Ry

     iteration #  7     ecut=    80.00 Ry     beta= 0.70
     Davidson diagonalization with overlap
     ethr =  1.76E-09,  avg # of iterations =  1.1

     total cpu time spent up to now is       20.4 secs

     total energy              =     -51.48252662 Ry
     estimated scf accuracy    <       0.00000001 Ry

     iteration #  8     ecut=    80.00 Ry     beta= 0.70
     Davidson diagonalization with overlap
     ethr =  1.03E-10,  avg # of iterations =  1.8

     total cpu time spent up to now is       20.6 secs

     End of self-consistent calculation

          k = 0.0000 0.0000 0.0000 (  4223 PWs)   bands (ev):

   -37.8661 -37.5978 -37.5384  -6.4170   1.8865   4.3886   6.7571  11.4805
    20.2585  21.7005  22.4058

          k = 0.0000 0.0000 0.1274 (  4223 PWs)   bands (ev):

   -37.8658 -37.5992 -37.5372  -6.4170   1.8696   4.6238   6.2681  12.3777
    17.5505  22.4099  22.4099

          k = 0.0000 0.1507 0.0000 (  4247 PWs)   bands (ev):

   -37.8411 -37.5776 -37.5239  -6.0144   2.1926   4.5905   7.1068  11.5188
    18.1222  20.3225  21.4647

          k = 0.0000 0.1507 0.1274 (  4238 PWs)   bands (ev):

   -37.8409 -37.5789 -37.5227  -6.0144   2.1706   4.8534   6.5477  12.5183
    17.3293  18.3293  20.3158

          k = 0.0000 0.3014 0.0000 (  4237 PWs)   bands (ev):

   -37.7771 -37.5263 -37.4874  -4.8146   3.0985   5.1978   8.1519  11.0913
    13.6332  18.3102  19.0685

          k = 0.0000 0.3014 0.1274 (  4257 PWs)   bands (ev):

   -37.7770 -37.5274 -37.4865  -4.8147   3.0569   5.5516   7.3252  12.0103
    14.1031  16.6954  18.3175

          k = 0.0000 0.4521 0.0000 (  4241 PWs)   bands (ev):

   -37.7026 -37.4677 -37.4472  -2.8434   4.5434   5.9954   7.8391   9.8057
    12.4085  15.1846  16.9479

          k = 0.0000 0.4521 0.1274 (  4227 PWs)   bands (ev):

   -37.7026 -37.4685 -37.4464  -2.8435   4.4558   6.4683   7.3981   9.4301
    13.2515  15.2204  17.0976

          k = 0.0000 0.6028 0.0000 (  4231 PWs)   bands (ev):

   -37.6528 -37.4293 -37.4218  -0.1757   3.3724   6.1810   7.7894  10.7692
    11.3333  13.5794  16.0749

          k = 0.0000 0.6028 0.1274 (  4201 PWs)   bands (ev):

   -37.6527 -37.4299 -37.4212  -0.1754   3.3792   6.0262   8.2645  10.3501
    11.0528  14.0735  15.3911

          k = 0.1305 0.2260 0.0000 (  4237 PWs)   bands (ev):

   -37.7966 -37.5419 -37.4984  -5.2131   2.7998   4.9993   7.8068  11.4909
    15.0804  16.8697  20.7836

          k = 0.1305 0.2260 0.1274 (  4247 PWs)   bands (ev):

   -37.7965 -37.5430 -37.4974  -5.2132   2.7655   5.3209   7.0867  12.6592
    15.0975  16.6567  17.7009

          k = 0.1305 0.3767 0.0000 (  4233 PWs)   bands (ev):

   -37.7273 -37.4869 -37.4601  -3.6269   3.9900   5.8054   9.1920   9.9159
    12.1982  14.7572  17.0637

          k = 0.1305 0.3767 0.1274 (  4229 PWs)   bands (ev):

   -37.7272 -37.4878 -37.4593  -3.6270   3.9227   6.2575   7.9443  10.5191
    13.0126  14.9279  16.6759

          k = 0.1305 0.5274 0.0000 (  4226 PWs)   bands (ev):

   -37.6648 -37.4384 -37.4275  -1.2947   5.4028   5.6439   7.5066  10.9283
    11.7177  13.0813  13.7328

          k = 0.1305 0.5274 0.1274 (  4221 PWs)   bands (ev):

   -37.6648 -37.4390 -37.4269  -1.2948   5.4351   5.5451   7.8617   9.9580
    12.2302  12.7220  14.9710

          k = 0.1305 0.6781 0.0000 (  4210 PWs)   bands (ev):

   -37.6397 -37.4192 -37.4150   1.2713   2.3495   6.8493   8.3175  10.6512
    11.0971  12.2684  14.3204

          k = 0.1305 0.6781 0.1274 (  4211 PWs)   bands (ev):

   -37.6397 -37.4197 -37.4144   1.2722   2.3519   6.6665   8.8466  10.6194
    10.7263  12.2084  13.8398

          k = 0.2610 0.4521 0.0000 (  4211 PWs)   bands (ev):

   -37.6697 -37.4420 -37.4296  -1.6754   5.4482   6.6856   8.3038   9.4341
    10.8962  13.4612  14.4049

          k = 0.2610 0.4521 0.1274 (  4210 PWs)   bands (ev):

   -37.6697 -37.4427 -37.4290  -1.6755   5.3287   7.2035   8.1357   8.8701
    10.8622  14.1460  14.5728

          k = 0.2610 0.6028 0.0000 (  4200 PWs)   bands (ev):

   -37.6315 -37.4126 -37.4103   0.9651   4.4448   7.2516   7.6764   9.3364
    11.2727  12.2285  13.4736

          k = 0.2610 0.6028 0.1274 (  4203 PWs)   bands (ev):

   -37.6315 -37.4132 -37.4098   0.9654   4.4530   7.0480   7.8819   9.4966
    11.3018  11.7198  13.6734

          k = 0.3915 0.6781 0.0000 (  4236 PWs)   bands (ev):

   -37.6184 -37.4035 -37.4025   3.4768   3.6009   5.3073   8.7759  10.0028
    10.7304  11.2813  13.2937

          k = 0.3915 0.6781 0.1274 (  4218 PWs)   bands (ev):

   -37.6184 -37.4033 -37.4027   3.4732   3.6029   5.3440   8.3910  10.1533
    11.2102  11.6893  12.8216

     the Fermi energy is     7.8851 ev

!    total energy              =     -51.48252662 Ry
     estimated scf accuracy    <          4.5E-10 Ry
     smearing contrib. (-TS)   =      -0.00153936 Ry
     internal energy E=F+TS    =     -51.48098726 Ry

     The total energy is F=E-TS. E is the sum of the following terms:
     one-electron contribution =     -15.68080835 Ry
     hartree contribution      =       8.94524354 Ry
     xc contribution           =     -13.82447113 Ry
     ewald contribution        =     -30.92095132 Ry

     convergence has been achieved in   8 iterations

     Forces acting on atoms (cartesian axes, Ry/au):

     atom    1 type  1   force =     0.00000000   -0.00000000   -0.00239022
     atom    2 type  1   force =    -0.00000000   -0.00000000    0.00239022
     atom    3 type  1   force =     0.00000000    0.00000000    0.00000000
     atom    4 type  2   force =     0.00000000    0.00000000    0.00000000
     The non-local contrib.  to forces
     atom    1 type  1   force =     0.00000000   -0.00000000    0.00203775
     atom    2 type  1   force =    -0.00000000   -0.00000000   -0.00203775
     atom    3 type  1   force =    -0.00000000   -0.00000000    0.00000000
     atom    4 type  2   force =     0.00000000    0.00000000    0.00000000
     The ionic contribution  to forces
     atom    1 type  1   force =    -0.00000000    0.00000000   -1.03401665
     atom    2 type  1   force =    -0.00000000    0.00000000    1.03401665
     atom    3 type  1   force =    -0.00000000    0.00000000    0.00000000
     atom    4 type  2   force =     0.00000000   -0.00000000    0.00000000
     The local contribution  to forces
     atom    1 type  1   force =     0.00000000    0.00000000    1.02962029
     atom    2 type  1   force =    -0.00000000    0.00000000   -1.02962029
     atom    3 type  1   force =    -0.00000044    0.00000025   -0.00000000
[...]

CELL_PARAMETERS (alat=  5.29639671)
   0.851228965   0.000000000   0.000000000
  -0.425614482   0.737185908   0.000000000
   0.000000000   0.000000000   2.605837559

ATOMIC_POSITIONS (crystal)
Li           -0.0000000000       -0.0000000000        0.2485579557
Li           -0.0000000000       -0.0000000000        0.7514420443
Li            0.6666666700        0.3333333300        0.0000000000
Si            0.3333333300        0.6666666700        0.5000000000
End final coordinates



     Writing config-only to output data dir ./output/LiSi.save/

     Final scf calculation at the relaxed structure.
     The G-vectors are recalculated for the final unit cell
     Results may differ from those at the preceding step.

     Parallelization info
     --------------------
     sticks:   dense  smooth     PW     G-vecs:    dense   smooth      PW
     Min          54      54     17                 2926     2926     493
     Max          55      55     18                 2941     2941     499
     Sum         439     439    139                23485    23485    3961

     Using Slab Decomposition



     bravais-lattice index     =            4
     lattice parameter (alat)  =       5.2964  a.u.
     unit-cell volume          =     242.9474 (a.u.)^3
     number of atoms/cell      =            4
     number of atomic types    =            2
     number of electrons       =        13.00
     number of Kohn-Sham states=           11
     kinetic-energy cutoff     =      80.0000  Ry
     charge density cutoff     =     320.0000  Ry
     scf convergence threshold =      1.0E-10
     mixing beta               =       0.7000
     number of iterations used =            8  plain     mixing
     press convergence thresh. =      1.0E+00
     Exchange-correlation= PBE
                           (   1   4   3   4   0   0   0)

     celldm(1)=   5.296397  celldm(2)=   0.000000  celldm(3)=   2.716328
     celldm(4)=   0.000000  celldm(5)=   0.000000  celldm(6)=   0.000000

     crystal axes: (cart. coord. in units of alat)
               a(1) = (   0.851229   0.000000   0.000000 )  
               a(2) = (  -0.425614   0.737186   0.000000 )  
               a(3) = (   0.000000   0.000000   2.605838 )  

     reciprocal axes: (cart. coord. in units 2 pi/alat)
               b(1) = (  1.174772  0.678255 -0.000000 )  
               b(2) = (  0.000000  1.356510  0.000000 )  
               b(3) = (  0.000000 -0.000000  0.383754 )  


     PseudoPot. # 1 for Li read from file:
     ../pseudo/Li_ONCV_PBE_sr.upf
     MD5 check sum: 50ff420e78310ffa21704f3361e624a4
     Pseudo is Norm-conserving, Zval =  3.0
     Generated using ONCVPSP code by D. R. Hamann
     Using radial grid of 1944 points,  4 beta functions with: 
                l(1) =   0
                l(2) =   0
                l(3) =   1
                l(4) =   1

     PseudoPot. # 2 for Si read from file:
     ../pseudo/Si_ONCV_PBE_sr.upf
     MD5 check sum: e543d271109d17c80368dfa7c482276d
     Pseudo is Norm-conserving + core correction, Zval =  4.0
     Generated using ONCVPSP code by D. R. Hamann
     Using radial grid of 1510 points,  6 beta functions with: 
                l(1) =   0
                l(2) =   0
                l(3) =   1
                l(4) =   1
                l(5) =   2
                l(6) =   2

     atomic species   valence    mass     pseudopotential
        Li             3.00     6.94100     Li( 1.00)
        Si             4.00    28.08550     Si( 1.00)

     12 Sym. Ops. (no inversion) found



   Cartesian axes

     site n.     atom                  positions (alat units)
         1           Li  tau(   1) = (   0.0000000  -0.0000000   0.6477017  )
         2           Li  tau(   2) = (  -0.0000000  -0.0000000   1.9581359  )
         3           Li  tau(   3) = (   0.4256145   0.2457286   0.0000000  )
         4           Si  tau(   4) = (  -0.0000000   0.4914573   1.3029188  )

     number of k points=    24  Marzari-Vanderbilt smearing, width (Ry)=  0.0200
                       cart. coord. in units 2pi/alat
        k(    1) = (   0.0000000   0.0000000   0.0000000), wk =   0.0082305
        k(    2) = (   0.0000000   0.0000000   0.1279179), wk =   0.0164609
        k(    3) = (   0.0000000   0.1507233   0.0000000), wk =   0.0493827
        k(    4) = (   0.0000000   0.1507233   0.1279179), wk =   0.0987654
        k(    5) = (   0.0000000   0.3014466   0.0000000), wk =   0.0493827
        k(    6) = (   0.0000000   0.3014466   0.1279179), wk =   0.0987654
        k(    7) = (   0.0000000   0.4521700   0.0000000), wk =   0.0493827
        k(    8) = (   0.0000000   0.4521700   0.1279179), wk =   0.0987654
        k(    9) = (   0.0000000   0.6028933   0.0000000), wk =   0.0493827
        k(   10) = (   0.0000000   0.6028933   0.1279179), wk =   0.0987654
        k(   11) = (   0.1305302   0.2260850   0.0000000), wk =   0.0493827
        k(   12) = (   0.1305302   0.2260850   0.1279179), wk =   0.0987654
        k(   13) = (   0.1305302   0.3768083   0.0000000), wk =   0.0987654
        k(   14) = (   0.1305302   0.3768083   0.1279179), wk =   0.1975309
        k(   15) = (   0.1305302   0.5275316   0.0000000), wk =   0.0987654
        k(   16) = (   0.1305302   0.5275316   0.1279179), wk =   0.1975309
        k(   17) = (   0.1305302   0.6782550   0.0000000), wk =   0.0493827
        k(   18) = (   0.1305302   0.6782550   0.1279179), wk =   0.0987654
        k(   19) = (   0.2610605   0.4521700   0.0000000), wk =   0.0493827
        k(   20) = (   0.2610605   0.4521700   0.1279179), wk =   0.0987654
        k(   21) = (   0.2610605   0.6028933   0.0000000), wk =   0.0987654
        k(   22) = (   0.2610605   0.6028933   0.1279179), wk =   0.1975309
        k(   23) = (   0.3915907   0.6782550   0.0000000), wk =   0.0164609
        k(   24) = (   0.3915907   0.6782550   0.1279179), wk =   0.0329218

     Dense  grid:    23485 G-vectors     FFT dimensions: (  25,  25,  80)

     Estimated max dynamical RAM per process >      15.34 MB

     Estimated total dynamical RAM >     122.75 MB

     Initial potential from superposition of free atoms

     starting charge      12.9857, renormalised to      13.0000
     Starting wfcs are   10 randomized atomic wfcs +    1 random wfcs

     total cpu time spent up to now is       36.4 secs

     Self-consistent Calculation

     iteration #  1     ecut=    80.00 Ry     beta= 0.70
     Davidson diagonalization with overlap
     c_bands:  1 eigenvalues not converged
     c_bands:  1 eigenvalues not converged
     c_bands:  1 eigenvalues not converged
     c_bands:  1 eigenvalues not converged
     ethr =  1.00E-06,  avg # of iterations = 16.3

     total cpu time spent up to now is       36.9 secs

     total energy              =     -51.35696536 Ry
     estimated scf accuracy    <       0.17910412 Ry

     iteration #  2     ecut=    80.00 Ry     beta= 0.70
     Davidson diagonalization with overlap
     ethr =  1.38E-03,  avg # of iterations =  3.3

     total cpu time spent up to now is       37.1 secs

     total energy              =     -51.15106601 Ry
     estimated scf accuracy    <       3.28231711 Ry

     iteration #  3     ecut=    80.00 Ry     beta= 0.70
     Davidson diagonalization with overlap
     ethr =  1.38E-03,  avg # of iterations =  2.7

     total cpu time spent up to now is       37.3 secs

     total energy              =     -51.47857705 Ry
     estimated scf accuracy    <       0.00215756 Ry

     iteration #  4     ecut=    80.00 Ry     beta= 0.70
     Davidson diagonalization with overlap
     ethr =  1.66E-05,  avg # of iterations =  4.3

     total cpu time spent up to now is       37.5 secs

     total energy              =     -51.47888712 Ry
     estimated scf accuracy    <       0.00516218 Ry

     iteration #  5     ecut=    80.00 Ry     beta= 0.70
     Davidson diagonalization with overlap
     ethr =  1.66E-05,  avg # of iterations =  1.0

     total cpu time spent up to now is       37.7 secs

     total energy              =     -51.47919378 Ry
     estimated scf accuracy    <       0.00004110 Ry

     iteration #  6     ecut=    80.00 Ry     beta= 0.70
     Davidson diagonalization with overlap
     ethr =  3.16E-07,  avg # of iterations =  2.2

     total cpu time spent up to now is       37.8 secs

     total energy              =     -51.47919841 Ry
     estimated scf accuracy    <       0.00001453 Ry

     iteration #  7     ecut=    80.00 Ry     beta= 0.70
     Davidson diagonalization with overlap
     ethr =  1.12E-07,  avg # of iterations =  1.0

     total cpu time spent up to now is       38.0 secs

     total energy              =     -51.47919989 Ry
     estimated scf accuracy    <       0.00000253 Ry

     iteration #  8     ecut=    80.00 Ry     beta= 0.70
     Davidson diagonalization with overlap
     ethr =  1.95E-08,  avg # of iterations =  1.0

     total cpu time spent up to now is       38.1 secs

     total energy              =     -51.47920020 Ry
     estimated scf accuracy    <       0.00000080 Ry

     iteration #  9     ecut=    80.00 Ry     beta= 0.70
     Davidson diagonalization with overlap
     ethr =  6.15E-09,  avg # of iterations =  1.0

     total cpu time spent up to now is       38.2 secs

     total energy              =     -51.47920025 Ry
     estimated scf accuracy    <          7.1E-10 Ry

     iteration # 10     ecut=    80.00 Ry     beta= 0.70
     Davidson diagonalization with overlap
     ethr =  5.44E-12,  avg # of iterations =  3.4

     total cpu time spent up to now is       38.4 secs

     total energy              =     -51.47920025 Ry
     estimated scf accuracy    <          6.5E-10 Ry

     iteration # 11     ecut=    80.00 Ry     beta= 0.70
     Davidson diagonalization with overlap
     ethr =  5.01E-12,  avg # of iterations =  1.0

     total cpu time spent up to now is       38.5 secs

     total energy              =     -51.47920025 Ry
     estimated scf accuracy    <          1.2E-10 Ry

     iteration # 12     ecut=    80.00 Ry     beta= 0.70
     Davidson diagonalization with overlap
     ethr =  9.48E-13,  avg # of iterations =  1.0

     total cpu time spent up to now is       38.6 secs

     End of self-consistent calculation

          k = 0.0000 0.0000 0.0000 (  2943 PWs)   bands (ev):

   -37.8237 -37.5649 -37.4971  -6.3791   1.9192   4.4427   6.8468  11.5281
    20.4460  21.8414  22.4543

          k = 0.0000 0.0000 0.1279 (  2907 PWs)   bands (ev):

   -37.8234 -37.5663 -37.4959  -6.3791   1.9025   4.6801   6.3466  12.4359
    17.6983  22.4587  22.4587

          k = 0.0000 0.1507 0.0000 (  2955 PWs)   bands (ev):

   -37.7981 -37.5446 -37.4830  -5.9763   2.2256   4.6419   7.1944  11.5684
    18.1763  20.3598  20.4805

          k = 0.0000 0.1507 0.1279 (  2954 PWs)   bands (ev):

   -37.7978 -37.5459 -37.4820  -5.9763   2.2038   4.9073   6.6230  12.5802
    17.4597  18.3839  20.3655

          k = 0.0000 0.3014 0.0000 (  2963 PWs)   bands (ev):

   -37.7322 -37.4933 -37.4482  -4.7759   3.1324   5.2419   8.2327  11.1443
    13.6790  18.3593  19.1403

          k = 0.0000 0.3014 0.1279 (  2958 PWs)   bands (ev):

   -37.7321 -37.4943 -37.4473  -4.7760   3.0907   5.5988   7.3904  12.0726
    14.1585  16.7873  18.3670

          k = 0.0000 0.4522 0.0000 (  2943 PWs)   bands (ev):

   -37.6552 -37.4345 -37.4103  -2.8038   4.5784   6.0293   7.8862   9.8727
    12.4542  15.2434  16.9966

          k = 0.0000 0.4522 0.1279 (  2933 PWs)   bands (ev):

   -37.6551 -37.4353 -37.4096  -2.8039   4.4894   6.5070   7.4435   9.4857
    13.3010  15.2917  17.1539

          k = 0.0000 0.6029 0.0000 (  2920 PWs)   bands (ev):

   -37.6031 -37.3960 -37.3869  -0.1351   3.4144   6.2167   7.8134  10.8051
    11.3727  13.6499  16.1402

          k = 0.0000 0.6029 0.1279 (  2932 PWs)   bands (ev):

   -37.6030 -37.3966 -37.3864  -0.1348   3.4216   6.0570   8.2977  10.3858
    11.0909  14.1313  15.4618

          k = 0.1305 0.2261 0.0000 (  2951 PWs)   bands (ev):

   -37.7523 -37.5088 -37.4586  -5.1746   2.8335   5.0457   7.8900  11.5438
    15.1261  16.9232  20.7290

          k = 0.1305 0.2261 0.1279 (  2951 PWs)   bands (ev):

   -37.7522 -37.5100 -37.4577  -5.1747   2.7991   5.3702   7.1556  12.7271
    15.1439  16.7413  17.7815

          k = 0.1305 0.3768 0.0000 (  2936 PWs)   bands (ev):

   -37.6808 -37.4538 -37.4223  -3.5876   4.0247   5.8430   9.2661   9.9663
    12.2464  14.8041  17.1153

          k = 0.1305 0.3768 0.1279 (  2946 PWs)   bands (ev):

   -37.6807 -37.4546 -37.4216  -3.5877   3.9566   6.2991   7.9994  10.5727
    13.0729  14.9839  16.7374

          k = 0.1305 0.5275 0.0000 (  2927 PWs)   bands (ev):

   -37.6157 -37.4051 -37.3920  -1.2544   5.4430   5.6796   7.5389  10.9802
    11.7642  13.1218  13.7926

          k = 0.1305 0.5275 0.1279 (  2932 PWs)   bands (ev):

   -37.6157 -37.4058 -37.3914  -1.2545   5.4735   5.5815   7.8978  10.0030
    12.2728  12.7681  15.0292

          k = 0.1305 0.6783 0.0000 (  2928 PWs)   bands (ev):

   -37.5893 -37.3859 -37.3807   1.3120   2.3920   6.8854   8.3363  10.6855
    11.1384  12.3157  14.3770

          k = 0.1305 0.6783 0.1279 (  2925 PWs)   bands (ev):

   -37.5893 -37.3864 -37.3802   1.3128   2.3946   6.6955   8.8787  10.6530
    10.7637  12.2531  13.8895

          k = 0.2611 0.4522 0.0000 (  2926 PWs)   bands (ev):

   -37.6209 -37.4088 -37.3940  -1.6353   5.4839   6.7159   8.3466   9.4858
    10.9592  13.5009  14.4441

          k = 0.2611 0.4522 0.1279 (  2934 PWs)   bands (ev):

   -37.6209 -37.4094 -37.3934  -1.6354   5.3617   7.2404   8.1786   8.9159
    10.9166  14.1852  14.6162

          k = 0.2611 0.6029 0.0000 (  2913 PWs)   bands (ev):

   -37.5808 -37.3793 -37.3763   1.0062   4.4869   7.2883   7.7106   9.3727
    11.3076  12.2574  13.5250

          k = 0.2611 0.6029 0.1279 (  2916 PWs)   bands (ev):

   -37.5808 -37.3798 -37.3758   1.0065   4.4955   7.0777   7.9248   9.5316
    11.3370  11.7541  13.7099

          k = 0.3916 0.6783 0.0000 (  2946 PWs)   bands (ev):

   -37.5670 -37.3703 -37.3691   3.5189   3.6420   5.3502   8.8170  10.0332
    10.7447  11.3114  13.3266

          k = 0.3916 0.6783 0.1279 (  2928 PWs)   bands (ev):

   -37.5670 -37.3700 -37.3694   3.5150   3.6441   5.3889   8.4171  10.1882
    11.2388  11.7263  12.8468

     the Fermi energy is     7.9294 ev

!    total energy              =     -51.47920025 Ry
     estimated scf accuracy    <          4.3E-14 Ry
     smearing contrib. (-TS)   =      -0.00145316 Ry
     internal energy E=F+TS    =     -51.47774709 Ry

     The total energy is F=E-TS. E is the sum of the following terms:
     one-electron contribution =     -15.55848299 Ry
     hartree contribution      =       8.90531420 Ry
     xc contribution           =     -13.82772705 Ry
     ewald contribution        =     -30.99685124 Ry

     convergence has been achieved in  12 iterations

     Forces acting on atoms (cartesian axes, Ry/au):

     atom    1 type  1   force =    -0.00000000   -0.00000000   -0.00008331
     atom    2 type  1   force =     0.00000000    0.00000000    0.00008331
     atom    3 type  1   force =     0.00000000    0.00000000    0.00000000
     atom    4 type  2   force =    -0.00000000   -0.00000000    0.00000000
     The non-local contrib.  to forces
     atom    1 type  1   force =    -0.00000000   -0.00000000    0.00184243
     atom    2 type  1   force =    -0.00000000   -0.00000000   -0.00184243
     atom    3 type  1   force =     0.00000000    0.00000000    0.00000000
     atom    4 type  2   force =     0.00000000    0.00000000    0.00000000
     The ionic contribution  to forces
     atom    1 type  1   force =    -0.00000000    0.00000000   -0.97157875
     atom    2 type  1   force =    -0.00000000    0.00000000    0.97157875
     atom    3 type  1   force =    -0.00000000    0.00000000    0.00000000
     atom    4 type  2   force =     0.00000000   -0.00000000    0.00000000
     The local contribution  to forces
     atom    1 type  1   force =     0.00000000   -0.00000000    0.96965331
     atom    2 type  1   force =     0.00000000   -0.00000000   -0.96965331
     atom    3 type  1   force =    -0.00000044    0.00000025   -0.00000000
     atom    4 type  2   force =    -0.00000001    0.00000001    0.00000000
     The core correction contribution to forces
     atom    1 type  1   force =     0.00000000    0.00000000    0.00000000
     atom    2 type  1   force =     0.00000000    0.00000000    0.00000000
     atom    3 type  1   force =     0.00000000    0.00000000    0.00000000
     atom    4 type  2   force =    -0.00000000    0.00000000   -0.00000000
     The Hubbard contrib.    to forces
     atom    1 type  1   force =     0.00000000    0.00000000    0.00000000
     atom    2 type  1   force =     0.00000000    0.00000000    0.00000000
     atom    3 type  1   force =     0.00000000    0.00000000    0.00000000
     atom    4 type  2   force =     0.00000000    0.00000000    0.00000000
     The SCF correction term to forces
     atom    1 type  1   force =     0.00000000    0.00000000   -0.00000030
     atom    2 type  1   force =     0.00000000    0.00000000    0.00000030
     atom    3 type  1   force =    -0.00000000    0.00000000   -0.00000000
     atom    4 type  2   force =    -0.00000000    0.00000000   -0.00000000

     Total force =     0.000118     Total SCF correction =     0.000000


     Computing stress (Cartesian axis) and pressure

          total   stress  (Ry/bohr**3)                   (kbar)     P=      500.25
   0.00340177   0.00000000   0.00000000          500.42        0.00        0.00
   0.00000000   0.00340177   0.00000000            0.00      500.42        0.00
   0.00000000   0.00000000   0.00339829            0.00        0.00      499.91


     Writing all to output data dir ./output/LiSi.save/

     init_run     :      0.79s CPU      0.98s WALL (       2 calls)
     electrons    :     21.36s CPU     23.81s WALL (      13 calls)
     update_pot   :      3.68s CPU      3.74s WALL (      11 calls)
     forces       :      2.44s CPU      2.55s WALL (      13 calls)
     stress       :      7.22s CPU      7.75s WALL (      13 calls)

     Called by init_run:
     wfcinit      :      0.10s CPU      0.11s WALL (       2 calls)
     potinit      :      0.28s CPU      0.37s WALL (       2 calls)
     hinit0       :      0.38s CPU      0.44s WALL (       2 calls)

     Called by electrons:
     c_bands      :     17.63s CPU     19.23s WALL (     122 calls)
     sum_band     :      2.74s CPU      2.93s WALL (     122 calls)
     v_of_rho     :      1.00s CPU      1.62s WALL (     129 calls)
     mix_rho      :      0.08s CPU      0.12s WALL (     122 calls)

     Called by c_bands:
     init_us_2    :      0.77s CPU      0.83s WALL (    6528 calls)
     init_us_2:cp :      0.76s CPU      0.82s WALL (    6528 calls)
     cegterg      :     16.18s CPU     16.77s WALL (    2928 calls)

     Called by *egterg:
     cdiaghg      :      1.25s CPU      1.29s WALL (    9550 calls)
     h_psi        :     13.05s CPU     13.54s WALL (   10006 calls)
     g_psi        :      0.09s CPU      0.09s WALL (    7030 calls)

     Called by h_psi:
     h_psi:calbec :      0.96s CPU      0.99s WALL (   10006 calls)
     vloc_psi     :     11.26s CPU     11.68s WALL (   10006 calls)
     add_vuspsi   :      0.76s CPU      0.79s WALL (   10006 calls)

     General routines
     calbec       :      1.21s CPU      1.26s WALL (   11566 calls)
     fft          :      0.99s CPU      1.78s WALL (    1619 calls)
     ffts         :      0.03s CPU      0.06s WALL (     122 calls)
     fftw         :     11.19s CPU     11.60s WALL (  193946 calls)

     Parallel routines

     PWSCF        :     35.74s CPU     39.30s WALL


   This run was terminated on:  11:19:39  29Dec2024            

=------------------------------------------------------------------------------=
   JOB DONE.
=------------------------------------------------------------------------------=
