
     Program PWSCF v.7.2 starts on 29Dec2024 at 11:32:36 

     This program is part of the open-source Quantum ESPRESSO suite
     for quantum simulation of materials; please cite
         "P. Giannozzi et al., J. Phys.:Condens. Matter 21 395502 (2009);
         "P. Giannozzi et al., J. Phys.:Condens. Matter 29 465901 (2017);
         "P. Giannozzi et al., J. Chem. Phys. 152 154105 (2020);
          URL http://www.quantum-espresso.org", 
     in publications or presentations arising from this work. More details at
     http://www.quantum-espresso.org/quote

     Parallel version (MPI & OpenMP), running on       8 processor cores
     Number of MPI processes:                 8
     Threads/MPI process:                     1

     MPI processes distributed on     1 nodes
     480307 MiB available memory on the printing compute node when the environment starts

     Waiting for input...
     Reading input from standard input

     Current dimensions of program PWSCF are:
     Max number of different atomic species (ntypx) = 10
     Max number of k-points (npk) =  40000
     Max angular momentum in pseudopotentials (lmaxx) =  4

     R & G space division:  proc/nbgrp/npool/nimage =       8
     Subspace diagonalization in iterative solution of the eigenvalue problem:
     a serial algorithm will be used


     Parallelization info
     --------------------
     sticks:   dense  smooth     PW     G-vecs:    dense   smooth      PW
     Min         150     150     48                 3373     3373     628
     Max         151     151     49                 3374     3374     631
     Sum        1207    1207    389                26987    26987    5029

     Using Slab Decomposition



     bravais-lattice index     =            7
     lattice parameter (alat)  =       6.7218  a.u.
     unit-cell volume          =     280.1703 (a.u.)^3
     number of atoms/cell      =            4
     number of atomic types    =            2
     number of electrons       =        15.00
     number of Kohn-Sham states=           12
     kinetic-energy cutoff     =      80.0000  Ry
     charge density cutoff     =     320.0000  Ry
     scf convergence threshold =      1.0E-08
     mixing beta               =       0.7000
     number of iterations used =            8  plain     mixing
     energy convergence thresh.=      1.0E-04
     force convergence thresh. =      1.0E-03
     press convergence thresh. =      1.0E+00
     Exchange-correlation= PBE
                           (   1   4   3   4   0   0   0)
     nstep                     =           50


     celldm(1)=   6.721775  celldm(2)=   0.000000  celldm(3)=   1.845016
     celldm(4)=   0.000000  celldm(5)=   0.000000  celldm(6)=   0.000000

     crystal axes: (cart. coord. in units of alat)
               a(1) = (   0.500000  -0.500000   0.922508 )  
               a(2) = (   0.500000   0.500000   0.922508 )  
               a(3) = (  -0.500000  -0.500000   0.922508 )  

     reciprocal axes: (cart. coord. in units 2 pi/alat)
               b(1) = (  1.000000 -1.000000  0.000000 )  
               b(2) = (  0.000000  1.000000  0.542001 )  
               b(3) = ( -1.000000  0.000000  0.542001 )  


     PseudoPot. # 1 for Li read from file:
     ../pseudo/Li_ONCV_PBE_sr.upf
     MD5 check sum: 50ff420e78310ffa21704f3361e624a4
     Pseudo is Norm-conserving, Zval =  3.0
     Generated using ONCVPSP code by D. R. Hamann
     Using radial grid of 1944 points,  4 beta functions with: 
                l(1) =   0
                l(2) =   0
                l(3) =   1
                l(4) =   1

     PseudoPot. # 2 for Si read from file:
     ../pseudo/Si_ONCV_PBE_sr.upf
     MD5 check sum: e543d271109d17c80368dfa7c482276d
     Pseudo is Norm-conserving + core correction, Zval =  4.0
     Generated using ONCVPSP code by D. R. Hamann
     Using radial grid of 1510 points,  6 beta functions with: 
                l(1) =   0
                l(2) =   0
                l(3) =   1
                l(4) =   1
                l(5) =   2
                l(6) =   2

     atomic species   valence    mass     pseudopotential
        Li             3.00     6.94100     Li( 1.00)
        Si             4.00    28.08550     Si( 1.00)

     16 Sym. Ops., with inversion, found



   Cartesian axes

     site n.     atom                  positions (alat units)
         1           Li  tau(   1) = (   0.0000000   0.0000000   0.0000000  )
         2           Si  tau(   2) = (   0.0000000   0.5000000   0.4612541  )
         3           Si  tau(   3) = (   0.0000000   0.5000000   1.3837623  )
         4           Si  tau(   4) = (   0.0000000   0.0000000   0.9225082  )

     number of k points=    90  Marzari-Vanderbilt smearing, width (Ry)=  0.0200
                       cart. coord. in units 2pi/alat
        k(    1) = (   0.0000000   0.0000000   0.0000000), wk =   0.0102041
        k(    2) = (  -0.2500000   0.0000000   0.1355001), wk =   0.0204082
        k(    3) = (   0.5000000   0.0000000  -0.2710003), wk =   0.0102041
        k(    4) = (   0.0000000   0.1428571   0.0774287), wk =   0.0408163
        k(    5) = (  -0.2500000   0.1428571   0.2129288), wk =   0.0204082
        k(    6) = (   0.5000000   0.1428571  -0.1935716), wk =   0.0204082
        k(    7) = (   0.2500000   0.1428571  -0.0580715), wk =   0.0204082
        k(    8) = (   0.0000000   0.2857143   0.1548573), wk =   0.0408163
        k(    9) = (  -0.2500000   0.2857143   0.2903575), wk =   0.0204082
        k(   10) = (   0.5000000   0.2857143  -0.1161430), wk =   0.0204082
        k(   11) = (   0.2500000   0.2857143   0.0193572), wk =   0.0204082
        k(   12) = (   0.0000000   0.4285714   0.2322860), wk =   0.0408163
        k(   13) = (  -0.2500000   0.4285714   0.3677861), wk =   0.0204082
        k(   14) = (   0.5000000   0.4285714  -0.0387143), wk =   0.0204082
        k(   15) = (   0.2500000   0.4285714   0.0967858), wk =   0.0204082
        k(   16) = (   0.1428571  -0.1428571   0.0000000), wk =   0.0204082
        k(   17) = (  -0.1071429  -0.1428571   0.1355001), wk =   0.0204082
        k(   18) = (   0.6428571  -0.1428571  -0.2710003), wk =   0.0204082
        k(   19) = (   0.3928571  -0.1428571  -0.1355001), wk =   0.0204082
        k(   20) = (  -0.1071429   0.0000000   0.2129288), wk =   0.0204082
        k(   21) = (   0.6428571   0.0000000  -0.1935716), wk =   0.0204082
        k(   22) = (   0.3928571   0.0000000  -0.0580715), wk =   0.0204082
        k(   23) = (   0.1428571   0.1428571   0.1548573), wk =   0.0204082
        k(   24) = (  -0.1071429   0.1428571   0.2903575), wk =   0.0204082
        k(   25) = (   0.6428571   0.1428571  -0.1161430), wk =   0.0204082
        k(   26) = (   0.3928571   0.1428571   0.0193572), wk =   0.0204082
        k(   27) = (   0.1428571   0.2857143   0.2322860), wk =   0.0408163
        k(   28) = (  -0.1071429   0.2857143   0.3677861), wk =   0.0204082
        k(   29) = (   0.6428571   0.2857143  -0.0387143), wk =   0.0204082
        k(   30) = (   0.3928571   0.2857143   0.0967858), wk =   0.0204082
        k(   31) = (   0.1428571  -0.5714286  -0.2322860), wk =   0.0408163
        k(   32) = (  -0.1071429  -0.5714286  -0.0967858), wk =   0.0204082
        k(   33) = (   0.6428571  -0.5714286  -0.5032863), wk =   0.0204082
        k(   34) = (   0.3928571  -0.5714286  -0.3677861), wk =   0.0204082
        k(   35) = (   0.1428571  -0.4285714  -0.1548573), wk =   0.0408163
        k(   36) = (  -0.1071429  -0.4285714  -0.0193572), wk =   0.0204082
        k(   37) = (   0.6428571  -0.4285714  -0.4258576), wk =   0.0204082
        k(   38) = (   0.3928571  -0.4285714  -0.2903575), wk =   0.0204082
        k(   39) = (   0.1428571  -0.2857143  -0.0774287), wk =   0.0408163
        k(   40) = (  -0.1071429  -0.2857143   0.0580715), wk =   0.0204082
        k(   41) = (   0.6428571  -0.2857143  -0.3484290), wk =   0.0204082
        k(   42) = (   0.3928571  -0.2857143  -0.2129288), wk =   0.0204082
        k(   43) = (   0.2857143  -0.2857143   0.0000000), wk =   0.0204082
        k(   44) = (   0.0357143  -0.2857143   0.1355001), wk =   0.0204082
        k(   45) = (   0.7857143  -0.2857143  -0.2710003), wk =   0.0204082
        k(   46) = (   0.5357143  -0.2857143  -0.1355001), wk =   0.0204082
        k(   47) = (   0.0357143  -0.1428571   0.2129288), wk =   0.0204082
        k(   48) = (   0.7857143  -0.1428571  -0.1935716), wk =   0.0204082
        k(   49) = (   0.5357143  -0.1428571  -0.0580715), wk =   0.0204082
        k(   50) = (   0.0357143   0.0000000   0.2903575), wk =   0.0204082
        k(   51) = (   0.7857143   0.0000000  -0.1161430), wk =   0.0204082
        k(   52) = (   0.5357143   0.0000000   0.0193572), wk =   0.0204082
        k(   53) = (   0.0357143   0.1428571   0.3677861), wk =   0.0204082
        k(   54) = (   0.7857143   0.1428571  -0.0387143), wk =   0.0204082
        k(   55) = (   0.5357143   0.1428571   0.0967858), wk =   0.0204082
        k(   56) = (   0.2857143  -0.7142857  -0.2322860), wk =   0.0204082
        k(   57) = (   0.0357143  -0.7142857  -0.0967858), wk =   0.0204082
        k(   58) = (   0.7857143  -0.7142857  -0.5032863), wk =   0.0204082
        k(   59) = (   0.5357143  -0.7142857  -0.3677861), wk =   0.0204082
        k(   60) = (   0.2857143  -0.5714286  -0.1548573), wk =   0.0408163
        k(   61) = (   0.0357143  -0.5714286  -0.0193572), wk =   0.0204082
        k(   62) = (   0.7857143  -0.5714286  -0.4258576), wk =   0.0204082
        k(   63) = (   0.5357143  -0.5714286  -0.2903575), wk =   0.0204082
        k(   64) = (   0.2857143  -0.4285714  -0.0774287), wk =   0.0408163
        k(   65) = (   0.0357143  -0.4285714   0.0580715), wk =   0.0204082
        k(   66) = (   0.7857143  -0.4285714  -0.3484290), wk =   0.0204082
        k(   67) = (   0.5357143  -0.4285714  -0.2129288), wk =   0.0204082
        k(   68) = (   0.4285714  -0.4285714   0.0000000), wk =   0.0204082
        k(   69) = (   0.1785714  -0.4285714   0.1355001), wk =   0.0204082
        k(   70) = (   0.9285714  -0.4285714  -0.2710003), wk =   0.0204082
        k(   71) = (   0.6785714  -0.4285714  -0.1355001), wk =   0.0204082
        k(   72) = (   0.1785714  -0.2857143   0.2129288), wk =   0.0204082
        k(   73) = (   0.9285714  -0.2857143  -0.1935716), wk =   0.0204082
        k(   74) = (   0.6785714  -0.2857143  -0.0580715), wk =   0.0204082
        k(   75) = (   0.1785714  -0.1428571   0.2903575), wk =   0.0204082
        k(   76) = (   0.9285714  -0.1428571  -0.1161430), wk =   0.0204082
        k(   77) = (   0.6785714  -0.1428571   0.0193572), wk =   0.0204082
        k(   78) = (   0.1785714   0.0000000   0.3677861), wk =   0.0204082
        k(   79) = (   0.9285714   0.0000000  -0.0387143), wk =   0.0204082
        k(   80) = (   0.6785714   0.0000000   0.0967858), wk =   0.0204082
        k(   81) = (   0.1785714  -0.8571429  -0.0967858), wk =   0.0204082
        k(   82) = (   0.9285714  -0.8571429  -0.5032863), wk =   0.0204082
        k(   83) = (   0.6785714  -0.8571429  -0.3677861), wk =   0.0204082
        k(   84) = (   0.1785714  -0.7142857  -0.0193572), wk =   0.0204082
        k(   85) = (   0.9285714  -0.7142857  -0.4258576), wk =   0.0204082
        k(   86) = (   0.6785714  -0.7142857  -0.2903575), wk =   0.0204082
        k(   87) = (   0.4285714  -0.5714286  -0.0774287), wk =   0.0204082
        k(   88) = (   0.1785714  -0.5714286   0.0580715), wk =   0.0204082
        k(   89) = (   0.9285714  -0.5714286  -0.3484290), wk =   0.0204082
        k(   90) = (   0.6785714  -0.5714286  -0.2129288), wk =   0.0204082

     Dense  grid:    26987 G-vectors     FFT dimensions: (  45,  45,  45)

     Estimated max dynamical RAM per process >      21.62 MB

     Estimated total dynamical RAM >     173.00 MB

     Initial potential from superposition of free atoms

     starting charge      14.9936, renormalised to      15.0000
     Starting wfcs are   14 randomized atomic wfcs

     total cpu time spent up to now is        1.4 secs

     Self-consistent Calculation

     iteration #  1     ecut=    80.00 Ry     beta= 0.70
     Davidson diagonalization with overlap
     ethr =  1.00E-02,  avg # of iterations =  5.2

     Threshold (ethr) on eigenvalues was too large:
     Diagonalizing with lowered threshold

     Davidson diagonalization with overlap
     c_bands:  1 eigenvalues not converged
     ethr =  1.19E-04,  avg # of iterations =  6.0

     total cpu time spent up to now is        4.8 secs

     total energy              =     -39.62783099 Ry
     estimated scf accuracy    <       0.01875066 Ry

     iteration #  2     ecut=    80.00 Ry     beta= 0.70
     Davidson diagonalization with overlap
     ethr =  1.25E-04,  avg # of iterations =  1.0

     total cpu time spent up to now is        5.8 secs

     total energy              =     -39.62776535 Ry
     estimated scf accuracy    <       0.00127028 Ry

     iteration #  3     ecut=    80.00 Ry     beta= 0.70
     Davidson diagonalization with overlap
     ethr =  8.47E-06,  avg # of iterations =  3.2

     total cpu time spent up to now is        7.0 secs

     total energy              =     -39.62784069 Ry
     estimated scf accuracy    <       0.00000661 Ry

     iteration #  4     ecut=    80.00 Ry     beta= 0.70
     Davidson diagonalization with overlap
     ethr =  4.40E-08,  avg # of iterations =  4.0

     total cpu time spent up to now is        8.5 secs

     total energy              =     -39.62784564 Ry
     estimated scf accuracy    <       0.00000071 Ry

     iteration #  5     ecut=    80.00 Ry     beta= 0.70
     Davidson diagonalization with overlap
     ethr =  4.76E-09,  avg # of iterations =  2.1

     total cpu time spent up to now is        9.6 secs

     total energy              =     -39.62784580 Ry
     estimated scf accuracy    <       0.00000002 Ry

     iteration #  6     ecut=    80.00 Ry     beta= 0.70
     Davidson diagonalization with overlap
     ethr =  1.38E-10,  avg # of iterations =  2.9

     total cpu time spent up to now is       10.9 secs

     End of self-consistent calculation

          k = 0.0000 0.0000 0.0000 (  3385 PWs)   bands (ev):

   -33.2298  -2.7017   8.2677   9.5757   9.5757  10.8890  10.8890  11.1736
    11.5361  12.2211  12.2347  17.5553

          k =-0.2500 0.0000 0.1355 (  3383 PWs)   bands (ev):

   -33.2283  -1.8873   4.9119   7.6121   8.3681   9.3752  12.2147  12.2730
    13.7505  14.2099  14.5679  16.2840

          k = 0.5000 0.0000-0.2710 (  3372 PWs)   bands (ev):

   -33.2268  -0.0404   1.4931   7.1709   7.2732   9.9483  11.0563  12.1928
    14.8241  17.1137  17.3389  18.1804

          k = 0.0000 0.1429 0.0774 (  3391 PWs)   bands (ev):

   -33.2293  -2.4341   6.9236   8.2594   9.3321   9.4036  11.5411  12.1245
    12.2125  13.4746  14.5579  15.4554

          k =-0.2500 0.1429 0.2129 (  3380 PWs)   bands (ev):

   -33.2277  -1.4147   4.4850   6.0965   7.5741   9.6425  11.2037  13.0342
    13.8796  16.1949  16.6271  17.5470

          k = 0.5000 0.1429-0.1936 (  3384 PWs)   bands (ev):

   -33.2264   0.1373   1.8201   6.1426   8.0245   8.3264  10.3628  14.1835
    14.4419  16.3838  16.7708  18.3158

          k = 0.2500 0.1429-0.0581 (  3385 PWs)   bands (ev):

   -33.2280  -1.8234   5.7009   7.4718   8.0336   9.3993   9.7125  11.7168
    14.0228  14.7941  15.8458  17.0801

          k = 0.0000 0.2857 0.1549 (  3388 PWs)   bands (ev):

   -33.2280  -1.6421   4.2586   7.4642   8.1095   9.4169  12.2260  12.2853
    14.1840  14.3438  14.6853  16.9126

          k =-0.2500 0.2857 0.2904 (  3382 PWs)   bands (ev):

   -33.2265  -0.4234   3.8894   4.4911   6.6459   9.4979  10.9432  12.9247
    15.7350  16.0709  17.5087  19.3908

          k = 0.5000 0.2857-0.1161 (  3386 PWs)   bands (ev):

   -33.2255   0.7016   2.7440   4.9308   6.2243   7.7937  10.7339  11.8519
    15.7651  16.9274  18.2919  20.0522

          k = 0.2500 0.2857 0.0194 (  3380 PWs)   bands (ev):

   -33.2269  -1.2269   5.7659   6.5798   7.0125   7.6907  10.2350  10.6497
    14.3350  17.5827  17.8705  18.4878

          k = 0.0000 0.4286 0.2323 (  3374 PWs)   bands (ev):

   -33.2269  -0.4336   2.0175   7.1692   7.4007   9.8055  11.3122  12.2033
    14.8079  15.9181  16.9748  18.6972

          k =-0.2500 0.4286 0.3678 (  3385 PWs)   bands (ev):

   -33.2258   0.7840   2.1225   4.9254   6.4675   8.4594  10.8467  13.1027
    14.8550  16.4782  18.9661  19.7076

          k = 0.5000 0.4286-0.0387 (  3372 PWs)   bands (ev):

   -33.2248   1.6962   3.0901   4.3093   5.6095   6.2441   9.7966  13.1978
    14.9890  16.6390  19.5080  21.2245

          k = 0.2500 0.4286 0.0968 (  3373 PWs)   bands (ev):

   -33.2259  -0.1330   3.4437   5.7588   6.6676   7.8551  10.2590  11.5372
    15.8625  17.3452  17.6064  18.8270

          k = 0.1429-0.1429 0.0000 (  3401 PWs)   bands (ev):

   -33.2288  -2.2844   7.3463   7.9608   8.5887   9.4587   9.6763  11.6993
    14.1952  14.5703  14.5980  14.6145

          k =-0.1071-0.1429 0.1355 (  3384 PWs)   bands (ev):

   -33.2288  -2.1945   6.3646   7.1732   8.2605  10.1315  10.9578  12.8256
    13.3693  14.1321  15.0352  15.7830

          k = 0.6429-0.1429-0.2710 (  3390 PWs)   bands (ev):

   -33.2268  -0.5245   2.7545   5.9545   7.5784   8.9462  10.9114  13.8386
    14.3866  16.9357  17.2026  18.4848

          k = 0.3929-0.1429-0.1355 (  3376 PWs)   bands (ev):

   -33.2268  -0.7749   3.2003   6.5738   8.0232   8.6662  10.1450  12.6433
    14.7447  15.5831  16.6940  18.7834

          k =-0.1071 0.0000 0.2129 (  3402 PWs)   bands (ev):

   -33.2290  -2.1379   5.2775   7.1090   8.3088  10.4981  11.9569  12.7857
    13.2426  15.1478  15.6914  16.5461

          k = 0.6429 0.0000-0.1936 (  3383 PWs)   bands (ev):

   -33.2270  -0.3139   2.1188   5.0096   8.7734   9.9165  11.8026  12.7389
    15.8115  17.3008  17.5811  17.7478

          k = 0.3929 0.0000-0.0581 (  3368 PWs)   bands (ev):

   -33.2273  -1.1248   3.4775   5.7561   9.7336  10.5327  11.1874  12.5181
    13.5098  13.5534  14.0366  18.6886

          k = 0.1429 0.1429 0.1549 (  3377 PWs)   bands (ev):

   -33.2286  -2.0481   6.1113   6.7043   7.9793  10.3012  10.7726  13.1840
    13.3392  14.4935  15.2392  16.4302

          k =-0.1071 0.1429 0.2904 (  3397 PWs)   bands (ev):

   -33.2283  -1.5528   4.1412   5.9928   7.1634  11.4645  12.5110  12.9967
    13.6207  15.6401  17.6479  17.8534

          k = 0.6429 0.1429-0.1161 (  3385 PWs)   bands (ev):

   -33.2265   0.4106   1.9263   4.1970   7.0214  11.0041  12.2213  13.5566
    14.7948  16.6239  17.8834  18.0454

          k = 0.3929 0.1429 0.0194 (  3376 PWs)   bands (ev):

   -33.2269  -0.9376   3.8425   5.6300   8.7444   9.0800  10.7541  11.5385
    14.0679  15.4048  16.0063  19.5348

          k = 0.1429 0.2857 0.2323 (  3388 PWs)   bands (ev):

   -33.2273  -1.1423   3.8791   6.0215   7.5371   9.3919  11.1840  13.2132
    14.0183  16.9039  17.0860  17.6667

          k =-0.1071 0.2857 0.3678 (  3387 PWs)   bands (ev):

   -33.2271  -0.4712   2.7586   4.5638   7.2636  11.2641  12.2950  13.2244
    15.4695  16.5698  17.2292  17.8359

          k = 0.6429 0.2857-0.0387 (  3407 PWs)   bands (ev):

   -33.2257   1.6196   2.1558   3.2867   5.6034   9.5347  12.1502  13.8188
    15.6345  16.1140  17.8191  18.0854

          k = 0.3929 0.2857 0.0968 (  3377 PWs)   bands (ev):

   -33.2259  -0.2181   4.0580   6.0658   6.0726   7.5455   9.9086  11.2747
    15.9067  17.3815  18.3232  19.4986

          k = 0.1429-0.5714-0.2323 (  3381 PWs)   bands (ev):

   -33.2264   0.0888   1.8772   5.9940   7.7536   8.5838  10.6000  14.2071
    15.1144  15.7342  16.9054  19.6663

          k =-0.1071-0.5714-0.0968 (  3386 PWs)   bands (ev):

   -33.2265   0.4479   1.6369   4.4433   7.9498  10.6452  11.8099  13.1392
    14.2279  16.5185  17.0622  18.1728

          k = 0.6429-0.5714-0.5033 (  3390 PWs)   bands (ev):

   -33.2251   1.7896   2.8669   3.2770   5.6711   7.6540  10.6970  13.4068
    15.2067  16.7054  18.9859  19.4634

          k = 0.3929-0.5714-0.3678 (  3376 PWs)   bands (ev):

   -33.2251   0.9907   3.6881   4.2538   5.3788   8.0958   9.6626  11.1979
    14.4148  18.6109  20.5054  21.8954

          k = 0.1429-0.4286-0.1549 (  3375 PWs)   bands (ev):

   -33.2266  -0.4538   2.6599   6.4026   8.0733   8.4675  10.2072  13.0994
    14.6526  15.9832  17.0411  18.1093

          k =-0.1071-0.4286-0.0194 (  3372 PWs)   bands (ev):

   -33.2268  -0.7471   3.2895   5.2150   9.0565   9.8684  11.0523  12.1388
    13.6090  14.8654  15.5551  19.4388

          k = 0.6429-0.4286-0.4259 (  3382 PWs)   bands (ev):

   -33.2252   0.5770   3.8740   4.9118   5.5520   7.3432   9.9053  11.4276
    15.5651  17.1786  19.8885  21.2481

          k = 0.3929-0.4286-0.2904 (  3375 PWs)   bands (ev):

   -33.2250   1.4129   3.0511   3.8522   5.6794   8.3849   9.9774  11.4399
    13.3361  20.1317  21.3374  21.4167

          k = 0.1429-0.2857-0.0774 (  3390 PWs)   bands (ev):

   -33.2276  -1.6051   5.0441   7.2306   7.9909   9.2559   9.8538  11.8131
    14.2837  14.8383  16.1003  17.7714

          k =-0.1071-0.2857 0.0581 (  3389 PWs)   bands (ev):

   -33.2279  -1.7229   5.0790   7.1126   8.5414   9.5807  10.2687  11.9107
    13.8904  14.2536  15.2358  17.6984

          k = 0.6429-0.2857-0.3484 (  3373 PWs)   bands (ev):

   -33.2260  -0.2213   3.8192   5.2193   7.0665   8.3469   9.1340  11.7177
    16.1366  17.6765  17.7952  19.6798

          k = 0.3929-0.2857-0.2129 (  3375 PWs)   bands (ev):

   -33.2258   0.1051   3.2677   5.3252   6.7649   8.2326   9.3080  11.9468
    15.4582  17.7840  18.4050  19.9274

          k = 0.2857-0.2857 0.0000 (  3368 PWs)   bands (ev):

   -33.2266  -1.0352   5.8463   6.2664   6.8431   7.1778  10.2847  10.6485
    14.4651  18.2092  18.5628  18.7754

          k = 0.0357-0.2857 0.1355 (  3386 PWs)   bands (ev):

   -33.2280  -1.6833   4.4204   7.7630   7.8795   9.4327  11.9234  12.5068
    13.6277  14.3485  14.7145  17.0209

          k = 0.7857-0.2857-0.2710 (  3381 PWs)   bands (ev):

   -33.2268  -0.6945   3.8576   5.0332   6.8664   9.6573  10.8187  13.0076
    15.1414  16.7634  17.3673  18.6321

          k = 0.5357-0.2857-0.1355 (  3386 PWs)   bands (ev):

   -33.2255   0.9844   2.3764   4.6969   6.2068   7.9914  10.9766  12.1311
    15.2040  17.1601  18.5321  20.2482

          k = 0.0357-0.1429 0.2129 (  3400 PWs)   bands (ev):

   -33.2288  -2.0343   5.2246   6.6831   8.2530  10.5975  11.8462  12.8787
    13.4522  15.3072  15.7530  16.1532

          k = 0.7857-0.1429-0.1936 (  3395 PWs)   bands (ev):

   -33.2275  -0.8539   3.3856   4.8941   6.6724  11.9526  12.5535  13.3785
    14.1221  15.7915  17.9149  18.8342

          k = 0.5357-0.1429-0.0581 (  3385 PWs)   bands (ev):

   -33.2263   0.3053   2.0854   4.4286   7.6473  10.2530  11.7858  12.9963
    13.8073  16.2052  17.2977  18.5106

          k = 0.0357 0.0000 0.2904 (  3424 PWs)   bands (ev):

   -33.2289  -1.8647   4.0282   7.5411   7.7505   9.5389  11.8479  14.2185
    14.4150  16.0292  16.8428  18.2759

          k = 0.7857 0.0000-0.1161 (  3390 PWs)   bands (ev):

   -33.2276  -0.5297   2.3033   4.6708   7.7020  10.4153  13.6649  14.2698
    15.2582  17.7278  18.0235  18.8194

          k = 0.5357 0.0000 0.0194 (  3384 PWs)   bands (ev):

   -33.2267   0.0782   1.9510   4.2209   9.2838  11.4407  11.7436  12.5303
    14.4877  14.5390  15.2635  19.5943

          k = 0.0357 0.1429 0.3678 (  3401 PWs)   bands (ev):

   -33.2282  -1.1795   2.9880   5.7513   7.4727  10.3148  12.8093  14.0145
    15.2605  17.1273  17.7298  18.8733

          k = 0.7857 0.1429-0.0387 (  3398 PWs)   bands (ev):

   -33.2272   0.1957   1.7668   4.4252   6.2954  12.2167  13.7343  14.3359
    15.3304  15.9857  17.2710  18.5686

          k = 0.5357 0.1429 0.0968 (  3387 PWs)   bands (ev):

   -33.2263   0.3115   1.9481   4.7288   7.6858   9.9178  11.3813  13.3602
    13.9929  16.5404  17.2977  17.9641

          k = 0.2857-0.7143-0.2323 (  3386 PWs)   bands (ev):

   -33.2263  -0.1234   3.9122   3.9860   6.4821   9.2393  11.1368  12.9168
    15.3393  16.2834  17.8252  20.2731

          k = 0.0357-0.7143-0.0968 (  3396 PWs)   bands (ev):

   -33.2272  -0.0279   1.9923   4.0668   7.8748  10.8833  12.9965  14.2726
    15.8066  17.0282  17.2840  17.9194

          k = 0.7857-0.7143-0.5033 (  3403 PWs)   bands (ev):

   -33.2264   0.8526   1.9793   3.6862   5.8248  11.5870  13.9260  14.0598
    14.6254  15.9629  16.5709  18.0312

          k = 0.5357-0.7143-0.3678 (  3385 PWs)   bands (ev):

   -33.2255   0.9677   2.2656   4.9584   6.3133   7.9233  10.5478  12.3694
    14.6833  17.4757  19.0313  20.1495

          k = 0.2857-0.5714-0.1549 (  3393 PWs)   bands (ev):

   -33.2255   1.0647   2.2718   4.4911   6.2077   8.2041  11.1634  12.4932
    14.6876  17.1870  19.0257  20.4289

          k = 0.0357-0.5714-0.0194 (  3392 PWs)   bands (ev):

   -33.2267   0.4196   1.6174   3.9891   8.7944  11.5864  11.9645  12.8301
    14.4719  15.3060  15.8541  19.4494

          k = 0.7857-0.5714-0.4259 (  3385 PWs)   bands (ev):

   -33.2259   0.7876   1.9581   4.5589   6.5675   9.2735  11.5431  13.0178
    15.3801  16.1513  17.8717  19.0413

          k = 0.5357-0.5714-0.2904 (  3368 PWs)   bands (ev):

   -33.2248   1.9034   2.9783   3.6342   5.1775   8.7765   9.8565  10.9375
    13.0847  21.0234  21.5297  21.8521

          k = 0.2857-0.4286-0.0774 (  3372 PWs)   bands (ev):

   -33.2257   0.0377   3.7531   5.4828   6.2941   7.4148  10.2616  11.4706
    15.8193  17.2180  18.3586  19.6388

          k = 0.0357-0.4286 0.0581 (  3369 PWs)   bands (ev):

   -33.2270  -0.8296   3.0444   5.3717   9.9915  10.0916  11.2605  12.5677
    13.4081  14.1107  14.5269  19.0380

          k = 0.7857-0.4286-0.3484 (  3380 PWs)   bands (ev):

   -33.2261  -0.0723   2.6658   6.6100   6.9013   7.9497   9.6880  12.6740
    16.1884  16.3541  17.4087  18.6337

          k = 0.5357-0.4286-0.2129 (  3372 PWs)   bands (ev):

   -33.2248   1.9983   2.8493   3.6416   5.2517   8.2634  10.4339  10.8860
    13.2165  20.3226  21.2760  22.0746

          k = 0.4286-0.4286 0.0000 (  3368 PWs)   bands (ev):

   -33.2249   1.0309   3.8608   5.0245   5.3765   5.9654   9.6866  12.7512
    15.8912  16.0408  19.8284  21.0374

          k = 0.1786-0.4286 0.1355 (  3380 PWs)   bands (ev):

   -33.2264  -0.3789   2.8944   6.1916   7.6307   8.4150  10.0627  12.4564
    15.4011  16.2733  17.3705  17.9528

          k = 0.9286-0.4286-0.2710 (  3381 PWs)   bands (ev):

   -33.2268  -0.2336   1.8825   6.5794   7.9452   9.0417  11.0561  12.9105
    15.3733  15.8721  17.3090  18.3703

          k = 0.6786-0.4286-0.1355 (  3387 PWs)   bands (ev):

   -33.2253   1.3651   2.4481   4.0523   6.0179   7.9107  11.3316  12.1455
    14.5416  17.7619  19.0622  20.4126

          k = 0.1786-0.2857 0.2129 (  3380 PWs)   bands (ev):

   -33.2272  -1.1067   4.1373   5.9651   7.5136   9.1171  10.5071  12.7365
    14.7248  16.9730  17.1726  18.1174

          k = 0.9286-0.2857-0.1936 (  3389 PWs)   bands (ev):

   -33.2273  -0.6652   2.8450   4.7648   7.7767  10.8313  12.1147  13.2585
    15.6380  16.6424  17.0871  17.9607

          k = 0.6786-0.2857-0.0581 (  3406 PWs)   bands (ev):

   -33.2258   1.2998   2.3902   3.2567   5.5709   9.9450  12.6573  13.9387
    15.3132  16.0353  17.4863  18.0976

          k = 0.1786-0.1429 0.2904 (  3393 PWs)   bands (ev):

   -33.2279  -1.3456   4.1812   5.4917   6.9146  11.7137  12.2663  12.9394
    13.6706  15.3632  18.1405  18.3345

          k = 0.9286-0.1429-0.1161 (  3401 PWs)   bands (ev):

   -33.2279  -0.7363   2.2900   5.5326   6.9869  10.5856  12.8733  14.8270
    15.5870  17.4277  18.7844  18.9775

          k = 0.6786-0.1429 0.0194 (  3398 PWs)   bands (ev):

   -33.2266   0.8958   1.5143   3.7016   6.6995  12.2348  12.8480  13.9607
    14.4007  16.7359  17.3913  17.8515

          k = 0.1786 0.0000 0.3678 (  3398 PWs)   bands (ev):

   -33.2280  -1.0766   2.9958   5.2979   7.7299  10.3422  13.1504  13.7625
    15.1576  17.1084  17.4231  18.6212

          k = 0.9286 0.0000-0.0387 (  3402 PWs)   bands (ev):

   -33.2281  -0.4771   1.4653   6.4624   7.1558   9.2280  11.9013  17.2015
    17.7767  18.8750  19.3265  19.4870

          k = 0.6786 0.0000 0.0968 (  3402 PWs)   bands (ev):

   -33.2270   0.1504   1.8054   3.9997   8.2489  10.8256  12.5679  13.8977
    16.5822  16.8096  16.8923  17.1764

          k = 0.1786-0.8571-0.0968 (  3393 PWs)   bands (ev):

   -33.2274  -0.3202   2.2275   4.8754   6.3372  11.9697  13.6803  13.8718
    14.9906  16.5335  17.3054  19.4321

          k = 0.9286-0.8571-0.5033 (  3388 PWs)   bands (ev):

   -33.2278  -0.2517   1.5738   5.4000   6.8666  10.4752  12.8538  15.7633
    16.4676  17.9645  18.4221  19.0758

          k = 0.6786-0.8571-0.3678 (  3380 PWs)   bands (ev):

   -33.2268  -0.1794   2.5549   4.5917   6.9934  10.7605  12.0017  13.5391
    15.3246  16.0995  17.4626  18.1226

          k = 0.1786-0.7143-0.0194 (  3399 PWs)   bands (ev):

   -33.2266   0.7923   1.7496   3.7728   6.1255  12.1988  13.3935  14.3400
    14.5665  16.0075  17.0172  17.8415

          k = 0.9286-0.7143-0.4259 (  3394 PWs)   bands (ev):

   -33.2271  -0.1287   2.1991   4.1630   7.5478  11.3084  12.6725  13.8720
    15.8241  16.7472  17.5509  17.7771

          k = 0.6786-0.7143-0.2904 (  3378 PWs)   bands (ev):

   -33.2261  -0.0205   3.6368   4.3254   6.7026   8.7087  10.6243  12.6186
    15.1794  16.8475  18.4824  19.8352

          k = 0.4286-0.5714-0.0774 (  3382 PWs)   bands (ev):

   -33.2249   2.3011   2.4768   3.6002   5.7097   6.9237  10.2673  13.0731
    14.3931  17.4489  19.6043  20.6142

          k = 0.1786-0.5714 0.0581 (  3386 PWs)   bands (ev):

   -33.2261   0.7314   1.9042   4.1579   6.9007  10.1538  12.1980  12.9512
    14.3369  16.7893  17.6372  18.4143

          k = 0.9286-0.5714-0.3484 (  3380 PWs)   bands (ev):

   -33.2267   0.0762   1.6251   5.4976   8.6182   9.3058  11.4281  12.7533
    15.6839  16.0897  17.1559  18.2745

          k = 0.6786-0.5714-0.2129 (  3380 PWs)   bands (ev):

   -33.2254   0.5943   3.0678   5.0505   6.0964   8.3425   9.3217  11.7334
    14.6642  18.7036  19.0369  20.5838

     the Fermi energy is    12.9202 ev

!    total energy              =     -39.62784581 Ry
     estimated scf accuracy    <          3.7E-10 Ry
     smearing contrib. (-TS)   =      -0.00035656 Ry
     internal energy E=F+TS    =     -39.62748924 Ry

     The total energy is F=E-TS. E is the sum of the following terms:
     one-electron contribution =      10.54525566 Ry
     hartree contribution      =       2.94187941 Ry
     xc contribution           =     -13.43894395 Ry
     ewald contribution        =     -39.67568037 Ry

     convergence has been achieved in   6 iterations

     Forces acting on atoms (cartesian axes, Ry/au):

     atom    1 type  1   force =     0.00000000    0.00000000    0.00000000
     atom    2 type  2   force =    -0.00000000    0.00000000   -0.00000000
     atom    3 type  2   force =     0.00000000   -0.00000000   -0.00000000
     atom    4 type  2   force =     0.00000000    0.00000000   -0.00000000
     The non-local contrib.  to forces
     atom    1 type  1   force =     0.00000000    0.00000000    0.00000000
     atom    2 type  2   force =     0.00000000    0.00000000   -0.00000000
     atom    3 type  2   force =    -0.00000000    0.00000000    0.00000000
     atom    4 type  2   force =     0.00000000   -0.00000000   -0.00000000
     The ionic contribution  to forces
     atom    1 type  1   force =    -0.00000000   -0.00000000    0.00000000
     atom    2 type  2   force =     0.00000000    0.00000000    0.00000000
     atom    3 type  2   force =     0.00000000    0.00000000    0.00000000
     atom    4 type  2   force =    -0.00000000   -0.00000000    0.00000000
     The local contribution  to forces
     atom    1 type  1   force =     0.00000000    0.00000000    0.00000000
     atom    2 type  2   force =    -0.00000000    0.00000000    0.00000000
     atom    3 type  2   force =     0.00000000    0.00000000    0.00000000
     atom    4 type  2   force =    -0.00000000   -0.00000000    0.00000000
     The core correction contribution to forces
     atom    1 type  1   force =     0.00000000    0.00000000    0.00000000
     atom    2 type  2   force =    -0.00000000    0.00000000    0.00000000
     atom    3 type  2   force =    -0.00000000   -0.00000000   -0.00000000
     atom    4 type  2   force =    -0.00000000    0.00000000    0.00000000
     The Hubbard contrib.    to forces
     atom    1 type  1   force =     0.00000000    0.00000000    0.00000000
     atom    2 type  2   force =     0.00000000    0.00000000    0.00000000
     atom    3 type  2   force =     0.00000000    0.00000000    0.00000000
     atom    4 type  2   force =     0.00000000    0.00000000    0.00000000
     The SCF correction term to forces
     atom    1 type  1   force =    -0.00000000   -0.00000000    0.00000000
     atom    2 type  2   force =     0.00000000   -0.00000000   -0.00000000
     atom    3 type  2   force =    -0.00000000    0.00000000    0.00000000
     atom    4 type  2   force =    -0.00000000   -0.00000000    0.00000000

     Total force =     0.000000     Total SCF correction =     0.000000


     Computing stress (Cartesian axis) and pressure

          total   stress  (Ry/bohr**3)                   (kbar)     P=      410.41
   0.00254427   0.00000000   0.00000000          374.28        0.00        0.00
   0.00000000   0.00254427   0.00000000            0.00      374.28        0.00
   0.00000000   0.00000000   0.00328124            0.00        0.00      482.69


     BFGS Geometry Optimization
     Energy error            =      0.0E+00 Ry
     Gradient error          =      3.1E-31 Ry/Bohr
     Cell gradient error     =      1.3E+02 kbar

     number of scf cycles    =   1
     number of bfgs steps    =   0

     enthalpy           new  =     -38.6755663359 Ry

     new trust radius        =       0.0715276445 bohr
ibrav =      7
 celldm(1) =      6.57815398
 celldm(3) =      1.87975158
Input lattice vectors:
     0.48931676    -0.48931676     0.91979396
     0.48931676     0.48931676     0.91979396
    -0.48931676    -0.48931676     0.91979396
New lattice vectors in INITIAL alat:
     0.48931676    -0.48931676     0.91979396
     0.48931676     0.48931676     0.91979396
    -0.48931676    -0.48931676     0.91979396
New lattice vectors in NEW alat (for information only):
     0.50000000    -0.50000000     0.93987579
     0.50000000     0.50000000     0.93987579
    -0.50000000    -0.50000000     0.93987579
Discrepancy in bohr =     0.000000    0.000000    0.000000
     new conv_thr            =       0.0000000100 Ry

     new unit-cell volume =    267.53621 a.u.^3 (    39.64478 Ang^3 )
     density =      3.81985 g/cm^3

CELL_PARAMETERS (alat=  6.72177461)
   0.489316762  -0.489316762   0.919793959
   0.489316762   0.489316762   0.919793959
  -0.489316762  -0.489316762   0.919793959

ATOMIC_POSITIONS (crystal)
Li            0.0000000000        0.0000000000        0.0000000000
Si           -0.5000000000        0.7500000000        0.2500000000
Si           -0.5000000000        1.2500000000        0.7500000000
Si           -0.0000000000        0.5000000000        0.5000000000



     Writing config-only to output data dir ./output/LiSi.save/
     NEW-OLD atomic charge density approx. for the potential
     extrapolated charge   14.29194, renormalised to   15.00000

     total cpu time spent up to now is       12.8 secs

     Self-consistent Calculation

     iteration #  1     ecut=    80.00 Ry     beta= 0.70
     Davidson diagonalization with overlap
     c_bands:  1 eigenvalues not converged
     c_bands:  1 eigenvalues not converged
     c_bands:  1 eigenvalues not converged
     ethr =  1.00E-06,  avg # of iterations =  9.4

     total cpu time spent up to now is       15.5 secs

     total energy              =     -39.58894225 Ry
     estimated scf accuracy    <       0.00046422 Ry

     iteration #  2     ecut=    80.00 Ry     beta= 0.70
     Davidson diagonalization with overlap
     ethr =  3.09E-06,  avg # of iterations =  3.1

     total cpu time spent up to now is       16.9 secs

     total energy              =     -39.59049400 Ry
     estimated scf accuracy    <       0.00037598 Ry

     iteration #  3     ecut=    80.00 Ry     beta= 0.70
     Davidson diagonalization with overlap
     ethr =  2.51E-06,  avg # of iterations =  1.0

     total cpu time spent up to now is       17.8 secs

     total energy              =     -39.59045489 Ry
     estimated scf accuracy    <       0.00009405 Ry

     iteration #  4     ecut=    80.00 Ry     beta= 0.70
     Davidson diagonalization with overlap
     ethr =  6.27E-07,  avg # of iterations =  2.0

     total cpu time spent up to now is       18.8 secs

     total energy              =     -39.59045639 Ry
     estimated scf accuracy    <       0.00000857 Ry

     iteration #  5     ecut=    80.00 Ry     beta= 0.70
     Davidson diagonalization with overlap
     ethr =  5.71E-08,  avg # of iterations =  2.0

     total cpu time spent up to now is       19.9 secs

     total energy              =     -39.59045783 Ry
     estimated scf accuracy    <       0.00000002 Ry

     iteration #  6     ecut=    80.00 Ry     beta= 0.70
     Davidson diagonalization with overlap
     ethr =  1.01E-10,  avg # of iterations =  5.1

     total cpu time spent up to now is       21.5 secs

     End of self-consistent calculation

          k = 0.0000 0.0000 0.0000 (  3385 PWs)   bands (ev):

   -32.5769  -2.4211   8.5827  10.1672  10.1672  11.5325  11.5325  11.6216
    12.2545  12.7352  13.3647  18.6510

          k =-0.2555-0.0000 0.1359 (  3383 PWs)   bands (ev):

   -32.5749  -1.5824   5.3927   7.9859   8.8824  10.0069  12.9957  13.0960
    14.2491  14.9441  15.3798  17.3190

          k = 0.5109 0.0000-0.2718 (  3372 PWs)   bands (ev):

   -32.5729   0.3268   1.8807   7.5793   7.6982  10.6730  11.7359  13.1055
    15.7447  17.8797  18.0097  19.0014

          k = 0.0000 0.1460 0.0777 (  3391 PWs)   bands (ev):

   -32.5762  -2.1456   7.3948   8.6813   9.9019  10.0118  12.1962  12.6832
    12.9827  14.1427  15.5335  16.3133

          k =-0.2555 0.1460 0.2136 (  3380 PWs)   bands (ev):

   -32.5741  -1.1022   4.9614   6.5695   8.0475  10.2274  11.9059  13.6916
    14.8075  17.0380  17.1401  18.6645

          k = 0.5109 0.1460-0.1941 (  3384 PWs)   bands (ev):

   -32.5724   0.5165   2.2121   6.5844   8.6014   8.8623  10.9769  14.8793
    15.3849  17.2563  17.4665  19.0740

          k = 0.2555 0.1460-0.0582 (  3385 PWs)   bands (ev):

   -32.5745  -1.5093   6.1832   7.9835   8.6230   9.7862  10.4099  12.2136
    14.6648  15.7137  16.7541  18.1133

          k = 0.0000 0.2920 0.1553 (  3388 PWs)   bands (ev):

   -32.5745  -1.3297   4.7262   7.8383   8.6073  10.0587  13.0415  13.1163
    14.8333  14.8696  15.5839  17.9202

          k =-0.2555 0.2920 0.2912 (  3382 PWs)   bands (ev):

   -32.5726  -0.0860   4.3697   4.9923   7.0630  10.1705  11.5043  13.5070
    16.7272  16.8943  18.4329  19.8872

          k = 0.5109 0.2920-0.1165 (  3386 PWs)   bands (ev):

   -32.5712   1.1129   3.1554   5.4587   6.7072   8.3617  11.2414  12.4231
    16.3445  17.5414  19.4225  21.1745

          k = 0.2555 0.2920 0.0194 (  3380 PWs)   bands (ev):

   -32.5731  -0.8874   6.2116   7.1335   7.5458   8.3815  10.6282  11.1126
    14.9130  18.6397  18.8852  19.5347

          k = 0.0000 0.4379 0.2330 (  3374 PWs)   bands (ev):

   -32.5731  -0.0821   2.4241   7.5652   7.8421  10.5045  12.0216  13.1140
    15.7107  16.6085  17.6848  19.4485

          k =-0.2555 0.4379 0.3689 (  3385 PWs)   bands (ev):

   -32.5716   1.1740   2.5423   5.4279   6.9416   9.0568  11.3637  13.7690
    15.4545  17.4335  19.7939  20.7099

          k = 0.5109 0.4379-0.0388 (  3372 PWs)   bands (ev):

   -32.5703   2.1558   3.6058   4.7313   6.0713   6.7507  10.3715  13.6844
    15.4840  17.2018  20.1682  22.5544

          k = 0.2555 0.4379 0.0971 (  3373 PWs)   bands (ev):

   -32.5718   0.2469   3.8703   6.2638   7.2495   8.4066  10.7228  12.0953
    16.3812  18.0829  18.6722  19.9221

          k = 0.1460-0.1460-0.0000 (  3401 PWs)   bands (ev):

   -32.5756  -1.9872   7.7885   8.6043   9.1493   9.8029  10.3496  12.1552
    14.9978  15.2605  15.4487  15.7158

          k =-0.1095-0.1460 0.1359 (  3384 PWs)   bands (ev):

   -32.5756  -1.9019   6.7828   7.7517   8.7322  10.7279  11.6047  13.7478
    13.9203  14.7964  15.8159  16.7594

          k = 0.6569-0.1460-0.2718 (  3390 PWs)   bands (ev):

   -32.5729  -0.1856   3.1977   6.3906   8.0985   9.5150  11.5876  14.6249
    15.1992  17.7702  18.0208  19.3309

          k = 0.4014-0.1460-0.1359 (  3376 PWs)   bands (ev):

   -32.5729  -0.4249   3.6282   7.0390   8.6076   9.1783  10.7611  13.2613
    15.6319  16.2306  17.6999  19.5353

          k =-0.1095-0.0000 0.2136 (  3402 PWs)   bands (ev):

   -32.5759  -1.8554   5.6250   7.6871   8.9180  11.2256  12.7027  13.4548
    13.8994  15.7349  16.5588  17.4192

          k = 0.6569 0.0000-0.1941 (  3383 PWs)   bands (ev):

   -32.5733   0.0159   2.5383   5.4145   9.4346  10.3785  12.6970  13.4954
    16.7851  18.0017  18.4625  18.5064

          k = 0.4014 0.0000-0.0582 (  3368 PWs)   bands (ev):

   -32.5735  -0.7836   3.8850   6.2323  10.1164  11.2656  11.8650  13.1185
    14.2289  14.3218  14.9701  19.6641

          k = 0.1460 0.1460 0.1553 (  3377 PWs)   bands (ev):

   -32.5753  -1.7520   6.5164   7.3123   8.4227  10.8932  11.4297  13.9541
    14.1540  15.1504  15.9248  17.4265

          k =-0.1095 0.1460 0.2912 (  3397 PWs)   bands (ev):

   -32.5749  -1.2645   4.4964   6.5898   7.7056  12.2255  13.2046  13.7149
    14.4394  16.3751  18.3082  18.7479

          k = 0.6569 0.1460-0.1165 (  3385 PWs)   bands (ev):

   -32.5726   0.7512   2.3336   4.6421   7.5980  11.6359  12.8244  14.4451
    15.5442  17.2680  18.7178  19.1129

          k = 0.4014 0.1460 0.0194 (  3376 PWs)   bands (ev):

   -32.5730  -0.5873   4.2521   6.1220   9.4281   9.6780  11.1525  12.0979
    14.6441  16.4536  16.9650  20.5527

          k = 0.1460 0.2920 0.2330 (  3388 PWs)   bands (ev):

   -32.5736  -0.8222   4.3489   6.4753   8.0272   9.9710  11.8896  13.8746
    14.9343  17.6137  17.8124  18.7688

          k =-0.1095 0.2920 0.3689 (  3387 PWs)   bands (ev):

   -32.5734  -0.1594   3.1766   5.0184   7.8457  11.8195  13.1373  14.0386
    16.1757  17.4803  18.0290  18.8334

          k = 0.6569 0.2920-0.0388 (  3407 PWs)   bands (ev):

   -32.5715   1.9921   2.5647   3.7969   6.0672  10.1853  12.8335  14.3364
    16.1600  16.8753  18.7318  19.0072

          k = 0.4014 0.2920 0.0971 (  3377 PWs)   bands (ev):

   -32.5717   0.1587   4.5104   6.5241   6.7054   8.0806  10.3655  11.8008
    16.4193  18.0472  19.4748  20.6380

          k = 0.1460-0.5839-0.2330 (  3381 PWs)   bands (ev):

   -32.5725   0.4524   2.2879   6.4280   8.2984   9.1434  11.2399  15.1551
    15.8268  16.4410  17.8262  20.3494

          k =-0.1095-0.5839-0.0971 (  3386 PWs)   bands (ev):

   -32.5725   0.8344   1.9950   4.8791   8.5773  11.1974  12.4295  13.9802
    14.9479  17.3256  18.0053  18.8642

          k = 0.6569-0.5839-0.5048 (  3390 PWs)   bands (ev):

   -32.5707   2.2452   3.2849   3.7524   6.1141   8.2357  11.3142  13.9032
    15.7115  17.2729  19.8036  20.5974

          k = 0.4014-0.5839-0.3689 (  3376 PWs)   bands (ev):

   -32.5706   1.4106   4.1789   4.7865   5.8236   8.6089  10.1284  11.7571
    14.9892  19.1479  21.7640  23.0975

          k = 0.1460-0.4379-0.1553 (  3375 PWs)   bands (ev):

   -32.5726  -0.0930   3.0733   6.8588   8.6658   8.9824  10.8154  13.7438
    15.5731  16.6897  17.9695  18.8361

          k =-0.1095-0.4379-0.0194 (  3372 PWs)   bands (ev):

   -32.5729  -0.3897   3.6782   5.6923   9.7466  10.4419  11.5092  12.7162
    14.2788  15.8201  16.4954  20.4352

          k = 0.6569-0.4379-0.4271 (  3382 PWs)   bands (ev):

   -32.5708   0.9853   4.3445   5.4891   5.9902   7.8583  10.4053  11.9407
    16.1357  17.7316  21.1289  22.3063

          k = 0.4014-0.4379-0.2912 (  3375 PWs)   bands (ev):

   -32.5705   1.8350   3.5434   4.3479   6.1419   8.8665  10.5011  11.9985
    13.9160  21.2119  21.8858  22.2799

          k = 0.1460-0.2920-0.0777 (  3390 PWs)   bands (ev):

   -32.5740  -1.2834   5.5156   7.7275   8.5780   9.6862  10.5321  12.3385
    14.8699  15.7731  17.0597  18.8227

          k =-0.1095-0.2920 0.0582 (  3389 PWs)   bands (ev):

   -32.5743  -1.4049   5.5445   7.6254   9.0715  10.0426  10.9818  12.4074
    14.5325  15.1451  16.1858  18.7338

          k = 0.6569-0.2920-0.3495 (  3373 PWs)   bands (ev):

   -32.5718   0.1446   4.2997   5.7333   7.6155   8.7918   9.6758  12.2988
    16.7871  18.3211  18.7898  20.7028

          k = 0.4014-0.2920-0.2136 (  3375 PWs)   bands (ev):

   -32.5716   0.4819   3.7308   5.8554   7.2991   8.6688   9.8551  12.5355
    16.1053  18.8028  19.0266  21.0901

          k = 0.2920-0.2920-0.0000 (  3368 PWs)   bands (ev):

   -32.5727  -0.6878   6.2501   6.8734   7.3291   7.8721  10.8023  10.9971
    15.0369  19.3092  19.6467  19.7679

          k = 0.0365-0.2920 0.1359 (  3386 PWs)   bands (ev):

   -32.5745  -1.3701   4.8888   8.1464   8.3734  10.0703  12.6744  13.3707
    14.2200  14.9269  15.6314  18.0355

          k = 0.8029-0.2920-0.2718 (  3381 PWs)   bands (ev):

   -32.5729  -0.3640   4.3332   5.5325   7.2958  10.3093  11.4154  13.6030
    16.1682  17.5738  18.2431  19.1613

          k = 0.5474-0.2920-0.1359 (  3386 PWs)   bands (ev):

   -32.5712   1.4009   2.7846   5.2161   6.6723   8.5727  11.4829  12.7419
    15.7836  17.8967  19.5354  21.3676

          k = 0.0365-0.1460 0.2136 (  3400 PWs)   bands (ev):

   -32.5756  -1.7475   5.5979   7.2254   8.8537  11.2103  12.7155  13.5295
    14.1712  15.8442  16.6498  17.0253

          k = 0.8029-0.1460-0.1941 (  3395 PWs)   bands (ev):

   -32.5739  -0.5536   3.7663   5.4417   7.2013  12.5797  13.3775  14.2018
    14.8467  16.5863  18.7330  19.9048

          k = 0.5474-0.1460-0.0582 (  3385 PWs)   bands (ev):

   -32.5723   0.7003   2.4380   4.8827   8.2645  10.8813  12.2745  13.6675
    14.5813  17.0464  18.3102  19.1966

          k = 0.0365-0.0000 0.2912 (  3424 PWs)   bands (ev):

   -32.5758  -1.5898   4.3587   8.1508   8.3556  10.4093  12.4566  14.8881
    15.0696  16.9748  17.4550  19.1723

          k = 0.8029 0.0000-0.1165 (  3390 PWs)   bands (ev):

   -32.5741  -0.2474   2.6692   5.1968   8.3263  11.1887  14.3386  15.0847
    16.0769  18.7147  18.7763  19.6669

          k = 0.5474-0.0000 0.0194 (  3384 PWs)   bands (ev):

   -32.5728   0.4651   2.2863   4.6679   9.9822  11.9144  12.4144  13.2302
    15.2778  15.2948  16.2085  20.5874

          k = 0.0365 0.1460 0.3689 (  3401 PWs)   bands (ev):

   -32.5748  -0.9014   3.3342   6.3276   8.0787  11.1287  13.5242  14.7185
    16.0251  17.8829  18.7458  19.5810

          k = 0.8029 0.1460-0.0388 (  3398 PWs)   bands (ev):

   -32.5735   0.4684   2.1509   4.9848   6.8410  13.1000  14.5066  15.1518
    15.9538  16.8208  17.8809  19.3505

          k = 0.5474 0.1460 0.0971 (  3387 PWs)   bands (ev):

   -32.5723   0.7033   2.3124   5.1752   8.2998  10.5120  11.9097  14.0558
    14.8126  17.3239  18.2938  18.6538

          k = 0.2920-0.7299-0.2330 (  3386 PWs)   bands (ev):

   -32.5722   0.2221   4.4228   4.4549   6.8969   9.9039  11.6898  13.4918
    16.0541  17.3767  18.7661  20.6140

          k = 0.0365-0.7299-0.0971 (  3396 PWs)   bands (ev):

   -32.5735   0.2712   2.3826   4.5391   8.5072  11.6164  13.6436  15.0519
    16.7256  17.8641  18.2837  18.7429

          k = 0.8029-0.7299-0.5048 (  3403 PWs)   bands (ev):

   -32.5725   1.1579   2.3860   4.2173   6.3264  12.3074  14.6689  14.8160
    15.3578  16.6521  17.3091  18.8126

          k = 0.5474-0.7299-0.3689 (  3385 PWs)   bands (ev):

   -32.5712   1.3785   2.6835   5.4918   6.7742   8.4782  11.0511  13.0001
    15.2703  18.3615  19.8992  21.2351

          k = 0.2920-0.5839-0.1553 (  3393 PWs)   bands (ev):

   -32.5712   1.4675   2.6966   5.0017   6.6578   8.8006  11.6754  13.1335
    15.2613  18.0824  19.8833  21.4964

          k = 0.0365-0.5839-0.0194 (  3392 PWs)   bands (ev):

   -32.5728   0.8172   1.9393   4.4332   9.4700  12.2179  12.5431  13.5213
    15.2408  16.0973  16.8203  20.5914

          k = 0.8029-0.5839-0.4271 (  3385 PWs)   bands (ev):

   -32.5718   1.1848   2.3441   5.0271   7.1001   9.9038  12.0464  13.6947
    16.2500  16.7539  18.6946  20.1137

          k = 0.5474-0.5839-0.2912 (  3368 PWs)   bands (ev):

   -32.5703   2.3500   3.4702   4.1421   5.6040   9.2663  10.3749  11.4755
    13.6512  21.7832  22.4040  22.7050

          k = 0.2920-0.4379-0.0777 (  3372 PWs)   bands (ev):

   -32.5715   0.4261   4.1856   6.0233   6.8212   7.9643  10.7697  11.9595
    16.3416  17.8637  19.5373  20.7612

          k = 0.0365-0.4379 0.0582 (  3369 PWs)   bands (ev):

   -32.5732  -0.4769   3.4349   5.8374  10.3997  10.8230  11.9107  13.2027
    14.1690  14.8665  15.4503  20.0063

          k = 0.8029-0.4379-0.3495 (  3380 PWs)   bands (ev):

   -32.5720   0.2999   3.0938   7.0747   7.5578   8.3617  10.2614  13.2977
    16.9512  17.2539  18.1096  19.6219

          k = 0.5474-0.4379-0.2136 (  3372 PWs)   bands (ev):

   -32.5703   2.4482   3.3426   4.1359   5.6827   8.7627  10.9505  11.4313
    13.7695  20.9220  22.5623  22.7139

          k = 0.4379-0.4379-0.0000 (  3368 PWs)   bands (ev):

   -32.5704   1.4634   4.4120   5.3951   5.9539   6.4143  10.2535  13.1902
    16.4300  16.6006  20.5089  22.3419

          k = 0.1825-0.4379 0.1359 (  3380 PWs)   bands (ev):

   -32.5724  -0.0128   3.3114   6.6571   8.2933   8.8880  10.6011  13.0794
    16.1793  17.0706  18.3522  18.7162

          k = 0.9488-0.4379-0.2718 (  3381 PWs)   bands (ev):

   -32.5729   0.1210   2.2899   6.9864   8.3813   9.7336  11.7512  13.8311
    16.2760  16.5951  18.0354  19.0983

          k = 0.6934-0.4379-0.1359 (  3387 PWs)   bands (ev):

   -32.5710   1.7827   2.8804   4.5567   6.4556   8.4982  11.8843  12.7269
    15.0910  18.4981  20.1062  21.2521

          k = 0.1825-0.2920 0.2136 (  3380 PWs)   bands (ev):

   -32.5734  -0.7814   4.6166   6.4628   7.9380   9.7149  11.1733  13.3424
    15.7137  17.4619  18.0945  19.2027

          k = 0.9488-0.2920-0.1941 (  3389 PWs)   bands (ev):

   -32.5737  -0.3553   3.2684   5.2019   8.3844  11.3685  12.9945  14.0436
    16.3820  17.5124  18.0773  18.7587

          k = 0.6934-0.2920-0.0582 (  3406 PWs)   bands (ev):

   -32.5717   1.6463   2.8063   3.7820   6.0301  10.6131  13.3589  14.4865
    15.8336  16.9297  18.3251  18.9733

          k = 0.1825-0.1460 0.2912 (  3393 PWs)   bands (ev):

   -32.5744  -1.0484   4.5560   6.0725   7.4226  12.3269  12.9674  13.8626
    14.4245  16.1297  18.6539  19.3945

          k = 0.9488-0.1460-0.1165 (  3401 PWs)   bands (ev):

   -32.5745  -0.4644   2.6415   6.1204   7.5740  11.4357  13.5971  15.5405
    16.3568  18.1573  19.7980  19.8761

          k = 0.6934-0.1460 0.0194 (  3398 PWs)   bands (ev):

   -32.5727   1.1942   1.9255   4.1837   7.2721  12.9500  13.6669  14.5108
    15.1709  17.6775  18.1654  18.5118

          k = 0.1825 0.0000 0.3689 (  3398 PWs)   bands (ev):

   -32.5746  -0.7937   3.3516   5.8441   8.3482  11.1126  13.8661  14.5172
    15.9531  17.8094  18.4779  19.3491

          k = 0.9488 0.0000-0.0388 (  3402 PWs)   bands (ev):

   -32.5748  -0.2352   1.8267   7.0735   7.7624  10.0908  12.5755  17.9060
    18.5582  19.8052  20.1418  20.3568

          k = 0.6934 0.0000 0.0971 (  3402 PWs)   bands (ev):

   -32.5733   0.4629   2.2014   4.4469   8.8981  11.5124  13.2204  14.6687
    17.5929  17.6994  17.7157  18.0310

          k = 0.1825-0.8759-0.0971 (  3393 PWs)   bands (ev):

   -32.5739  -0.0388   2.5924   5.4602   6.8734  12.8607  14.3954  14.6932
    15.6579  17.2693  18.0852  20.2973

          k = 0.9488-0.8759-0.5048 (  3388 PWs)   bands (ev):

   -32.5743   0.0004   1.9425   5.9893   7.4552  11.3338  13.5922  16.4964
    17.2110  18.8408  19.1342  19.9321

          k = 0.6934-0.8759-0.3689 (  3380 PWs)   bands (ev):

   -32.5729   0.1472   2.9852   5.0354   7.5511  11.3592  12.6660  14.4633
    15.9907  16.8688  18.4358  19.1284

          k = 0.1825-0.7299-0.0194 (  3399 PWs)   bands (ev):

   -32.5727   1.0832   2.1588   4.2912   6.6581  12.9319  14.2583  15.0518
    15.1959  16.8828  17.6185  18.6265

          k = 0.9488-0.7299-0.4271 (  3394 PWs)   bands (ev):

   -32.5734   0.1751   2.5943   4.6330   8.1611  12.0063  13.3983  14.6295
    16.7110  17.5834  18.4043  18.6258

          k = 0.6934-0.7299-0.2912 (  3378 PWs)   bands (ev):

   -32.5720   0.3349   4.1328   4.8137   7.1140   9.3432  11.1724  13.1948
    15.8701  17.9456  19.4722  20.3372

          k = 0.4379-0.5839-0.0777 (  3382 PWs)   bands (ev):

   -32.5703   2.7620   2.9811   4.0175   6.1468   7.4683  10.8553  13.6036
    14.8691  18.0139  20.2508  21.9516

          k = 0.1825-0.5839 0.0582 (  3386 PWs)   bands (ev):

   -32.5721   1.1380   2.2529   4.6188   7.4753  10.8087  12.6925  13.6250
    15.1186  17.6202  18.3086  19.4733

          k = 0.9488-0.5839-0.3495 (  3380 PWs)   bands (ev):

   -32.5728   0.4367   2.0204   5.9110   9.1947   9.8542  12.1297  13.6534
    16.6068  16.8739  17.8226  19.0264

          k = 0.6934-0.5839-0.2136 (  3380 PWs)   bands (ev):

   -32.5711   0.9922   3.5264   5.5980   6.5923   8.7991   9.8347  12.3193
    15.2771  19.3915  20.0454  21.7583

     the Fermi energy is    13.6088 ev

!    total energy              =     -39.59045788 Ry
     estimated scf accuracy    <          3.0E-09 Ry
     smearing contrib. (-TS)   =      -0.00006896 Ry
     internal energy E=F+TS    =     -39.59038892 Ry

     The total energy is F=E-TS. E is the sum of the following terms:
     one-electron contribution =      11.34981310 Ry
     hartree contribution      =       2.91088671 Ry
     xc contribution           =     -13.56005834 Ry
     ewald contribution        =     -40.29103038 Ry

     convergence has been achieved in   6 iterations

     Forces acting on atoms (cartesian axes, Ry/au):

     atom    1 type  1   force =     0.00000000    0.00000000    0.00000000
     atom    2 type  2   force =    -0.00000000    0.00000000    0.00000000
     atom    3 type  2   force =     0.00000000    0.00000000    0.00000000
     atom    4 type  2   force =     0.00000000   -0.00000000   -0.00000000
     The non-local contrib.  to forces
     atom    1 type  1   force =     0.00000000    0.00000000   -0.00000000
     atom    2 type  2   force =     0.00000000    0.00000000   -0.00000000
     atom    3 type  2   force =    -0.00000000    0.00000000    0.00000000
     atom    4 type  2   force =     0.00000000    0.00000000    0.00000000
     The ionic contribution  to forces
     atom    1 type  1   force =    -0.00000000   -0.00000000    0.00000000
     atom    2 type  2   force =    -0.00000000   -0.00000000    0.00000000
     atom    3 type  2   force =     0.00000000    0.00000000    0.00000000
     atom    4 type  2   force =    -0.00000000   -0.00000000    0.00000000
     The local contribution  to forces
     atom    1 type  1   force =    -0.00000000    0.00000000    0.00000000
     atom    2 type  2   force =    -0.00000000   -0.00000000    0.00000000
     atom    3 type  2   force =     0.00000000    0.00000000    0.00000000
     atom    4 type  2   force =    -0.00000000   -0.00000000    0.00000000
     The core correction contribution to forces
     atom    1 type  1   force =     0.00000000    0.00000000    0.00000000
     atom    2 type  2   force =     0.00000000   -0.00000000   -0.00000000
     atom    3 type  2   force =    -0.00000000   -0.00000000   -0.00000000
     atom    4 type  2   force =     0.00000000    0.00000000    0.00000000
     The Hubbard contrib.    to forces
     atom    1 type  1   force =     0.00000000    0.00000000    0.00000000
     atom    2 type  2   force =     0.00000000    0.00000000    0.00000000
     atom    3 type  2   force =     0.00000000    0.00000000    0.00000000
     atom    4 type  2   force =     0.00000000    0.00000000    0.00000000
     The SCF correction term to forces
     atom    1 type  1   force =     0.00000000    0.00000000   -0.00000000
     atom    2 type  2   force =    -0.00000000   -0.00000000    0.00000000
     atom    3 type  2   force =     0.00000000    0.00000000   -0.00000000
     atom    4 type  2   force =     0.00000000    0.00000000   -0.00000000

     Total force =     0.000000     Total SCF correction =     0.000000


     Computing stress (Cartesian axis) and pressure

          total   stress  (Ry/bohr**3)                   (kbar)     P=      521.92
   0.00331914   0.00000000  -0.00000000          488.26        0.00       -0.00
   0.00000000   0.00331914  -0.00000000            0.00      488.26       -0.00
   0.00000000  -0.00000000   0.00400555            0.00       -0.00      589.24

     Energy error            =      5.6E-03 Ry
     Gradient error          =      3.8E-31 Ry/Bohr
     Cell gradient error     =      8.9E+01 kbar

     number of scf cycles    =   2
     number of bfgs steps    =   1

     enthalpy           old  =     -38.6755663359 Ry
     enthalpy           new  =     -38.6811207867 Ry

     CASE: enthalpy          _new < enthalpy          _old

     new trust radius        =       0.0473574699 bohr
ibrav =      7
 celldm(1) =      6.52752386
 celldm(3) =      1.92175522
Input lattice vectors:
     0.48555063    -0.48555063     0.93310947
     0.48555063     0.48555063     0.93310947
    -0.48555063    -0.48555063     0.93310947
New lattice vectors in INITIAL alat:
     0.48555063    -0.48555063     0.93310947
     0.48555063     0.48555063     0.93310947
    -0.48555063    -0.48555063     0.93310947
New lattice vectors in NEW alat (for information only):
     0.50000000    -0.50000000     0.96087761
     0.50000000     0.50000000     0.96087761
    -0.50000000    -0.50000000     0.96087761
Discrepancy in bohr =     0.000000    0.000000    0.000000
     new conv_thr            =            1.0E-10 Ry

     new unit-cell volume =    267.24739 a.u.^3 (    39.60198 Ang^3 )
     density =      3.82398 g/cm^3

CELL_PARAMETERS (alat=  6.72177461)
   0.485550635  -0.485550635   0.933109467
   0.485550635   0.485550635   0.933109467
  -0.485550635  -0.485550635   0.933109467

ATOMIC_POSITIONS (crystal)
Li            0.0000000000        0.0000000000        0.0000000000
Si           -0.5000000000        0.7500000000        0.2500000000
Si           -0.5000000000        1.2500000000        0.7500000000
Si           -0.0000000000        0.5000000000        0.5000000000



     Writing config-only to output data dir ./output/LiSi.save/
     NEW-OLD atomic charge density approx. for the potential
     extrapolated charge   14.98380, renormalised to   15.00000

     total cpu time spent up to now is       23.2 secs

     Self-consistent Calculation

     iteration #  1     ecut=    80.00 Ry     beta= 0.70
     Davidson diagonalization with overlap
     ethr =  1.00E-06,  avg # of iterations =  7.8

     Threshold (ethr) on eigenvalues was too large:
     Diagonalizing with lowered threshold

     Davidson diagonalization with overlap
     ethr =  7.40E-08,  avg # of iterations =  2.3

     total cpu time spent up to now is       26.3 secs

     total energy              =     -39.59176658 Ry
     estimated scf accuracy    <       0.00001115 Ry

     iteration #  2     ecut=    80.00 Ry     beta= 0.70
     Davidson diagonalization with overlap
     ethr =  7.43E-08,  avg # of iterations =  2.0

     total cpu time spent up to now is       27.2 secs

     total energy              =     -39.59176771 Ry
     estimated scf accuracy    <       0.00000094 Ry

     iteration #  3     ecut=    80.00 Ry     beta= 0.70
     Davidson diagonalization with overlap
     ethr =  6.26E-09,  avg # of iterations =  1.8

     total cpu time spent up to now is       28.2 secs

     total energy              =     -39.59176781 Ry
     estimated scf accuracy    <       0.00000004 Ry

     iteration #  4     ecut=    80.00 Ry     beta= 0.70
     Davidson diagonalization with overlap
     ethr =  2.70E-10,  avg # of iterations =  3.1

     total cpu time spent up to now is       29.4 secs

     total energy              =     -39.59176782 Ry
     estimated scf accuracy    <          2.4E-09 Ry

     iteration #  5     ecut=    80.00 Ry     beta= 0.70
     Davidson diagonalization with overlap
     ethr =  1.60E-11,  avg # of iterations =  2.9

     total cpu time spent up to now is       30.5 secs

     total energy              =     -39.59176782 Ry
     estimated scf accuracy    <          1.8E-10 Ry

     iteration #  6     ecut=    80.00 Ry     beta= 0.70
     Davidson diagonalization with overlap
     ethr =  1.22E-12,  avg # of iterations =  2.4

     total cpu time spent up to now is       31.6 secs

     End of self-consistent calculation

          k = 0.0000 0.0000 0.0000 (  3385 PWs)   bands (ev):

   -32.5694  -2.4188   8.3304  10.2044  10.2044  11.2947  11.6371  11.6371
    12.4290  12.7405  13.4957  18.8330

          k =-0.2574-0.0000 0.1340 (  3383 PWs)   bands (ev):

   -32.5673  -1.5747   5.4022   7.8007   8.8787  10.1091  13.1000  13.2498
    13.9389  15.0972  15.5247  17.5183

          k = 0.5149 0.0000-0.2679 (  3372 PWs)   bands (ev):

   -32.5652   0.3568   1.8802   7.4222   7.6390  10.8510  11.8739  13.3380
    15.8326  17.8533  18.0375  18.8496

          k = 0.0000 0.1471 0.0765 (  3391 PWs)   bands (ev):

   -32.5686  -2.1415   7.3210   8.5551   9.9380  10.0824  12.2772  12.3940
    13.0956  14.2490  15.6703  16.5448

          k =-0.2574 0.1471 0.2105 (  3380 PWs)   bands (ev):

   -32.5664  -1.0994   4.9714   6.5270   8.0537  10.2164  11.9821  13.7292
    14.9869  16.7786  17.2550  18.8710

          k = 0.5149 0.1471-0.1914 (  3384 PWs)   bands (ev):

   -32.5646   0.5535   2.2083   6.5317   8.5915   8.9141  11.0068  14.8703
    15.6193  17.2468  17.4528  18.9235

          k = 0.2574 0.1471-0.0574 (  3385 PWs)   bands (ev):

   -32.5668  -1.4930   6.1793   8.0288   8.5846   9.6187  10.5053  12.0897
    14.6254  15.8725  16.9643  18.2922

          k = 0.0000 0.2942 0.1531 (  3388 PWs)   bands (ev):

   -32.5668  -1.3203   4.7400   7.6564   8.5905  10.1712  13.1828  13.2868
    14.5202  14.9680  15.7438  18.1118

          k =-0.2574 0.2942 0.2871 (  3382 PWs)   bands (ev):

   -32.5649  -0.0835   4.3948   5.0431   7.0255  10.2396  11.4345  13.4552
    16.7751  17.1238  18.6084  19.4953

          k = 0.5149 0.2942-0.1148 (  3386 PWs)   bands (ev):

   -32.5634   1.1673   3.1477   5.5123   6.7677   8.3602  11.1009  12.3610
    16.1811  17.3718  19.6618  21.3755

          k = 0.2574 0.2942 0.0191 (  3380 PWs)   bands (ev):

   -32.5653  -0.8591   6.1946   7.1545   7.5917   8.5174  10.3934  10.9943
    14.7620  18.8617  19.1286  19.7200

          k = 0.0000 0.4413 0.2296 (  3374 PWs)   bands (ev):

   -32.5654  -0.0607   2.4319   7.4102   7.7824  10.6632  12.1778  13.3387
    15.7826  16.6194  17.4908  19.4416

          k =-0.2574 0.4413 0.3636 (  3385 PWs)   bands (ev):

   -32.5638   1.2012   2.5628   5.4525   6.9831   9.0694  11.2513  13.7437
    15.3646  17.6148  19.6493  20.8199

          k = 0.5149 0.4413-0.0383 (  3372 PWs)   bands (ev):

   -32.5623   2.2333   3.7029   4.7032   6.0974   6.7529  10.3248  13.4729
    15.2755  16.9200  19.9573  22.9655

          k = 0.2574 0.4413 0.0957 (  3373 PWs)   bands (ev):

   -32.5640   0.2900   3.8610   6.2923   7.3592   8.4066  10.5575  12.0306
    16.1422  17.9920  18.9376  20.1267

          k = 0.1471-0.1471-0.0000 (  3401 PWs)   bands (ev):

   -32.5680  -1.9775   7.7382   8.6306   9.2379   9.5758  10.3502  11.9978
    15.1427  15.3503  15.6595  15.8660

          k =-0.1103-0.1471 0.1340 (  3384 PWs)   bands (ev):

   -32.5681  -1.8999   6.6645   7.8060   8.7136  10.7504  11.6324  13.7032
    13.9656  14.8359  15.9336  16.8893

          k = 0.6620-0.1471-0.2679 (  3390 PWs)   bands (ev):

   -32.5652  -0.1778   3.2260   6.3151   8.1517   9.4922  11.6755  14.6572
    15.3482  17.7619  18.0357  19.2709

          k = 0.4045-0.1471-0.1340 (  3376 PWs)   bands (ev):

   -32.5652  -0.3969   3.6274   7.0243   8.5314   9.2401  10.7914  13.2300
    15.7034  16.2022  17.8400  19.4847

          k =-0.1103-0.0000 0.2105 (  3402 PWs)   bands (ev):

   -32.5684  -1.8668   5.4626   7.7703   9.0326  11.3546  12.7837  13.5315
    13.9178  15.3389  16.6326  17.6360

          k = 0.6620-0.0000-0.1914 (  3383 PWs)   bands (ev):

   -32.5656   0.0071   2.5577   5.3474   9.5938  10.2893  12.8678  13.6493
    16.9126  17.9390  18.5790  18.5948

          k = 0.4045-0.0000-0.0574 (  3368 PWs)   bands (ev):

   -32.5658  -0.7553   3.8520   6.2376   9.8860  11.4262  11.9755  13.0320
    14.3311  14.3700  15.0915  19.7794

          k = 0.1471 0.1471 0.1531 (  3377 PWs)   bands (ev):

   -32.5677  -1.7503   6.3984   7.4077   8.3774  10.9043  11.4626  13.8898
    14.3728  15.1043  15.9573  17.5579

          k =-0.1103 0.1471 0.2871 (  3397 PWs)   bands (ev):

   -32.5674  -1.2858   4.3775   6.7059   7.7849  12.3582  13.2747  13.7354
    14.5901  16.3740  17.9624  18.8346

          k = 0.6620 0.1471-0.1148 (  3385 PWs)   bands (ev):

   -32.5649   0.7313   2.3462   4.6405   7.7117  11.6080  12.8302  14.6215
    15.5679  17.1741  18.6194  19.3554

          k = 0.4045 0.1471 0.0191 (  3376 PWs)   bands (ev):

   -32.5652  -0.5544   4.2118   6.1510   9.5663   9.6917  10.9447  12.0116
    14.5859  16.6863  17.1131  20.7205

          k = 0.1471 0.2942 0.2296 (  3388 PWs)   bands (ev):

   -32.5660  -0.8184   4.3725   6.4123   8.0528   9.9544  11.9841  13.8892
    15.1151  17.3071  18.0066  18.9598

          k =-0.1103 0.2942 0.3636 (  3387 PWs)   bands (ev):

   -32.5658  -0.1849   3.1696   5.0218   7.9595  11.7677  13.3226  14.1348
    16.1941  17.6101  18.0778  18.9884

          k = 0.6620 0.2942-0.0383 (  3407 PWs)   bands (ev):

   -32.5637   1.9628   2.5805   3.8868   6.1073  10.2321  12.8537  14.1466
    15.9689  16.8702  18.7316  19.1622

          k = 0.4045 0.2942 0.0957 (  3377 PWs)   bands (ev):

   -32.5639   0.2005   4.5142   6.5507   6.8145   8.0861  10.2004  11.7082
    16.1498  17.9352  19.7797  20.8764

          k = 0.1471-0.5884-0.2296 (  3381 PWs)   bands (ev):

   -32.5647   0.4719   2.3043   6.3587   8.3572   9.1276  11.2979  15.3798
    15.7857  16.4409  17.9371  20.0189

          k =-0.1103-0.5884-0.0957 (  3386 PWs)   bands (ev):

   -32.5648   0.8682   1.9599   4.8633   8.7181  11.0979  12.4622  14.1334
    14.9694  17.2475  18.1007  18.7824

          k = 0.6620-0.5884-0.4976 (  3390 PWs)   bands (ev):

   -32.5628   2.3148   3.2666   3.8167   6.1431   8.2536  11.2996  13.6979
    15.5080  17.0255  19.7024  20.8946

          k = 0.4045-0.5884-0.3636 (  3376 PWs)   bands (ev):

   -32.5627   1.4654   4.2308   4.8644   5.8505   8.5617   9.9763  11.6771
    14.8712  18.8075  22.1366  22.8557

          k = 0.1471-0.4413-0.1531 (  3375 PWs)   bands (ev):

   -32.5649  -0.0614   3.0711   6.8299   8.5746   9.0883  10.8366  13.7244
    15.7589  16.5969  18.0295  18.7848

          k =-0.1103-0.4413-0.0191 (  3372 PWs)   bands (ev):

   -32.5652  -0.3538   3.6292   5.7120   9.9144  10.3637  11.3853  12.6221
    14.3441  15.9614  16.6288  20.5664

          k = 0.6620-0.4413-0.4210 (  3382 PWs)   bands (ev):

   -32.5630   1.0393   4.3703   5.5883   6.0096   7.8379  10.2791  11.8193
    15.9666  17.4633  21.4925  22.1125

          k = 0.4045-0.4413-0.2871 (  3375 PWs)   bands (ev):

   -32.5627   1.8795   3.6152   4.4064   6.1795   8.7614  10.4035  11.8946
    13.8566  21.2251  21.4918  22.2688

          k = 0.1471-0.2942-0.0765 (  3390 PWs)   bands (ev):

   -32.5664  -1.2645   5.5148   7.7618   8.5231   9.5770  10.6266  12.2382
    14.7602  15.9523  17.2713  19.0315

          k =-0.1103-0.2942 0.0574 (  3389 PWs)   bands (ev):

   -32.5666  -1.3869   5.5349   7.6561   8.9556   9.9764  11.0993  12.2619
    14.5114  15.2977  16.4019  18.9372

          k = 0.6620-0.2942-0.3445 (  3373 PWs)   bands (ev):

   -32.5640   0.1740   4.3394   5.7841   7.6863   8.6597   9.6273  12.2517
    16.6730  18.0205  19.0766  20.9550

          k = 0.4045-0.2942-0.2105 (  3375 PWs)   bands (ev):

   -32.5638   0.5144   3.7671   5.9173   7.3691   8.5315   9.8034  12.4828
    16.0240  18.5823  19.2084  21.3251

          k = 0.2942-0.2942-0.0000 (  3368 PWs)   bands (ev):

   -32.5649  -0.6560   6.2289   6.8772   7.3885   8.0134  10.7221  10.7257
    14.8688  19.6289  19.8033  19.9609

          k = 0.0368-0.2942 0.1340 (  3386 PWs)   bands (ev):

   -32.5668  -1.3587   4.8995   7.9580   8.3624  10.1696  12.8099  13.5181
    14.0378  14.9249  15.7980  18.2364

          k = 0.8091-0.2942-0.2679 (  3381 PWs)   bands (ev):

   -32.5653  -0.3614   4.3597   5.5561   7.2680  10.3453  11.4018  13.5703
    16.4212  17.5722  18.3647  18.8629

          k = 0.5517-0.2942-0.1340 (  3386 PWs)   bands (ev):

   -32.5633   1.4526   2.7836   5.2671   6.7152   8.5781  11.3397  12.7043
    15.6487  17.8069  19.6548  21.5593

          k = 0.0368-0.1471 0.2105 (  3400 PWs)   bands (ev):

   -32.5681  -1.7568   5.4607   7.2787   8.9607  11.2674  12.8370  13.5717
    14.2746  15.4761  16.8078  17.1431

          k = 0.8091-0.1471-0.1914 (  3395 PWs)   bands (ev):

   -32.5663  -0.5813   3.6978   5.5337   7.2781  12.5775  13.5212  14.2811
    14.9755  16.6223  18.7601  19.8349

          k = 0.5517-0.1471-0.0574 (  3385 PWs)   bands (ev):

   -32.5646   0.7489   2.3828   4.8888   8.4014  10.8708  12.1412  13.6502
    14.7125  17.0126  18.4681  19.0825

          k = 0.0368-0.0000 0.2871 (  3424 PWs)   bands (ev):

   -32.5683  -1.6176   4.2172   8.2787   8.4845  10.6349  12.5396  14.8646
    15.0486  16.9617  17.0690  19.3781

          k = 0.8091-0.0000-0.1148 (  3390 PWs)   bands (ev):

   -32.5666  -0.3051   2.6196   5.2811   8.4795  11.3611  14.2676  15.2682
    16.2132  18.6243  18.9075  19.5770

          k = 0.5517-0.0000 0.0191 (  3384 PWs)   bands (ev):

   -32.5651   0.5115   2.2158   4.6735  10.1669  11.7174  12.4970  13.3104
    15.1977  15.4056  16.3280  20.6544

          k = 0.0368 0.1471 0.3636 (  3401 PWs)   bands (ev):

   -32.5674  -0.9450   3.2413   6.4401   8.2160  11.3261  13.6590  14.6773
    16.0607  17.9320  18.7749  19.3232

          k = 0.8091 0.1471-0.0383 (  3398 PWs)   bands (ev):

   -32.5660   0.3797   2.1389   5.1033   6.9412  13.3358  14.5752  15.3491
    15.8292  16.8846  17.7317  19.1461

          k = 0.5517 0.1471 0.0957 (  3387 PWs)   bands (ev):

   -32.5646   0.7485   2.2739   5.1638   8.4328  10.4717  11.8375  14.0575
    14.9611  17.2389  18.4008  18.5903

          k = 0.2942-0.7355-0.2296 (  3386 PWs)   bands (ev):

   -32.5645   0.2251   4.4078   4.5592   6.8617   9.9724  11.5990  13.4196
    16.0521  17.6722  18.9597  20.1783

          k = 0.0368-0.7355-0.0957 (  3396 PWs)   bands (ev):

   -32.5659   0.2175   2.3715   4.5782   8.6617  11.7546  13.5599  15.1717
    16.9696  17.8729  18.3863  18.6847

          k = 0.8091-0.7355-0.4976 (  3403 PWs)   bands (ev):

   -32.5648   1.0850   2.3955   4.3214   6.3941  12.3778  14.6325  14.8550
    15.4636  16.5769  17.4138  18.6124

          k = 0.5517-0.7355-0.3636 (  3385 PWs)   bands (ev):

   -32.5634   1.4245   2.6971   5.5496   6.8108   8.4568  10.9229  12.9631
    15.1664  18.3881  19.8899  21.3915

          k = 0.2942-0.5884-0.1531 (  3393 PWs)   bands (ev):

   -32.5634   1.5000   2.7183   5.0502   6.6822   8.8167  11.5384  13.1030
    15.1483  18.1491  19.8239  21.5996

          k = 0.0368-0.5884-0.0191 (  3392 PWs)   bands (ev):

   -32.5651   0.8656   1.8640   4.4404   9.6432  12.1141  12.5805  13.5884
    15.2465  16.1034  16.9510  20.8493

          k = 0.8091-0.5884-0.4210 (  3385 PWs)   bands (ev):

   -32.5640   1.2196   2.3315   5.0343   7.1875   9.9328  11.9068  13.7003
    16.3712  16.6332  18.5971  20.2969

          k = 0.5517-0.5884-0.2871 (  3368 PWs)   bands (ev):

   -32.5624   2.4071   3.5435   4.2151   5.6165   9.1642  10.2742  11.3620
    13.5836  21.4697  21.9987  23.0309

          k = 0.2942-0.4413-0.0765 (  3372 PWs)   bands (ev):

   -32.5636   0.4736   4.1746   6.0820   6.9048   7.9693  10.6420  11.8265
    16.0909  17.7377  19.8543  20.9728

          k = 0.0368-0.4413 0.0574 (  3369 PWs)   bands (ev):

   -32.5655  -0.4437   3.3948   5.8390  10.1863  11.0075  11.9772  13.1626
    14.2809  14.8860  15.5607  20.1019

          k = 0.8091-0.4413-0.3445 (  3380 PWs)   bands (ev):

   -32.5642   0.3331   3.1082   7.0900   7.6483   8.2559  10.2362  13.2650
    16.8560  17.4532  17.9929  19.7214

          k = 0.5517-0.4413-0.2105 (  3372 PWs)   bands (ev):

   -32.5624   2.5058   3.4218   4.1945   5.6989   8.6852  10.8299  11.3273
    13.6845  20.5798  22.3442  22.9665

          k = 0.4413-0.4413-0.0000 (  3368 PWs)   bands (ev):

   -32.5625   1.5308   4.5233   5.3651   5.9444   6.4588  10.2016  12.9525
    16.2360  16.3358  20.2929  22.7587

          k = 0.1839-0.4413 0.1340 (  3380 PWs)   bands (ev):

   -32.5646   0.0223   3.3067   6.6447   8.4113   8.8224  10.5442  13.0547
    16.1392  17.1482  18.3913  18.7519

          k = 0.9562-0.4413-0.2679 (  3381 PWs)   bands (ev):

   -32.5652   0.1402   2.3023   6.8740   8.2955   9.8826  11.8792  14.0570
    16.3594  16.5843  18.0125  18.9082

          k = 0.6988-0.4413-0.1340 (  3387 PWs)   bands (ev):

   -32.5631   1.8220   2.9051   4.6146   6.4731   8.5094  11.7693  12.6550
    14.9569  18.3740  20.2419  21.2020

          k = 0.1839-0.2942 0.2105 (  3380 PWs)   bands (ev):

   -32.5657  -0.7726   4.6445   6.4513   7.8900   9.7163  11.2362  13.3312
    15.9334  17.1284  18.2947  19.2004

          k = 0.9562-0.2942-0.1914 (  3389 PWs)   bands (ev):

   -32.5661  -0.3772   3.2651   5.1818   8.5125  11.3307  13.1611  14.1593
    16.4363  17.6285  18.2271  18.7905

          k = 0.6988-0.2942-0.0574 (  3406 PWs)   bands (ev):

   -32.5639   1.6043   2.8152   3.8904   6.0644  10.6690  13.3816  14.3187
    15.6602  17.0445  18.4482  18.9094

          k = 0.1839-0.1471 0.2871 (  3393 PWs)   bands (ev):

   -32.5669  -1.0654   4.4564   6.1803   7.4743  12.3245  13.0086  14.0418
    14.5907  16.1512  18.2628  19.5302

          k = 0.9562-0.1471-0.1148 (  3401 PWs)   bands (ev):

   -32.5671  -0.5278   2.5764   6.2475   7.7023  11.6600  13.7455  15.4825
    16.3871  18.1274  19.8240  19.9106

          k = 0.6988-0.1471 0.0191 (  3398 PWs)   bands (ev):

   -32.5651   1.1124   1.9554   4.2380   7.3880  12.9902  13.8431  14.3738
    15.2243  17.8625  18.0424  18.4026

          k = 0.1839-0.0000 0.3636 (  3398 PWs)   bands (ev):

   -32.5671  -0.8349   3.2685   5.9355   8.4935  11.2808  13.8777  14.6295
    16.0454  17.8215  18.5875  19.0806

          k = 0.9562 0.0000-0.0383 (  3402 PWs)   bands (ev):

   -32.5674  -0.3374   1.7945   7.2193   7.9131  10.3306  12.6919  17.8156
    18.5770  19.7450  20.1220  20.2179

          k = 0.6988 0.0000 0.0957 (  3402 PWs)   bands (ev):

   -32.5657   0.4188   2.2043   4.4587   9.0620  11.6072  13.1547  14.7983
    17.6359  17.8289  17.8450  18.0710

          k = 0.1839-0.8827-0.0957 (  3393 PWs)   bands (ev):

   -32.5663  -0.1036   2.5453   5.5926   6.9648  13.1007  14.4892  14.8394
    15.5605  17.1968  18.1300  20.1119

          k = 0.9562-0.8827-0.4976 (  3388 PWs)   bands (ev):

   -32.5669  -0.0974   1.9168   6.1218   7.5883  11.5665  13.7503  16.4462
    17.2221  18.8090  19.0737  19.8042

          k = 0.6988-0.8827-0.3636 (  3380 PWs)   bands (ev):

   -32.5653   0.1300   3.0014   5.0192   7.6486  11.3148  12.7373  14.6529
    15.9316  16.9082  18.6509  19.2782

          k = 0.1839-0.7355-0.0191 (  3399 PWs)   bands (ev):

   -32.5651   0.9972   2.1767   4.3813   6.7484  12.9995  14.4515  14.9343
    15.2286  17.0742  17.4786  18.4395

          k = 0.9562-0.7355-0.4210 (  3394 PWs)   bands (ev):

   -32.5659   0.1299   2.5814   4.6666   8.3005  12.0975  13.4102  14.7165
    16.9218  17.6198  18.3192  18.7510

          k = 0.6988-0.7355-0.2871 (  3378 PWs)   bands (ev):

   -32.5642   0.3461   4.1883   4.8542   7.0710   9.3893  11.0908  13.1220
    15.8492  18.2367  19.6709  19.9503

          k = 0.4413-0.5884-0.0765 (  3382 PWs)   bands (ev):

   -32.5624   2.8201   3.0876   3.9953   6.1746   7.4618  10.8154  13.4226
    14.6730  17.7185  20.0501  22.3461

          k = 0.1839-0.5884 0.0574 (  3386 PWs)   bands (ev):

   -32.5643   1.1860   2.1994   4.6359   7.5900  10.8406  12.5273  13.6284
    15.2307  17.5428  18.1994  19.6547

          k = 0.9562-0.5884-0.3445 (  3380 PWs)   bands (ev):

   -32.5651   0.4533   2.0266   5.8395   9.2294   9.8559  12.2526  13.8584
    16.7079  16.8988  17.7528  18.8456

          k = 0.6988-0.5884-0.2105 (  3380 PWs)   bands (ev):

   -32.5632   1.0343   3.5631   5.6772   6.6484   8.6791   9.7458  12.2579
    15.1917  19.0881  20.3184  21.9659

     the Fermi energy is    13.6241 ev

!    total energy              =     -39.59176782 Ry
     estimated scf accuracy    <          7.3E-12 Ry
     smearing contrib. (-TS)   =       0.00001389 Ry
     internal energy E=F+TS    =     -39.59178171 Ry

     The total energy is F=E-TS. E is the sum of the following terms:
     one-electron contribution =      11.36783172 Ry
     hartree contribution      =       2.90965593 Ry
     xc contribution           =     -13.56337902 Ry
     ewald contribution        =     -40.30589035 Ry

     convergence has been achieved in   6 iterations

     Forces acting on atoms (cartesian axes, Ry/au):

     atom    1 type  1   force =     0.00000000    0.00000000    0.00000000
     atom    2 type  2   force =    -0.00000000   -0.00000000    0.00000000
     atom    3 type  2   force =     0.00000000    0.00000000   -0.00000000
     atom    4 type  2   force =     0.00000000    0.00000000   -0.00000000
     The non-local contrib.  to forces
     atom    1 type  1   force =     0.00000000   -0.00000000    0.00000000
     atom    2 type  2   force =     0.00000000    0.00000000   -0.00000000
     atom    3 type  2   force =    -0.00000000   -0.00000000    0.00000000
     atom    4 type  2   force =     0.00000000    0.00000000   -0.00000000
     The ionic contribution  to forces
     atom    1 type  1   force =    -0.00000000   -0.00000000    0.00000000
     atom    2 type  2   force =    -0.00000000   -0.00000000   -0.00000000
     atom    3 type  2   force =     0.00000000    0.00000000   -0.00000000
     atom    4 type  2   force =    -0.00000000   -0.00000000   -0.00000000
     The local contribution  to forces
     atom    1 type  1   force =     0.00000000    0.00000000   -0.00000000
     atom    2 type  2   force =     0.00000000   -0.00000000   -0.00000000
     atom    3 type  2   force =    -0.00000000   -0.00000000   -0.00000000
     atom    4 type  2   force =     0.00000000    0.00000000    0.00000000
     The core correction contribution to forces
     atom    1 type  1   force =     0.00000000    0.00000000    0.00000000
     atom    2 type  2   force =     0.00000000    0.00000000    0.00000000
     atom    3 type  2   force =    -0.00000000   -0.00000000   -0.00000000
     atom    4 type  2   force =     0.00000000    0.00000000    0.00000000
     The Hubbard contrib.    to forces
     atom    1 type  1   force =     0.00000000    0.00000000    0.00000000
     atom    2 type  2   force =     0.00000000    0.00000000    0.00000000
     atom    3 type  2   force =     0.00000000    0.00000000    0.00000000
     atom    4 type  2   force =     0.00000000    0.00000000    0.00000000
     The SCF correction term to forces
     atom    1 type  1   force =     0.00000000    0.00000000   -0.00000000
     atom    2 type  2   force =    -0.00000000    0.00000000    0.00000000
     atom    3 type  2   force =     0.00000000   -0.00000000   -0.00000000
[...]
    15.1901  16.3351  20.6691  20.9263

          k = 0.2659 0.3039 0.0178 (  3258 PWs)   bands (ev):

   -32.7041  -0.8223   6.0234   7.1098   7.7262   8.9350   9.1973  10.2784
    14.1206  19.5171  20.2002  20.2673

          k =-0.0000 0.4558 0.2136 (  3250 PWs)   bands (ev):

   -32.7045  -0.0521   2.3500   6.5863   7.4524  11.2719  12.7850  14.1578
    15.2088  16.5798  16.8367  19.0850

          k =-0.2659 0.4558 0.3382 (  3260 PWs)   bands (ev):

   -32.7024   1.2207   2.5473   5.3958   7.1218   8.9927  10.7100  13.4674
    14.7980  17.2255  19.6011  20.0053

          k = 0.5318 0.4558-0.0356 (  3267 PWs)   bands (ev):

   -32.7004   2.4945   4.0509   4.4911   6.1114   6.6802   9.9264  12.4568
    14.2783  15.4333  18.7945  24.6162

          k = 0.2659 0.4558 0.0890 (  3261 PWs)   bands (ev):

   -32.7025   0.3969   3.7018   6.2987   7.7402   8.2775   9.7583  11.5424
    14.8988  17.4217  20.0768  20.8899

          k = 0.1519-0.1519 0.0000 (  3271 PWs)   bands (ev):

   -32.7076  -2.0269   7.1830   8.6331   8.7292   9.5519   9.5538  11.6794
    15.6835  15.7901  16.3517  16.5013

          k =-0.1140-0.1519 0.1246 (  3254 PWs)   bands (ev):

   -32.7078  -1.9862   5.8408   7.9521   8.6988  10.6884  11.2850  12.6279
    14.6515  15.2854  16.5228  17.3071

          k = 0.6838-0.1519-0.2492 (  3252 PWs)   bands (ev):

   -32.7043  -0.2382   3.2290   5.8174   8.2545   9.3573  11.9969  14.3139
    16.0503  16.6452  17.7016  19.3374

          k = 0.4179-0.1519-0.1246 (  3260 PWs)   bands (ev):

   -32.7041  -0.3596   3.5078   6.8163   7.8202   9.5820  10.9754  12.6383
    14.9514  16.9357  18.5010  19.0979

          k =-0.1140 0.0000 0.1958 (  3244 PWs)   bands (ev):

   -32.7085  -2.0162   4.6122   8.0568   9.4517  11.6488  12.8561  13.4975
    13.8932  13.9066  16.8347  18.4946

          k = 0.6838-0.0000-0.1780 (  3246 PWs)   bands (ev):

   -32.7050  -0.1372   2.5285   4.9634   9.7401  10.2186  13.4859  14.2259
    16.9001  17.5523  17.6025  18.2014

          k = 0.4179-0.0000-0.0534 (  3252 PWs)   bands (ev):

   -32.7049  -0.7164   3.6006   6.1342   8.7582  11.8488  11.8734  12.5507
    14.7179  14.9235  15.6219  20.1206

          k = 0.1519 0.1519 0.1424 (  3256 PWs)   bands (ev):

   -32.7074  -1.8378   5.6240   7.7246   8.2098  10.8601  11.2230  12.8164
    15.2176  15.4085  16.2847  17.9689

          k =-0.1140 0.1519 0.2670 (  3248 PWs)   bands (ev):

   -32.7074  -1.4837   3.7373   7.1182   8.0606  12.4830  13.3396  14.0664
    15.0794  15.2286  17.3291  18.9485

          k = 0.6838 0.1519-0.1068 (  3254 PWs)   bands (ev):

   -32.7042   0.5152   2.3185   4.5377   8.1260  11.1377  12.8980  15.0055
    15.6101  16.5054  17.9150  19.6827

          k = 0.4179 0.1519 0.0178 (  3261 PWs)   bands (ev):

   -32.7041  -0.4944   3.9361   6.1533   9.1211  10.1529  10.3815  11.2305
    14.3079  17.5263  17.8378  20.5771

          k = 0.1519 0.3039 0.2136 (  3255 PWs)   bands (ev):

   -32.7053  -0.8975   4.2956   5.9864   8.1572   9.7672  12.2890  13.5187
    15.5467  16.1044  18.7716  19.2476

          k =-0.1140 0.3039 0.3382 (  3253 PWs)   bands (ev):

   -32.7054  -0.4075   2.9840   4.9907   8.3773  11.3297  13.9472  14.5580
    15.8377  17.7029  18.0955  18.4795

          k = 0.6838 0.3039-0.0356 (  3250 PWs)   bands (ev):

   -32.7024   1.6515   2.6437   4.1967   6.1829  10.3321  12.7251  13.2583
    15.0306  15.9403  18.5221  19.8529

          k = 0.4179 0.3039 0.0890 (  3263 PWs)   bands (ev):

   -32.7023   0.3003   4.4097   6.6033   7.1168   8.0613   9.3325  11.1309
    14.8239  17.3382  20.8892  21.6702

          k = 0.1519-0.6078-0.2136 (  3245 PWs)   bands (ev):

   -32.7037   0.4672   2.2646   5.9013   8.2160   9.2672  11.4934  15.3436
    16.0623  16.2529  17.7955  18.3691

          k =-0.1140-0.6078-0.0890 (  3251 PWs)   bands (ev):

   -32.7039   0.9013   1.7279   4.6832   9.2106  10.4243  12.6109  14.0211
    15.2267  16.8685  18.2510  18.5245

          k = 0.6838-0.6078-0.4628 (  3250 PWs)   bands (ev):

   -32.7011   2.5274   3.0195   4.1046   6.1656   8.2296  11.0620  12.7102
    14.5292  15.6227  18.7412  22.2470

          k = 0.4179-0.6078-0.3382 (  3276 PWs)   bands (ev):

   -32.7008   1.6249   4.3306   5.0803   5.9621   8.2444   9.1814  11.1793
    14.2020  17.1120  21.2254  22.1158

          k = 0.1519-0.4558-0.1424 (  3257 PWs)   bands (ev):

   -32.7038  -0.0062   2.9442   6.5614   7.8740   9.5985  10.9249  13.2451
    15.2992  17.0256  18.3106  18.5661

          k =-0.1140-0.4558-0.0178 (  3258 PWs)   bands (ev):

   -32.7041  -0.2792   3.3156   5.6729   9.4799  10.5200  11.1740  11.7970
    14.4570  16.7739  17.1114  20.7630

          k = 0.6838-0.4558-0.3916 (  3267 PWs)   bands (ev):

   -32.7012   1.1953   4.3447   5.8951   6.0975   7.6460   9.5184  11.1975
    14.9625  16.2316  20.7119  22.7669

          k = 0.4179-0.4558-0.2670 (  3271 PWs)   bands (ev):

   -32.7008   1.9909   3.8098   4.5701   6.2947   8.1803   9.8644  11.3206
    13.4411  19.2599  19.6628  21.5840

          k = 0.1519-0.3039-0.0712 (  3265 PWs)   bands (ev):

   -32.7055  -1.2713   5.3887   7.7473   7.8361   9.2851  10.8427  11.4723
    14.5263  16.5539  18.1540  19.7549

          k =-0.1140-0.3039 0.0534 (  3269 PWs)   bands (ev):

   -32.7059  -1.3973   5.3778   7.6211   8.0423   9.8691  10.9440  11.7671
    14.6331  15.7911  17.3024  19.6516

          k = 0.6838-0.3039-0.3204 (  3260 PWs)   bands (ev):

   -32.7026   0.2151   4.3868   5.8964   7.6328   8.2299   9.3829  11.8356
    15.6497  16.9027  20.0940  21.8007

          k = 0.4179-0.3039-0.1958 (  3265 PWs)   bands (ev):

   -32.7023   0.5701   3.8075   6.0624   7.5094   7.9146   9.5141  12.0705
    15.4110  16.9925  20.1247  21.4421

          k = 0.3039-0.3039 0.0000 (  3255 PWs)   bands (ev):

   -32.7036  -0.6028   6.0509   6.7762   7.5757   8.5000   9.4568  10.0586
    14.1056  19.6749  20.4986  20.5743

          k = 0.0380-0.3039 0.1246 (  3255 PWs)   bands (ev):

   -32.7062  -1.4002   4.8082   6.9792   8.2585  10.5050  12.4045  13.2859
    14.1347  15.2803  16.4772  19.0507

          k = 0.8357-0.3039-0.2492 (  3262 PWs)   bands (ev):

   -32.7044  -0.4476   4.2608   5.5651   7.1341  10.2733  11.3613  13.2163
    16.5162  17.3466  17.7611  19.2693

          k = 0.5698-0.3039-0.1246 (  3260 PWs)   bands (ev):

   -32.7018   1.5983   2.6555   5.3564   6.8572   8.4895  10.5996  12.4015
    14.8772  16.6469  20.5161  20.7598

          k = 0.0380-0.1519 0.1958 (  3250 PWs)   bands (ev):

   -32.7081  -1.8968   4.6743   7.4705   9.3494  11.2939  13.0519  13.4270
    13.9124  14.7507  17.3022  17.6936

          k = 0.8357-0.1519-0.1780 (  3247 PWs)   bands (ev):

   -32.7061  -0.8113   3.2717   5.8525   7.5441  12.2928  13.6997  14.8202
    15.2684  16.7533  17.7122  18.8476

          k = 0.5698-0.1519-0.0534 (  3254 PWs)   bands (ev):

   -32.7035   0.8849   2.0333   4.7971   8.9021  10.3923  11.7799  13.1017
    14.9351  17.2013  18.4600  19.0274

          k = 0.0380-0.0000 0.2670 (  3251 PWs)   bands (ev):

   -32.7087  -1.8455   3.5001   8.7581   8.9750  11.5088  12.7944  14.5160
    14.8463  14.8514  16.9793  20.1433

          k = 0.8357-0.0000-0.1068 (  3224 PWs)   bands (ev):

   -32.7067  -0.6756   2.3143   5.5623   9.0829  11.8855  13.8145  16.0559
    16.6186  18.1661  18.2789  18.3519

          k = 0.5698-0.0000 0.0178 (  3257 PWs)   bands (ev):

   -32.7042   0.6390   1.8078   4.5727  10.6419  10.9097  12.2948  13.5616
    15.0108  15.9006  16.7542  20.7216

          k = 0.0380 0.1519 0.3382 (  3243 PWs)   bands (ev):

   -32.7077  -1.2487   2.7440   6.8410   8.7447  12.0001  14.0016  14.5423
    15.9181  16.8409  18.4013  18.9386

          k = 0.8357 0.1519-0.0356 (  3239 PWs)   bands (ev):

   -32.7058  -0.1179   2.0061   5.5231   7.2947  14.0700  14.6095  15.3910
    16.0451  16.8996  17.0182  18.0726

          k = 0.5698 0.1519 0.0890 (  3250 PWs)   bands (ev):

   -32.7035   0.8671   1.9907   4.9998   8.8881   9.9716  11.6675  13.5957
    15.1661  17.1952  18.0278  18.9344

          k = 0.3039-0.7597-0.2136 (  3259 PWs)   bands (ev):

   -32.7034   0.1383   4.2002   4.9283   6.6219  10.1924  11.0857  12.9501
    15.8344  17.9974  18.6702  19.7123

          k = 0.0380-0.7597-0.0890 (  3239 PWs)   bands (ev):

   -32.7057  -0.1403   2.2299   4.6683   9.2651  11.9064  13.3164  15.6027
    17.0141  17.8214  18.2736  18.8127

          k = 0.8357-0.7597-0.4628 (  3242 PWs)   bands (ev):

   -32.7041   0.6487   2.3648   4.6795   6.5997  12.5507  13.9232  14.7982
    15.7181  15.9867  17.6835  18.1885

          k = 0.5698-0.7597-0.3382 (  3259 PWs)   bands (ev):

   -32.7018   1.5447   2.6350   5.6450   6.9264   8.2597  10.2825  12.6472
    14.5489  17.2317  20.4665  20.7164

          k = 0.3039-0.6078-0.1424 (  3255 PWs)   bands (ev):

   -32.7019   1.5376   2.7091   5.1360   6.7275   8.7854  10.8413  12.8155
    14.5047  17.1760  20.3567  20.4270

          k = 0.0380-0.6078-0.0178 (  3259 PWs)   bands (ev):

   -32.7043   0.9985   1.4391   4.3470  10.3204  11.1256  12.5752  13.8253
    15.0875  16.3636  17.4163  20.5825

          k = 0.8357-0.6078-0.3916 (  3257 PWs)   bands (ev):

   -32.7028   1.2573   2.1903   4.9437   7.5010   9.8579  11.2859  13.5128
    15.5963  16.4172  18.6942  20.5899

          k = 0.5698-0.6078-0.2670 (  3267 PWs)   bands (ev):

   -32.7004   2.5834   3.7493   4.4375   5.6203   8.5898   9.7219  10.7500
    13.1350  19.5147  19.8866  21.4343

          k = 0.3039-0.4558-0.0712 (  3263 PWs)   bands (ev):

   -32.7020   0.6004   4.0062   6.2088   7.2182   7.9015   9.8321  11.1744
    14.8132  17.0791  20.9710  21.1317

          k = 0.0380-0.4558 0.0534 (  3254 PWs)   bands (ev):

   -32.7045  -0.3812   3.1121   5.7241   9.0975  11.6688  12.0971  12.3282
    14.8002  15.3070  15.9841  20.3491

          k = 0.8357-0.4558-0.3204 (  3255 PWs)   bands (ev):

   -32.7029   0.3952   3.0539   7.0265   7.3481   8.2558  10.1019  12.9064
    15.8404  16.9357  18.6484  20.1652

          k = 0.5698-0.4558-0.1958 (  3270 PWs)   bands (ev):

   -32.7004   2.6834   3.6518   4.3567   5.7194   8.2205  10.1860  10.7426
    13.1756  18.7146  20.3742  21.1978

          k = 0.4558-0.4558 0.0000 (  3272 PWs)   bands (ev):

   -32.7006   1.7470   4.9444   5.1539   5.7838   6.5801   9.7586  11.8305
    14.9277  15.3201  19.1169  24.4448

          k = 0.1899-0.4558 0.1246 (  3255 PWs)   bands (ev):

   -32.7034   0.0933   3.1687   6.4655   8.1064   9.0071  10.3784  12.6179
    15.1502  17.9703  18.0814  19.2688

          k = 0.9877-0.4558-0.2492 (  3246 PWs)   bands (ev):

   -32.7043   0.1371   2.2423   6.2291   7.8450  10.4553  12.3483  14.8834
    15.8587  16.5340  17.7053  17.8412

          k = 0.7217-0.4558-0.1246 (  3254 PWs)   bands (ev):

   -32.7015   1.8846   2.9050   4.7891   6.4642   8.4638  11.0775  12.2638
    14.2403  17.0349  19.9242  21.2937

          k = 0.1899-0.3039 0.1958 (  3262 PWs)   bands (ev):

   -32.7049  -0.8283   4.5902   6.1674   7.7456   9.5845  11.4504  12.9363
    15.5608  16.8171  18.9092  19.1882

          k = 0.9877-0.3039-0.1780 (  3247 PWs)   bands (ev):

   -32.7057  -0.5810   3.0832   5.0592   8.9857  10.9495  13.8236  14.5593
    16.0970  17.5121  18.2768  18.3879

          k = 0.7217-0.3039-0.0534 (  3241 PWs)   bands (ev):

   -32.7028   1.2839   2.8020   4.2870   6.1067  10.8079  13.2185  13.5440
    14.7979  16.3526  18.3882  19.4940

          k = 0.1899-0.1519 0.2670 (  3252 PWs)   bands (ev):

   -32.7067  -1.2433   3.8804   6.5614   7.6388  12.0977  12.9296  14.7819
    14.9442  15.8444  17.0019  19.6872

          k = 0.9877-0.1519-0.1068 (  3235 PWs)   bands (ev):

   -32.7074  -0.9224   2.2135   6.7091   8.1879  12.4800  14.2830  15.0333
    16.2688  17.7977  18.8199  19.1407

          k = 0.7217-0.1519 0.0178 (  3251 PWs)   bands (ev):

   -32.7045   0.6428   2.0092   4.3674   7.8141  12.7420  13.8268  14.2366
    15.4476  17.2827  17.5795  18.8399

          k = 0.1899 0.0000 0.3382 (  3247 PWs)   bands (ev):

   -32.7073  -1.1273   2.8037   6.2520   9.0600  11.7832  13.6790  15.2241
    16.1191  16.9252  17.9780  18.8593

          k = 0.9877 0.0000-0.0356 (  3233 PWs)   bands (ev):

   -32.7081  -0.8915   1.5693   7.7751   8.5076  11.2648  13.0795  17.2362
    18.2587  18.9552  19.2121  19.6299

          k = 0.7217 0.0000 0.0890 (  3247 PWs)   bands (ev):

   -32.7053   0.0971   2.1329   4.4246   9.7121  11.4670  13.0875  15.2574
    16.5862  18.1315  18.3112  18.8981

          k = 0.1899-0.9117-0.0890 (  3240 PWs)   bands (ev):

   -32.7063  -0.5053   2.2633   6.0812   7.2746  13.8324  14.6295  15.0679
    15.5386  16.7704  18.0308  18.8899

          k = 0.9877-0.9117-0.4628 (  3227 PWs)   bands (ev):

   -32.7073  -0.6330   1.7211   6.6073   8.0953  12.4422  14.3494  15.8792
    17.1952  18.2194  18.4469  19.0207

          k = 0.7217-0.9117-0.3382 (  3258 PWs)   bands (ev):

   -32.7046  -0.0547   2.9346   4.8746   7.9984  10.8875  13.0028  15.2731
    15.5361  16.7661  18.3331  19.0390

          k = 0.1899-0.7597-0.0178 (  3245 PWs)   bands (ev):

   -32.7045   0.5154   2.1713   4.6714   7.0603  13.0896  14.0946  14.8487
    15.5640  16.5644  17.5098  18.0238

          k = 0.9877-0.7597-0.3916 (  3242 PWs)   bands (ev):

   -32.7056  -0.1883   2.4185   4.7406   8.8308  11.9303  13.6561  15.0554
    17.1148  17.2362  18.2459  18.6663

          k = 0.7217-0.7597-0.2670 (  3262 PWs)   bands (ev):

   -32.7029   0.2991   4.2299   4.9969   6.7710   9.5379  10.6335  12.6465
    15.5559  17.8427  19.1351  20.5024

          k = 0.4558-0.6078-0.0712 (  3259 PWs)   bands (ev):

   -32.7005   2.9888   3.4712   3.8113   6.2153   7.3227  10.4693  12.5184
    13.7330  16.1489  18.8670  23.6433

          k = 0.1899-0.6078 0.0534 (  3249 PWs)   bands (ev):

   -32.7032   1.2929   1.8834   4.5913   8.0106  10.7020  11.8449  13.3039
    15.1661  17.3124  17.9065  20.2511

          k = 0.9877-0.6078-0.3204 (  3254 PWs)   bands (ev):

   -32.7042   0.4298   1.9479   5.4090   8.8027  10.2458  12.6888  14.5302
    16.3945  16.9273  17.4375  17.8335

          k = 0.7217-0.6078-0.1958 (  3265 PWs)   bands (ev):

   -32.7016   1.1359   3.6050   5.8955   6.8692   7.9933   9.2989  11.8292
    14.6419  17.3498  20.7536  21.9269

     the Fermi energy is    13.5592 ev

!    total energy              =     -39.60681656 Ry
     estimated scf accuracy    <          5.0E-11 Ry
     smearing contrib. (-TS)   =      -0.00010227 Ry
     internal energy E=F+TS    =     -39.60671430 Ry

     The total energy is F=E-TS. E is the sum of the following terms:
     one-electron contribution =      11.21893282 Ry
     hartree contribution      =       2.91183451 Ry
     xc contribution           =     -13.54246957 Ry
     ewald contribution        =     -40.19501205 Ry

     convergence has been achieved in   7 iterations

     Forces acting on atoms (cartesian axes, Ry/au):

     atom    1 type  1   force =     0.00000000    0.00000000    0.00000000
     atom    2 type  2   force =    -0.00000000    0.00000000    0.00000000
     atom    3 type  2   force =    -0.00000000    0.00000000   -0.00000000
     atom    4 type  2   force =    -0.00000000    0.00000000    0.00000000
     The non-local contrib.  to forces
     atom    1 type  1   force =     0.00000000   -0.00000000    0.00000000
     atom    2 type  2   force =     0.00000000    0.00000000   -0.00000000
     atom    3 type  2   force =     0.00000000   -0.00000000   -0.00000000
     atom    4 type  2   force =     0.00000000    0.00000000   -0.00000000
     The ionic contribution  to forces
     atom    1 type  1   force =    -0.00000000   -0.00000000    0.00000000
     atom    2 type  2   force =     0.00000000    0.00000000    0.00000000
     atom    3 type  2   force =    -0.00000000   -0.00000000    0.00000000
     atom    4 type  2   force =     0.00000000    0.00000000   -0.00000000
     The local contribution  to forces
     atom    1 type  1   force =     0.00000000    0.00000000   -0.00000000
     atom    2 type  2   force =    -0.00000000   -0.00000000   -0.00000000
     atom    3 type  2   force =    -0.00000000   -0.00000000    0.00000000
     atom    4 type  2   force =    -0.00000000   -0.00000000    0.00000000
     The core correction contribution to forces
     atom    1 type  1   force =     0.00000000    0.00000000    0.00000000
     atom    2 type  2   force =    -0.00000000   -0.00000000   -0.00000000
     atom    3 type  2   force =    -0.00000000   -0.00000000    0.00000000
     atom    4 type  2   force =    -0.00000000   -0.00000000    0.00000000
     The Hubbard contrib.    to forces
     atom    1 type  1   force =     0.00000000    0.00000000    0.00000000
     atom    2 type  2   force =     0.00000000    0.00000000    0.00000000
     atom    3 type  2   force =     0.00000000    0.00000000    0.00000000
     atom    4 type  2   force =     0.00000000    0.00000000    0.00000000
     The SCF correction term to forces
     atom    1 type  1   force =    -0.00000000   -0.00000000    0.00000000
     atom    2 type  2   force =     0.00000000   -0.00000000   -0.00000000
     atom    3 type  2   force =    -0.00000000    0.00000000    0.00000000
     atom    4 type  2   force =    -0.00000000   -0.00000000    0.00000000

     Total force =     0.000000     Total SCF correction =     0.000000


     Computing stress (Cartesian axis) and pressure

          total   stress  (Ry/bohr**3)                   (kbar)     P=      500.89
   0.00340464   0.00000000   0.00000000          500.84        0.00        0.00
   0.00000000   0.00340464  -0.00000000            0.00      500.84       -0.00
  -0.00000000   0.00000000   0.00340568           -0.00        0.00      500.99


     Writing all to output data dir ./output/LiSi.save/

     init_run     :      1.60s CPU      1.97s WALL (       2 calls)
     electrons    :     78.24s CPU     82.55s WALL (      10 calls)
     update_pot   :      2.15s CPU      2.20s WALL (       8 calls)
     forces       :      2.25s CPU      2.31s WALL (      10 calls)
     stress       :     11.05s CPU     11.48s WALL (      10 calls)

     Called by init_run:
     wfcinit      :      0.79s CPU      0.81s WALL (       2 calls)
     potinit      :      0.27s CPU      0.50s WALL (       2 calls)
     hinit0       :      0.51s CPU      0.58s WALL (       2 calls)

     Called by electrons:
     c_bands      :     68.19s CPU     71.84s WALL (      65 calls)
     sum_band     :      9.44s CPU      9.74s WALL (      65 calls)
     v_of_rho     :      0.65s CPU      1.16s WALL (      71 calls)
     mix_rho      :      0.05s CPU      0.07s WALL (      65 calls)

     Called by c_bands:
     init_us_2    :      1.64s CPU      1.76s WALL (   13680 calls)
     init_us_2:cp :      1.62s CPU      1.75s WALL (   13680 calls)
     cegterg      :     64.14s CPU     65.85s WALL (    5850 calls)

     Called by *egterg:
     cdiaghg      :      3.93s CPU      4.05s WALL (   24839 calls)
     h_psi        :     56.08s CPU     57.55s WALL (   26099 calls)
     g_psi        :      0.21s CPU      0.21s WALL (   20069 calls)

     Called by h_psi:
     h_psi:calbec :      3.03s CPU      3.10s WALL (   26099 calls)
     vloc_psi     :     50.59s CPU     51.92s WALL (   26099 calls)
     add_vuspsi   :      2.27s CPU      2.33s WALL (   26099 calls)

     General routines
     calbec       :      3.69s CPU      3.78s WALL (   30599 calls)
     fft          :      0.89s CPU      1.55s WALL (     962 calls)
     ffts         :      0.03s CPU      0.07s WALL (      65 calls)
     fftw         :     52.73s CPU     54.07s WALL (  490482 calls)

     Parallel routines

     PWSCF        :   1m35.72s CPU   1m41.35s WALL


   This run was terminated on:  11:34:17  29Dec2024            

=------------------------------------------------------------------------------=
   JOB DONE.
=------------------------------------------------------------------------------=
