
     Program PWSCF v.7.2 starts on 17Jan2025 at 16:12:25 

     This program is part of the open-source Quantum ESPRESSO suite
     for quantum simulation of materials; please cite
         "P. Giannozzi et al., J. Phys.:Condens. Matter 21 395502 (2009);
         "P. Giannozzi et al., J. Phys.:Condens. Matter 29 465901 (2017);
         "P. Giannozzi et al., J. Chem. Phys. 152 154105 (2020);
          URL http://www.quantum-espresso.org", 
     in publications or presentations arising from this work. More details at
     http://www.quantum-espresso.org/quote

     Parallel version (MPI & OpenMP), running on       8 processor cores
     Number of MPI processes:                 8
     Threads/MPI process:                     1

     MPI processes distributed on     1 nodes
     481719 MiB available memory on the printing compute node when the environment starts

     Waiting for input...
     Reading input from standard input

     Current dimensions of program PWSCF are:
     Max number of different atomic species (ntypx) = 10
     Max number of k-points (npk) =  40000
     Max angular momentum in pseudopotentials (lmaxx) =  4

     R & G space division:  proc/nbgrp/npool/nimage =       8
     Subspace diagonalization in iterative solution of the eigenvalue problem:
     a serial algorithm will be used


     Parallelization info
     --------------------
     sticks:   dense  smooth     PW     G-vecs:    dense   smooth      PW
     Min         254     254     79                 4033     4033     721
     Max         255     255     80                 4034     4034     722
     Sum        2035    2035    639                32267    32267    5771

     Using Slab Decomposition



     bravais-lattice index     =            5
     lattice parameter (alat)  =      19.4320  a.u.
     unit-cell volume          =     513.4743 (a.u.)^3
     number of atoms/cell      =            8
     number of atomic types    =            2
     number of electrons       =        26.00
     number of Kohn-Sham states=           17
     kinetic-energy cutoff     =      60.0000  Ry
     charge density cutoff     =     240.0000  Ry
     scf convergence threshold =      1.0E-08
     mixing beta               =       0.8000
     number of iterations used =            8  plain     mixing
     energy convergence thresh.=      1.0E-03
     force convergence thresh. =      5.0E-03
     press convergence thresh. =      2.0E+00
     Exchange-correlation= PBE
                           (   1   4   3   4   0   0   0)
     nstep                     =           50


     celldm(1)=  19.431976  celldm(2)=   0.000000  celldm(3)=   0.000000
     celldm(4)=   0.959034  celldm(5)=   0.000000  celldm(6)=   0.000000

     crystal axes: (cart. coord. in units of alat)
               a(1) = (   0.143118  -0.082629   0.986250 )  
               a(2) = (   0.000000   0.165259   0.986250 )  
               a(3) = (  -0.143118  -0.082629   0.986250 )  

     reciprocal axes: (cart. coord. in units 2 pi/alat)
               b(1) = (  3.493614 -2.017039  0.337980 )  
               b(2) = (  0.000000  4.034078  0.337980 )  
               b(3) = ( -3.493614 -2.017039  0.337980 )  


     PseudoPot. # 1 for Li read from file:
     ../pseudo/Li_ONCV_PBE_sr.upf
     MD5 check sum: 50ff420e78310ffa21704f3361e624a4
     Pseudo is Norm-conserving, Zval =  3.0
     Generated using ONCVPSP code by D. R. Hamann
     Using radial grid of 1944 points,  4 beta functions with: 
                l(1) =   0
                l(2) =   0
                l(3) =   1
                l(4) =   1

     PseudoPot. # 2 for Si read from file:
     ../pseudo/Si_ONCV_PBE_sr.upf
     MD5 check sum: e543d271109d17c80368dfa7c482276d
     Pseudo is Norm-conserving + core correction, Zval =  4.0
     Generated using ONCVPSP code by D. R. Hamann
     Using radial grid of 1510 points,  6 beta functions with: 
                l(1) =   0
                l(2) =   0
                l(3) =   1
                l(4) =   1
                l(5) =   2
                l(6) =   2

     atomic species   valence    mass     pseudopotential
        Li             3.00     6.94100     Li( 1.00)
        Si             4.00    28.08550     Si( 1.00)

     12 Sym. Ops., with inversion, found



   Cartesian axes

     site n.     atom                  positions (alat units)
         1           Li  tau(   1) = (   0.0000000  -0.0000000   0.6943794  )
         2           Li  tau(   2) = (  -0.0000000  -0.0000000   2.2643714  )
         3           Li  tau(   3) = (   0.0000000  -0.0000000   0.9198697  )
         4           Li  tau(   4) = (  -0.0000000  -0.0000000   2.0388811  )
         5           Li  tau(   5) = (  -0.0000000  -0.0000000   1.1748657  )
         6           Li  tau(   6) = (   0.0000000  -0.0000000   1.7838851  )
         7           Si  tau(   7) = (  -0.0000000  -0.0000000   0.5248380  )
         8           Si  tau(   8) = (   0.0000000  -0.0000000   2.4339127  )

     number of k points=    13  Marzari-Vanderbilt smearing, width (Ry)=  0.0200
                       cart. coord. in units 2pi/alat
        k(    1) = (   0.0000000   0.0000000   0.0000000), wk =   0.0312500
        k(    2) = (  -0.8734036  -0.5042598   0.0844951), wk =   0.1875000
        k(    3) = (   1.7468072   1.0085196  -0.1689902), wk =   0.0937500
        k(    4) = (  -0.8734036   0.5042598   0.1689902), wk =   0.1875000
        k(    5) = (   1.7468072   2.0170392  -0.0844951), wk =   0.3750000
        k(    6) = (   0.8734036   1.5127794   0.0000000), wk =   0.1875000
        k(    7) = (   1.7468072  -1.0085196  -0.3379805), wk =   0.0937500
        k(    8) = (   0.0000000   0.0000000   0.2534854), wk =   0.0625000
        k(    9) = (   2.6202108   1.5127794   0.0000000), wk =   0.1875000
        k(   10) = (   1.7468072   1.0085196   0.0844951), wk =   0.1875000
        k(   11) = (   2.6202108  -1.5127794  -0.2534854), wk =   0.1875000
        k(   12) = (   1.7468072  -2.0170392  -0.1689902), wk =   0.1875000
        k(   13) = (   0.0000000   0.0000000  -0.5069707), wk =   0.0312500

     Dense  grid:    32267 G-vectors     FFT dimensions: (  96,  96,  96)

     Estimated max dynamical RAM per process >      22.41 MB

     Estimated total dynamical RAM >     179.32 MB

     Initial potential from superposition of free atoms

     starting charge      25.9714, renormalised to      26.0000
     Starting wfcs are   20 randomized atomic wfcs

     total cpu time spent up to now is        2.4 secs

     Self-consistent Calculation

     iteration #  1     ecut=    60.00 Ry     beta= 0.80
     Davidson diagonalization with overlap
     ethr =  1.00E-02,  avg # of iterations =  6.3

     total cpu time spent up to now is        4.3 secs

     total energy              =    -101.72587415 Ry
     estimated scf accuracy    <       0.36734958 Ry

     iteration #  2     ecut=    60.00 Ry     beta= 0.80
     Davidson diagonalization with overlap
     ethr =  1.41E-03,  avg # of iterations =  5.7

     total cpu time spent up to now is        6.0 secs

     total energy              =    -100.75957626 Ry
     estimated scf accuracy    <      16.60228197 Ry

     iteration #  3     ecut=    60.00 Ry     beta= 0.80
     Davidson diagonalization with overlap
     ethr =  1.41E-03,  avg # of iterations =  4.6

     total cpu time spent up to now is        7.5 secs

     total energy              =    -101.93322919 Ry
     estimated scf accuracy    <       0.17861718 Ry

     iteration #  4     ecut=    60.00 Ry     beta= 0.80
     Davidson diagonalization with overlap
     ethr =  6.87E-04,  avg # of iterations =  2.2

     total cpu time spent up to now is        8.8 secs

     total energy              =    -101.95772763 Ry
     estimated scf accuracy    <       0.02697597 Ry

     iteration #  5     ecut=    60.00 Ry     beta= 0.80
     Davidson diagonalization with overlap
     ethr =  1.04E-04,  avg # of iterations =  3.8

     total cpu time spent up to now is       10.1 secs

     total energy              =    -101.96024994 Ry
     estimated scf accuracy    <       0.00313742 Ry

     iteration #  6     ecut=    60.00 Ry     beta= 0.80
     Davidson diagonalization with overlap
     ethr =  1.21E-05,  avg # of iterations =  4.8

     total cpu time spent up to now is       11.5 secs

     total energy              =    -101.96078388 Ry
     estimated scf accuracy    <       0.00094982 Ry

     iteration #  7     ecut=    60.00 Ry     beta= 0.80
     Davidson diagonalization with overlap
     ethr =  3.65E-06,  avg # of iterations =  1.8

     total cpu time spent up to now is       12.7 secs

     total energy              =    -101.96088860 Ry
     estimated scf accuracy    <       0.00001152 Ry

     iteration #  8     ecut=    60.00 Ry     beta= 0.80
     Davidson diagonalization with overlap
     ethr =  4.43E-08,  avg # of iterations =  4.4

     total cpu time spent up to now is       14.3 secs

     total energy              =    -101.96089402 Ry
     estimated scf accuracy    <       0.00000469 Ry

     iteration #  9     ecut=    60.00 Ry     beta= 0.80
     Davidson diagonalization with overlap
     ethr =  1.80E-08,  avg # of iterations =  1.6

     total cpu time spent up to now is       15.5 secs

     total energy              =    -101.96089440 Ry
     estimated scf accuracy    <       0.00000028 Ry

     iteration # 10     ecut=    60.00 Ry     beta= 0.80
     Davidson diagonalization with overlap
     ethr =  1.07E-09,  avg # of iterations =  3.2

     total cpu time spent up to now is       16.8 secs

     total energy              =    -101.96089446 Ry
     estimated scf accuracy    <       0.00000002 Ry

     iteration # 11     ecut=    60.00 Ry     beta= 0.80
     Davidson diagonalization with overlap
     ethr =  8.72E-11,  avg # of iterations =  2.8

     total cpu time spent up to now is       18.1 secs

     End of self-consistent calculation

          k = 0.0000 0.0000 0.0000 (  4013 PWs)   bands (ev):

   -39.9203 -39.9183 -39.1632 -39.1170 -38.7994 -38.5917  -8.2506  -0.3047
     3.5550   4.8441   5.7272   8.2127   8.2127   8.6328  10.1436  11.6666
    11.6666

          k =-0.8734-0.5043 0.0845 (  4025 PWs)   bands (ev):

   -39.8750 -39.8736 -39.1467 -39.1219 -38.7995 -38.6344  -6.9304   0.8384
     3.0111   4.2048   5.4303   6.1459   6.4962   8.7482  10.1063  10.4397
    10.5741

          k = 1.7468 1.0085-0.1690 (  4052 PWs)   bands (ev):

   -39.8276 -39.8269 -39.1353 -39.1292 -38.7768 -38.6988  -3.4869  -2.5975
     4.0296   4.4756   5.1003   5.9038   6.6608   8.1136   8.2771   8.7599
     9.5998

          k =-0.8734 0.5043 0.1690 (  4027 PWs)   bands (ev):

   -39.8749 -39.8736 -39.1466 -39.1221 -38.7996 -38.6343  -6.9304   0.8384
     3.0105   4.2224   5.3501   6.1459   6.6125   8.7816   9.7017  10.2814
    11.0970

          k = 1.7468 2.0170-0.0845 (  4036 PWs)   bands (ev):

   -39.8271 -39.8268 -39.1349 -39.1292 -38.7765 -38.6981  -4.3642   0.1928
     1.2411   3.2208   5.5109   6.4263   7.6822   8.1587   8.4417   9.3156
     9.8740

          k = 0.8734 1.5128 0.0000 (  4033 PWs)   bands (ev):

   -39.8272 -39.8265 -39.1349 -39.1290 -38.7768 -38.6978  -4.3642   0.1929
     1.2411   3.2238   5.4119   6.7738   7.3619   8.2327   8.2954   9.5675
     9.8624

          k = 1.7468-1.0085-0.3380 (  4038 PWs)   bands (ev):

   -39.8273 -39.8267 -39.1352 -39.1291 -38.7764 -38.6985  -3.4869  -2.5975
     4.0114   4.5281   5.1002   5.7319   6.9439   7.9389   8.2993   8.6980
     9.5669

          k = 0.0000 0.0000 0.2535 (  3998 PWs)   bands (ev):

   -39.9201 -39.9179 -39.1622 -39.1167 -38.7998 -38.5916  -8.2505  -0.3047
     3.5892   4.6313   6.1471   7.9495   8.2127   8.2127  10.9248  11.6664
    11.6664

          k = 2.6202 1.5128 0.0000 (  4031 PWs)   bands (ev):

   -39.8747 -39.8741 -39.1468 -39.1218 -38.7992 -38.6347  -6.9304   0.8380
     3.0102   4.2755   5.1566   6.1459   7.0826   8.0719  10.1465  10.2667
    11.2085

          k = 1.7468 1.0085 0.0845 (  4052 PWs)   bands (ev):

   -39.8274 -39.8271 -39.1354 -39.1291 -38.7766 -38.6991  -3.4869  -2.5975
     4.0202   4.5016   5.1003   5.8100   6.8037   8.0316   8.2909   8.7274
     9.5739

          k = 2.6202-1.5128-0.2535 (  4034 PWs)   bands (ev):

   -39.8749 -39.8740 -39.1466 -39.1221 -38.7996 -38.6346  -6.9304   0.8380
     3.0096   4.2992   5.0953   6.1459   7.2553   7.9612   9.8882  10.2636
    11.4918

          k = 1.7468-2.0170-0.1690 (  4032 PWs)   bands (ev):

   -39.8271 -39.8266 -39.1349 -39.1290 -38.7764 -38.6980  -4.3642   0.1927
     1.2411   3.2179   5.6747   6.1187   7.9120   8.0891   8.7030   8.9663
     9.9189

          k = 0.0000 0.0000-0.5070 (  3984 PWs)   bands (ev):

   -39.9197 -39.9178 -39.1617 -39.1161 -38.7997 -38.5914  -8.2505  -0.3047
     3.6295   4.4730   6.9598   6.9862   8.2127   8.2127  11.6663  11.6663
    11.8024

     the Fermi energy is     7.9539 ev

!    total energy              =    -101.96089447 Ry
     estimated scf accuracy    <          1.8E-09 Ry
     smearing contrib. (-TS)   =      -0.00332522 Ry
     internal energy E=F+TS    =    -101.95756925 Ry

     The total energy is F=E-TS. E is the sum of the following terms:
     one-electron contribution =     -37.68820731 Ry
     hartree contribution      =      20.19175429 Ry
     xc contribution           =     -27.89941802 Ry
     ewald contribution        =     -56.56169820 Ry

     convergence has been achieved in  11 iterations

     Forces acting on atoms (cartesian axes, Ry/au):

     atom    1 type  1   force =    -0.00000000    0.00000000    0.17339220
     atom    2 type  1   force =    -0.00000000   -0.00000000   -0.17339220
     atom    3 type  1   force =    -0.00000000   -0.00000000    0.01604509
     atom    4 type  1   force =    -0.00000000   -0.00000000   -0.01604509
     atom    5 type  1   force =     0.00000000    0.00000000   -0.01230010
     atom    6 type  1   force =    -0.00000000   -0.00000000    0.01230010
     atom    7 type  2   force =    -0.00000000   -0.00000000    0.19211939
     atom    8 type  2   force =    -0.00000000    0.00000000   -0.19211939
     The non-local contrib.  to forces
     atom    1 type  1   force =    -0.00000000    0.00000000   -0.02419017
     atom    2 type  1   force =     0.00000000   -0.00000000    0.02419017
     atom    3 type  1   force =     0.00000000    0.00000000    0.00556288
     atom    4 type  1   force =    -0.00000000   -0.00000000   -0.00556288
     atom    5 type  1   force =    -0.00000000   -0.00000000    0.04076312
     atom    6 type  1   force =    -0.00000000   -0.00000000   -0.04076312
     atom    7 type  2   force =    -0.00000000   -0.00000000    0.19585690
     atom    8 type  2   force =    -0.00000000   -0.00000000   -0.19585690
     The ionic contribution  to forces
     atom    1 type  1   force =     0.00000000    0.00000000    1.63872709
     atom    2 type  1   force =     0.00000000   -0.00000000   -1.63872709
     atom    3 type  1   force =     0.00000000    0.00000000    0.64845246
     atom    4 type  1   force =     0.00000000   -0.00000000   -0.64845246
     atom    5 type  1   force =     0.00000000    0.00000000   -1.01933659
     atom    6 type  1   force =     0.00000000   -0.00000000    1.01933659
     atom    7 type  2   force =     0.00000000   -0.00000000    0.94218479
     atom    8 type  2   force =     0.00000000    0.00000000   -0.94218479
     The local contribution  to forces
     atom    1 type  1   force =    -0.00000000   -0.00000000   -1.44117850
     atom    2 type  1   force =    -0.00000000    0.00000000    1.44117850
     atom    3 type  1   force =    -0.00000000   -0.00000000   -0.63796902
     atom    4 type  1   force =    -0.00000000    0.00000000    0.63796902
     atom    5 type  1   force =    -0.00000000   -0.00000000    0.96628491
     atom    6 type  1   force =    -0.00000000    0.00000000   -0.96628491
     atom    7 type  2   force =     0.00000000    0.00000000   -0.92786543
     atom    8 type  2   force =     0.00000000   -0.00000000    0.92786543
     The core correction contribution to forces
     atom    1 type  1   force =     0.00000000    0.00000000    0.00000000
     atom    2 type  1   force =     0.00000000    0.00000000    0.00000000
     atom    3 type  1   force =     0.00000000    0.00000000    0.00000000
     atom    4 type  1   force =     0.00000000    0.00000000    0.00000000
     atom    5 type  1   force =     0.00000000    0.00000000    0.00000000
     atom    6 type  1   force =     0.00000000    0.00000000    0.00000000
     atom    7 type  2   force =     0.00000000    0.00000000   -0.01807989
     atom    8 type  2   force =    -0.00000000   -0.00000000    0.01807989
     The Hubbard contrib.    to forces
     atom    1 type  1   force =     0.00000000    0.00000000    0.00000000
     atom    2 type  1   force =     0.00000000    0.00000000    0.00000000
     atom    3 type  1   force =     0.00000000    0.00000000    0.00000000
     atom    4 type  1   force =     0.00000000    0.00000000    0.00000000
     atom    5 type  1   force =     0.00000000    0.00000000    0.00000000
     atom    6 type  1   force =     0.00000000    0.00000000    0.00000000
     atom    7 type  2   force =     0.00000000    0.00000000    0.00000000
     atom    8 type  2   force =     0.00000000    0.00000000    0.00000000
     The SCF correction term to forces
     atom    1 type  1   force =    -0.00000000   -0.00000000    0.00003379
     atom    2 type  1   force =     0.00000000    0.00000000   -0.00003379
     atom    3 type  1   force =    -0.00000000   -0.00000000   -0.00000123
     atom    4 type  1   force =    -0.00000000   -0.00000000    0.00000123
     atom    5 type  1   force =     0.00000000    0.00000000   -0.00001154
     atom    6 type  1   force =     0.00000000   -0.00000000    0.00001154
     atom    7 type  2   force =    -0.00000000   -0.00000000    0.00002302
     atom    8 type  2   force =     0.00000000    0.00000000   -0.00002302

     Total force =     0.367106     Total SCF correction =     0.000060


     Computing stress (Cartesian axis) and pressure

          total   stress  (Ry/bohr**3)                   (kbar)     P=      945.04
   0.00607515  -0.00000000  -0.00000000          893.69       -0.00       -0.00
   0.00000000   0.00607515   0.00000000            0.00      893.69        0.00
   0.00000000   0.00000000   0.00712236            0.00        0.00     1047.74


     BFGS Geometry Optimization
     Energy error            =      0.0E+00 Ry
     Gradient error          =      1.9E-01 Ry/Bohr
     Cell gradient error     =      5.5E+02 kbar

     number of scf cycles    =   1
     number of bfgs steps    =   0

     enthalpy           new  =    -100.2156308752 Ry

     new trust radius        =       0.4218645011 bohr
ibrav =      5
 celldm(1) =     21.22708568
 celldm(4) =      0.96092265
Input lattice vectors:
     0.15269365    -0.08815772     1.07805619
    -0.00000000     0.17631544     1.07805619
    -0.15269365    -0.08815772     1.07805619
New lattice vectors in INITIAL alat:
     0.15269365    -0.08815772     1.07805619
     0.00000000     0.17631544     1.07805619
    -0.15269365    -0.08815772     1.07805619
New lattice vectors in NEW alat (for information only):
     0.13978082    -0.08070249     0.98688826
     0.00000000     0.16140498     0.98688826
    -0.13978082    -0.08070249     0.98688826
Discrepancy in bohr =     0.000000    0.000000    0.000000
     new conv_thr            =       0.0000000100 Ry

     new unit-cell volume =    638.88821 a.u.^3 (    94.67346 Ang^3 )
     density =      1.71568 g/cm^3

CELL_PARAMETERS (alat= 19.43197568)
   0.152693654  -0.088157722   1.078056186
   0.000000000   0.176315445   1.078056186
  -0.152693654  -0.088157722   1.078056186

ATOMIC_POSITIONS (crystal)
Li            0.2377024818        0.2377024818        0.2377024818
Li            0.7622975182        0.7622975182        0.7622975182
Li            0.3111770723        0.3111770723        0.3111770723
Li            0.6888229277        0.6888229277        0.6888229277
Li            0.3968677343        0.3968677343        0.3968677343
Li            0.6031322657        0.6031322657        0.6031322657
Si            0.1807265339        0.1807265339        0.1807265339
Si            0.8192734661        0.8192734661        0.8192734661



     Writing config-only to output data dir ./output/LiSi.save/
     NEW-OLD atomic charge density approx. for the potential
     extrapolated charge   31.09820, renormalised to   26.00000

     total cpu time spent up to now is       19.7 secs

     Self-consistent Calculation

     iteration #  1     ecut=    60.00 Ry     beta= 0.80
     Davidson diagonalization with overlap
     ethr =  1.00E-06,  avg # of iterations = 15.0

     total cpu time spent up to now is       24.1 secs

     total energy              =     -91.17377889 Ry
     estimated scf accuracy    <      11.72832098 Ry

     iteration #  2     ecut=    60.00 Ry     beta= 0.80
     Davidson diagonalization with overlap
     ethr =  1.00E-02,  avg # of iterations = 11.2
     Minimization algorithm failed to find Fermi energy: reverting to bisection
     Possible cause: smearing is larger than the electronic band-gap.

     total cpu time spent up to now is       27.3 secs

     total energy              =     -92.35602302 Ry
     estimated scf accuracy    <     169.92958303 Ry

     iteration #  3     ecut=    60.00 Ry     beta= 0.80
     Davidson diagonalization with overlap
     ethr =  1.00E-02,  avg # of iterations =  7.5

     total cpu time spent up to now is       29.7 secs

     total energy              =    -103.73915990 Ry
     estimated scf accuracy    <      24.45463879 Ry

     iteration #  4     ecut=    60.00 Ry     beta= 0.80
     Davidson diagonalization with overlap
     ethr =  1.00E-02,  avg # of iterations =  2.7

     total cpu time spent up to now is       30.9 secs

     total energy              =    -103.41261477 Ry
     estimated scf accuracy    <      13.33452360 Ry

     iteration #  5     ecut=    60.00 Ry     beta= 0.80
     Davidson diagonalization with overlap
     ethr =  1.00E-02,  avg # of iterations =  1.3

     total cpu time spent up to now is       32.1 secs

     total energy              =    -102.84442331 Ry
     estimated scf accuracy    <      10.18270511 Ry

     iteration #  6     ecut=    60.00 Ry     beta= 0.80
     Davidson diagonalization with overlap
     ethr =  1.00E-02,  avg # of iterations =  2.1

     total cpu time spent up to now is       33.3 secs

     total energy              =    -102.70499930 Ry
     estimated scf accuracy    <       5.21976770 Ry

     iteration #  7     ecut=    60.00 Ry     beta= 0.80
     Davidson diagonalization with overlap
     ethr =  1.00E-02,  avg # of iterations =  1.6

     total cpu time spent up to now is       34.4 secs

     total energy              =    -102.73598859 Ry
     estimated scf accuracy    <       2.34706610 Ry

     iteration #  8     ecut=    60.00 Ry     beta= 0.80
     Davidson diagonalization with overlap
     ethr =  9.03E-03,  avg # of iterations =  1.1

     total cpu time spent up to now is       35.6 secs

     total energy              =    -102.45592181 Ry
     estimated scf accuracy    <       2.03163839 Ry

     iteration #  9     ecut=    60.00 Ry     beta= 0.80
     Davidson diagonalization with overlap
     ethr =  7.81E-03,  avg # of iterations =  2.2

     total cpu time spent up to now is       36.8 secs

     total energy              =    -102.61485243 Ry
     estimated scf accuracy    <       0.08813440 Ry

     iteration # 10     ecut=    60.00 Ry     beta= 0.80
     Davidson diagonalization with overlap
     ethr =  3.39E-04,  avg # of iterations =  5.8

     total cpu time spent up to now is       38.3 secs

     total energy              =    -102.63281851 Ry
     estimated scf accuracy    <       0.17867034 Ry

     iteration # 11     ecut=    60.00 Ry     beta= 0.80
     Davidson diagonalization with overlap
     ethr =  3.39E-04,  avg # of iterations =  1.0

     total cpu time spent up to now is       39.5 secs

     total energy              =    -102.62343018 Ry
     estimated scf accuracy    <       0.16855918 Ry

     iteration # 12     ecut=    60.00 Ry     beta= 0.80
     Davidson diagonalization with overlap
     ethr =  3.39E-04,  avg # of iterations =  1.3

     total cpu time spent up to now is       40.6 secs

     total energy              =    -102.63680634 Ry
     estimated scf accuracy    <       0.19328399 Ry

     iteration # 13     ecut=    60.00 Ry     beta= 0.80
     Davidson diagonalization with overlap
     ethr =  3.39E-04,  avg # of iterations =  1.0

     total cpu time spent up to now is       41.8 secs

     total energy              =    -102.63909738 Ry
     estimated scf accuracy    <       0.20175563 Ry

     iteration # 14     ecut=    60.00 Ry     beta= 0.80
     Davidson diagonalization with overlap
     ethr =  3.39E-04,  avg # of iterations =  1.0

     total cpu time spent up to now is       42.9 secs

     total energy              =    -102.63015177 Ry
     estimated scf accuracy    <       0.20338150 Ry

     iteration # 15     ecut=    60.00 Ry     beta= 0.80
     Davidson diagonalization with overlap
     ethr =  3.39E-04,  avg # of iterations =  1.0

     total cpu time spent up to now is       44.0 secs

     total energy              =    -102.56572037 Ry
     estimated scf accuracy    <       0.20065164 Ry

     iteration # 16     ecut=    60.00 Ry     beta= 0.80
     Davidson diagonalization with overlap
     ethr =  3.39E-04,  avg # of iterations =  3.9

     total cpu time spent up to now is       45.3 secs

     total energy              =    -102.69110734 Ry
     estimated scf accuracy    <       2.23234486 Ry

     iteration # 17     ecut=    60.00 Ry     beta= 0.80
     Davidson diagonalization with overlap
     ethr =  3.39E-04,  avg # of iterations =  1.0

     total cpu time spent up to now is       46.5 secs

     total energy              =    -102.66961145 Ry
     estimated scf accuracy    <       1.83886731 Ry

     iteration # 18     ecut=    60.00 Ry     beta= 0.80
     Davidson diagonalization with overlap
     ethr =  3.39E-04,  avg # of iterations =  1.0

     total cpu time spent up to now is       47.6 secs

     total energy              =    -102.54414422 Ry
     estimated scf accuracy    <       1.06726417 Ry

     iteration # 19     ecut=    60.00 Ry     beta= 0.80
     Davidson diagonalization with overlap
     ethr =  3.39E-04,  avg # of iterations =  3.3

     total cpu time spent up to now is       48.9 secs

     total energy              =    -102.62731979 Ry
     estimated scf accuracy    <       0.20308381 Ry

     iteration # 20     ecut=    60.00 Ry     beta= 0.80
     Davidson diagonalization with overlap
     ethr =  3.39E-04,  avg # of iterations =  1.1

     total cpu time spent up to now is       50.0 secs

     total energy              =    -102.61771394 Ry
     estimated scf accuracy    <       0.18400683 Ry

     iteration # 21     ecut=    60.00 Ry     beta= 0.80
     Davidson diagonalization with overlap
     ethr =  3.39E-04,  avg # of iterations =  1.0

     total cpu time spent up to now is       51.2 secs

     total energy              =    -102.61415986 Ry
     estimated scf accuracy    <       0.10087314 Ry

     iteration # 22     ecut=    60.00 Ry     beta= 0.80
     Davidson diagonalization with overlap
     ethr =  3.39E-04,  avg # of iterations =  1.0

     total cpu time spent up to now is       52.3 secs

     total energy              =    -102.61106012 Ry
     estimated scf accuracy    <       0.06731496 Ry

     iteration # 23     ecut=    60.00 Ry     beta= 0.80
     Davidson diagonalization with overlap
     ethr =  2.59E-04,  avg # of iterations =  1.0

     total cpu time spent up to now is       53.5 secs

     total energy              =    -102.60275066 Ry
     estimated scf accuracy    <       0.04688350 Ry

     iteration # 24     ecut=    60.00 Ry     beta= 0.80
     Davidson diagonalization with overlap
     ethr =  1.80E-04,  avg # of iterations =  1.3

     total cpu time spent up to now is       54.6 secs

     total energy              =    -102.60350902 Ry
     estimated scf accuracy    <       0.00911798 Ry

     iteration # 25     ecut=    60.00 Ry     beta= 0.80
     Davidson diagonalization with overlap
     ethr =  3.51E-05,  avg # of iterations =  4.5

     total cpu time spent up to now is       55.8 secs

     total energy              =    -102.60350062 Ry
     estimated scf accuracy    <       0.00430880 Ry

     iteration # 26     ecut=    60.00 Ry     beta= 0.80
     Davidson diagonalization with overlap
     ethr =  1.66E-05,  avg # of iterations =  1.2

     total cpu time spent up to now is       57.0 secs

     total energy              =    -102.60304875 Ry
     estimated scf accuracy    <       0.00255647 Ry

     iteration # 27     ecut=    60.00 Ry     beta= 0.80
     Davidson diagonalization with overlap
     ethr =  9.83E-06,  avg # of iterations =  3.2

     total cpu time spent up to now is       58.2 secs

     total energy              =    -102.60329149 Ry
     estimated scf accuracy    <       0.00041496 Ry

     iteration # 28     ecut=    60.00 Ry     beta= 0.80
     Davidson diagonalization with overlap
     ethr =  1.60E-06,  avg # of iterations =  2.0

     total cpu time spent up to now is       59.4 secs

     total energy              =    -102.60332254 Ry
     estimated scf accuracy    <       0.00020040 Ry

     iteration # 29     ecut=    60.00 Ry     beta= 0.80
     Davidson diagonalization with overlap
     ethr =  7.71E-07,  avg # of iterations =  1.8

     total cpu time spent up to now is       60.5 secs

     total energy              =    -102.60333165 Ry
     estimated scf accuracy    <       0.00000093 Ry

     iteration # 30     ecut=    60.00 Ry     beta= 0.80
     Davidson diagonalization with overlap
     ethr =  3.59E-09,  avg # of iterations =  3.4

     total cpu time spent up to now is       61.8 secs

     total energy              =    -102.60333102 Ry
     estimated scf accuracy    <       0.00001314 Ry

     iteration # 31     ecut=    60.00 Ry     beta= 0.80
     Davidson diagonalization with overlap
     ethr =  3.59E-09,  avg # of iterations =  2.0

     total cpu time spent up to now is       63.1 secs

     total energy              =    -102.60333175 Ry
     estimated scf accuracy    <       0.00000007 Ry

     iteration # 32     ecut=    60.00 Ry     beta= 0.80
     Davidson diagonalization with overlap
     ethr =  2.76E-10,  avg # of iterations =  3.7

     total cpu time spent up to now is       64.5 secs

     total energy              =    -102.60333133 Ry
     estimated scf accuracy    <       0.00000351 Ry

     iteration # 33     ecut=    60.00 Ry     beta= 0.80
     Davidson diagonalization with overlap
     ethr =  2.76E-10,  avg # of iterations =  3.7

     total cpu time spent up to now is       65.9 secs

     total energy              =    -102.60333165 Ry
     estimated scf accuracy    <       0.00000116 Ry

     iteration # 34     ecut=    60.00 Ry     beta= 0.80
     Davidson diagonalization with overlap
     ethr =  2.76E-10,  avg # of iterations =  1.9

     total cpu time spent up to now is       67.2 secs

     End of self-consistent calculation

          k = 0.0000 0.0000 0.0000 (  4013 PWs)   bands (ev):

   -41.4653 -41.4650 -41.1305 -41.1256 -40.9559 -40.8299  -7.7672  -1.0447
     1.4955   2.7520   3.4995   6.0485   7.2702   7.2702   7.7382  11.7973
    12.2034

          k =-0.8186-0.4726 0.0773 (  4025 PWs)   bands (ev):

   -41.4135 -41.4119 -41.1607 -41.1564 -40.9478 -40.8504  -6.6058   0.0142
     2.2016   2.3372   3.4016   4.3234   5.4474   6.2456   7.9549   8.3710
     9.1318

          k = 1.6373 0.9453-0.1546 (  4052 PWs)   bands (ev):

   -41.3379 -41.3360 -41.2195 -41.2189 -40.9262 -40.8830  -3.7533  -2.4507
     2.7508   3.2688   4.1236   4.4840   4.7188   5.7685   5.8284   6.6750
     7.0397

          k =-0.8186 0.4726 0.1546 (  4027 PWs)   bands (ev):

   -41.4139 -41.4117 -41.1597 -41.1579 -40.9485 -40.8502  -6.6058   0.0139
     2.1788   2.3870   3.3100   4.4295   5.4473   6.2438   7.6128   8.6708
     9.1561

          k = 1.6373 1.8906-0.0773 (  4036 PWs)   bands (ev):

   -41.3350 -41.3327 -41.2210 -41.2190 -40.9251 -40.8818  -4.3625  -0.3696
     1.2244   2.0690   3.6461   4.5303   5.6552   5.9765   6.7469   7.0998
     7.4065

          k = 0.8186 1.4179 0.0000 (  4033 PWs)   bands (ev):

   -41.3349 -41.3330 -41.2196 -41.2195 -40.9259 -40.8808  -4.3625  -0.3696
     1.2244   2.0746   3.5696   4.7333   5.6231   5.7767   6.7545   7.2330
     7.4512

          k = 1.6373-0.9453-0.3092 (  4038 PWs)   bands (ev):

   -41.3368 -41.3343 -41.2199 -41.2177 -40.9254 -40.8815  -3.7533  -2.4508
     2.7245   3.3905   3.9036   4.4839   4.8996   5.7717   5.8102   6.4998
     7.2232

          k = 0.0000 0.0000 0.2319 (  3998 PWs)   bands (ev):

   -41.4662 -41.4610 -41.1287 -41.1232 -40.9570 -40.8291  -7.7672  -1.0449
     1.5336   2.5338   3.8870   5.5306   7.2702   7.2702   8.3449  10.7528
    10.9980

          k = 2.4559 1.4179 0.0000 (  4031 PWs)   bands (ev):

   -41.4137 -41.4128 -41.1612 -41.1564 -40.9467 -40.8520  -6.6058   0.0130
     2.2275   2.3802   3.1394   4.8520   5.4474   5.6989   7.9801   8.7558
     9.0915

          k = 1.6373 0.9453 0.0773 (  4052 PWs)   bands (ev):

   -41.3370 -41.3344 -41.2212 -41.2196 -40.9254 -40.8840  -3.7533  -2.4508
     2.7368   3.3242   4.0113   4.4840   4.8163   5.7700   5.8207   6.5749
     7.1437

          k = 2.4559-1.4179-0.2319 (  4034 PWs)   bands (ev):

   -41.4151 -41.4128 -41.1600 -41.1581 -40.9483 -40.8519  -6.6058   0.0127
     2.2016   2.4447   3.0628   4.9953   5.4473   5.6116   7.7496   8.9483
     9.1280

          k = 1.6373-1.8906-0.1546 (  4032 PWs)   bands (ev):

   -41.3340 -41.3326 -41.2198 -41.2191 -40.9242 -40.8816  -4.3625  -0.3697
     1.2244   2.0637   3.7520   4.3324   5.6617   6.2124   6.7968   6.8355
     7.4215

          k =-0.0000-0.0000-0.4638 (  3984 PWs)   bands (ev):

   -41.4637 -41.4612 -41.1260 -41.1220 -40.9569 -40.8278  -7.7672  -1.0449
     1.5780   2.3735   4.4431   4.8816   7.2702   7.2702   9.0850  10.2058
    10.7521

     the Fermi energy is     5.7182 ev

!    total energy              =    -102.60333169 Ry
     estimated scf accuracy    <          7.5E-09 Ry
     smearing contrib. (-TS)   =      -0.00472065 Ry
     internal energy E=F+TS    =    -102.59861104 Ry

     The total energy is F=E-TS. E is the sum of the following terms:
     one-electron contribution =     -42.81581749 Ry
     hartree contribution      =      20.91696639 Ry
     xc contribution           =     -27.24282759 Ry
     ewald contribution        =     -53.45693234 Ry

     convergence has been achieved in  34 iterations

     Forces acting on atoms (cartesian axes, Ry/au):

     atom    1 type  1   force =    -0.00000000   -0.00000000    0.11151084
     atom    2 type  1   force =    -0.00000000   -0.00000000   -0.11151084
     atom    3 type  1   force =     0.00000000    0.00000000    0.01411219
     atom    4 type  1   force =    -0.00000000   -0.00000000   -0.01411219
     atom    5 type  1   force =    -0.00000000    0.00000000   -0.00893052
     atom    6 type  1   force =     0.00000000   -0.00000000    0.00893052
     atom    7 type  2   force =     0.00000000    0.00000000    0.01838333
     atom    8 type  2   force =     0.00000000    0.00000000   -0.01838333
     The non-local contrib.  to forces
     atom    1 type  1   force =     0.00000000    0.00000000    0.07384679
     atom    2 type  1   force =    -0.00000000   -0.00000000   -0.07384679
     atom    3 type  1   force =     0.00000000    0.00000000    0.02126806
     atom    4 type  1   force =    -0.00000000   -0.00000000   -0.02126806
     atom    5 type  1   force =     0.00000000   -0.00000000    0.05483905
     atom    6 type  1   force =    -0.00000000    0.00000000   -0.05483905
     atom    7 type  2   force =     0.00000000   -0.00000000    0.08977868
     atom    8 type  2   force =    -0.00000000   -0.00000000   -0.08977868
     The ionic contribution  to forces
     atom    1 type  1   force =    -0.00000000    0.00000000    0.92417447
     atom    2 type  1   force =    -0.00000000   -0.00000000   -0.92417447
     atom    3 type  1   force =    -0.00000000    0.00000000    0.54320957
     atom    4 type  1   force =    -0.00000000   -0.00000000   -0.54320957
     atom    5 type  1   force =    -0.00000000    0.00000000   -0.74123268
     atom    6 type  1   force =     0.00000000   -0.00000000    0.74123268
     atom    7 type  2   force =    -0.00000000   -0.00000000    0.90437501
     atom    8 type  2   force =    -0.00000000    0.00000000   -0.90437501
     The local contribution  to forces
     atom    1 type  1   force =     0.00000000   -0.00000000   -0.88658000
     atom    2 type  1   force =     0.00000000    0.00000000    0.88658000
     atom    3 type  1   force =    -0.00000000   -0.00000000   -0.55038802
     atom    4 type  1   force =     0.00000000    0.00000000    0.55038802
     atom    5 type  1   force =    -0.00000000   -0.00000000    0.67751898
     atom    6 type  1   force =    -0.00000000    0.00000000   -0.67751898
     atom    7 type  2   force =    -0.00000000    0.00000000   -0.96481927
     atom    8 type  2   force =     0.00000000   -0.00000000    0.96481927
     The core correction contribution to forces
     atom    1 type  1   force =     0.00000000    0.00000000    0.00000000
     atom    2 type  1   force =     0.00000000    0.00000000    0.00000000
     atom    3 type  1   force =     0.00000000    0.00000000    0.00000000
     atom    4 type  1   force =     0.00000000    0.00000000    0.00000000
     atom    5 type  1   force =     0.00000000    0.00000000    0.00000000
     atom    6 type  1   force =     0.00000000    0.00000000    0.00000000
     atom    7 type  2   force =     0.00000000    0.00000000   -0.01100567
     atom    8 type  2   force =     0.00000000   -0.00000000    0.01100567
     The Hubbard contrib.    to forces
     atom    1 type  1   force =     0.00000000    0.00000000    0.00000000
     atom    2 type  1   force =     0.00000000    0.00000000    0.00000000
     atom    3 type  1   force =     0.00000000    0.00000000    0.00000000
     atom    4 type  1   force =     0.00000000    0.00000000    0.00000000
     atom    5 type  1   force =     0.00000000    0.00000000    0.00000000
     atom    6 type  1   force =     0.00000000    0.00000000    0.00000000
     atom    7 type  2   force =     0.00000000    0.00000000    0.00000000
     atom    8 type  2   force =     0.00000000    0.00000000    0.00000000
     The SCF correction term to forces
     atom    1 type  1   force =    -0.00000000    0.00000000    0.00006959
     atom    2 type  1   force =     0.00000000   -0.00000000   -0.00006959
     atom    3 type  1   force =     0.00000000   -0.00000000    0.00002259
     atom    4 type  1   force =     0.00000000    0.00000000   -0.00002259
     atom    5 type  1   force =    -0.00000000   -0.00000000   -0.00005588
     atom    6 type  1   force =     0.00000000    0.00000000    0.00005588
     atom    7 type  2   force =     0.00000000    0.00000000    0.00005457
     atom    8 type  2   force =     0.00000000   -0.00000000   -0.00005457

     Total force =     0.161564     Total SCF correction =     0.000151


     Computing stress (Cartesian axis) and pressure

          total   stress  (Ry/bohr**3)                   (kbar)     P=      366.04
   0.00195697  -0.00000000   0.00000000          287.88       -0.00        0.00
  -0.00000000   0.00195697   0.00000000           -0.00      287.88        0.00
  -0.00000000   0.00000000   0.00355097           -0.00        0.00      522.37

     Energy error            =      2.2E-01 Ry
     Gradient error          =      1.1E-01 Ry/Bohr
     Cell gradient error     =      2.1E+02 kbar

     number of scf cycles    =   2
     number of bfgs steps    =   1

     enthalpy           old  =    -100.2156308752 Ry
     enthalpy           new  =    -100.4317948084 Ry

     CASE: enthalpy          _new < enthalpy          _old

     new trust radius        =       0.1496829778 bohr
ibrav =      5
 celldm(1) =     21.56625061
 celldm(4) =      0.96404300
Input lattice vectors:
     0.14881079    -0.08591595     1.09645036
    -0.00000000     0.17183190     1.09645036
    -0.14881079    -0.08591595     1.09645036
New lattice vectors in INITIAL alat:
     0.14881079    -0.08591595     1.09645036
     0.00000000     0.17183190     1.09645036
    -0.14881079    -0.08591595     1.09645036
New lattice vectors in NEW alat (for information only):
     0.13408393    -0.07741340     0.98794163
     0.00000000     0.15482679     0.98794163
    -0.13408393    -0.07741340     0.98794163
Discrepancy in bohr =     0.000000    0.000000    0.000000
     new conv_thr            =       0.0000000022 Ry

     new unit-cell volume =    617.16223 a.u.^3 (    91.45401 Ang^3 )
     density =      1.77607 g/cm^3

CELL_PARAMETERS (alat= 19.43197568)
   0.148810794  -0.085915952   1.096450363
   0.000000000   0.171831904   1.096450363
  -0.148810794  -0.085915952   1.096450363

ATOMIC_POSITIONS (crystal)
Li            0.2400842133        0.2400842133        0.2400842133
Li            0.7599157867        0.7599157867        0.7599157867
Li            0.3114622169        0.3114622169        0.3114622169
Li            0.6885377831        0.6885377831        0.6885377831
Li            0.3966813662        0.3966813662        0.3966813662
Li            0.6033186338        0.6033186338        0.6033186338
Si            0.1815703778        0.1815703778        0.1815703778
Si            0.8184296222        0.8184296222        0.8184296222



     Writing config-only to output data dir ./output/LiSi.save/
     NEW-OLD atomic charge density approx. for the potential
     extrapolated charge   25.08573, renormalised to   26.00000

     total cpu time spent up to now is       68.8 secs

     Self-consistent Calculation

     iteration #  1     ecut=    60.00 Ry     beta= 0.80
     Davidson diagonalization with overlap
     ethr =  1.00E-06,  avg # of iterations = 10.0

     total cpu time spent up to now is       72.0 secs

     total energy              =    -102.50267836 Ry
     estimated scf accuracy    <       0.11171808 Ry

     iteration #  2     ecut=    60.00 Ry     beta= 0.80
     Davidson diagonalization with overlap
     ethr =  4.30E-04,  avg # of iterations =  5.8

     total cpu time spent up to now is       73.9 secs

     total energy              =    -101.84606528 Ry
     estimated scf accuracy    <      19.60842809 Ry

     iteration #  3     ecut=    60.00 Ry     beta= 0.80
     Davidson diagonalization with overlap
     ethr =  4.30E-04,  avg # of iterations =  6.2

     total cpu time spent up to now is       75.5 secs

     total energy              =    -102.60277001 Ry
     estimated scf accuracy    <       0.51896486 Ry

     iteration #  4     ecut=    60.00 Ry     beta= 0.80
     Davidson diagonalization with overlap
     ethr =  4.30E-04,  avg # of iterations =  1.7

     total cpu time spent up to now is       76.6 secs

     total energy              =    -102.60642073 Ry
     estimated scf accuracy    <       0.16590855 Ry

     iteration #  5     ecut=    60.00 Ry     beta= 0.80
     Davidson diagonalization with overlap
     ethr =  4.30E-04,  avg # of iterations =  1.0

     total cpu time spent up to now is       77.7 secs

     total energy              =    -102.61098620 Ry
     estimated scf accuracy    <       0.00389116 Ry

     iteration #  6     ecut=    60.00 Ry     beta= 0.80
     Davidson diagonalization with overlap
     ethr =  1.50E-05,  avg # of iterations =  3.1

     total cpu time spent up to now is       79.0 secs

     total energy              =    -102.61154883 Ry
     estimated scf accuracy    <       0.01792482 Ry

     iteration #  7     ecut=    60.00 Ry     beta= 0.80
     Davidson diagonalization with overlap
     ethr =  1.50E-05,  avg # of iterations =  1.2

     total cpu time spent up to now is       80.1 secs

     total energy              =    -102.61141429 Ry
     estimated scf accuracy    <       0.00535674 Ry

     iteration #  8     ecut=    60.00 Ry     beta= 0.80
     Davidson diagonalization with overlap
     ethr =  1.50E-05,  avg # of iterations =  1.5

     total cpu time spent up to now is       81.3 secs

     total energy              =    -102.61153104 Ry
     estimated scf accuracy    <       0.00003611 Ry

     iteration #  9     ecut=    60.00 Ry     beta= 0.80
     Davidson diagonalization with overlap
     ethr =  1.39E-07,  avg # of iterations =  3.5

     total cpu time spent up to now is       82.6 secs

     total energy              =    -102.61153423 Ry
     estimated scf accuracy    <       0.00000460 Ry

     iteration # 10     ecut=    60.00 Ry     beta= 0.80
     Davidson diagonalization with overlap
     ethr =  1.77E-08,  avg # of iterations =  1.8

     total cpu time spent up to now is       83.8 secs

     total energy              =    -102.61153448 Ry
     estimated scf accuracy    <       0.00000528 Ry

     iteration # 11     ecut=    60.00 Ry     beta= 0.80
     Davidson diagonalization with overlap
     ethr =  1.77E-08,  avg # of iterations =  1.0

     total cpu time spent up to now is       84.9 secs

     total energy              =    -102.61153467 Ry
     estimated scf accuracy    <       0.00000011 Ry

     iteration # 12     ecut=    60.00 Ry     beta= 0.80
     Davidson diagonalization with overlap
     ethr =  4.22E-10,  avg # of iterations =  3.3

     total cpu time spent up to now is       86.2 secs

     End of self-consistent calculation

          k = 0.0000 0.0000 0.0000 (  4013 PWs)   bands (ev):

   -41.1646 -41.1640 -40.6772 -40.6359 -40.6095 -40.4990  -8.0233  -1.1081
     1.7415   2.9779   3.4195   6.0483   7.7997   7.9554   7.9554  11.8381
    12.3450

          k =-0.8400-0.4850 0.0760 (  4025 PWs)   bands (ev):

   -41.1085 -41.1065 -40.6743 -40.6676 -40.6307 -40.5214  -6.7917   0.0355
     2.4598   2.6620   3.6021   4.3335   5.9485   6.3398   8.1178   8.9298
     9.5669

          k = 1.6800 0.9699-0.1520 (  4052 PWs)   bands (ev):

   -41.0396 -41.0379 -40.7212 -40.7178 -40.6057 -40.5559  -3.7079  -2.4866
     3.0121   3.5330   4.3479   4.8947   4.9220   6.1140   6.2022   6.9692
     7.2109

          k =-0.8400 0.4850 0.1520 (  4027 PWs)   bands (ev):

   -41.1083 -41.1074 -40.6738 -40.6687 -40.6308 -40.5213  -6.7917   0.0354
     2.4541   2.6871   3.5249   4.4201   5.9485   6.3272   7.9201   9.1499
     9.5902

          k = 1.6800 1.9399-0.0760 (  4036 PWs)   bands (ev):

   -41.0381 -41.0378 -40.7203 -40.7189 -40.6056 -40.5552  -4.4040  -0.1409
     1.3196   2.2484   3.9247   4.7790   5.8611   6.2508   7.1497   7.4409
     7.8593

          k = 0.8400 1.4549 0.0000 (  4033 PWs)   bands (ev):

   -41.0390 -41.0376 -40.7195 -40.7191 -40.6064 -40.5545  -4.4040  -0.1408
     1.3196   2.2521   3.8583   4.9600   5.8334   6.0503   7.1804   7.6470
     7.8301

          k = 1.6800-0.9699-0.3040 (  4038 PWs)   bands (ev):

   -41.0395 -41.0376 -40.7193 -40.7186 -40.6059 -40.5544  -3.7079  -2.4866
     2.9904   3.6386   4.1415   4.9219   5.0838   6.0451   6.2041   6.8311
     7.3845

          k = 0.0000 0.0000 0.2280 (  3998 PWs)   bands (ev):

   -41.1653 -41.1616 -40.6766 -40.6335 -40.6110 -40.4978  -8.0233  -1.1082
     1.7763   2.7224   3.8071   5.6030   7.9554   7.9554   8.3957  10.8790
    11.3402

          k = 2.5200 1.4549 0.0000 (  4031 PWs)   bands (ev):

   -41.1088 -41.1058 -40.6750 -40.6684 -40.6294 -40.5232  -6.7917   0.0350
     2.5074   2.6733   3.3383   4.8214   5.8306   5.9485   8.4141   9.0771
     9.5433

          k = 1.6800 0.9699 0.0760 (  4052 PWs)   bands (ev):

   -41.0400 -41.0361 -40.7211 -40.7199 -40.6051 -40.5565  -3.7079  -2.4866
     3.0007   3.5813   4.2410   4.9219   4.9960   6.0818   6.2035   6.8853
     7.3121

          k = 2.5200-1.4549-0.2280 (  4034 PWs)   bands (ev):

   -41.1099 -41.1072 -40.6747 -40.6692 -40.6313 -40.5235  -6.7917   0.0347
     2.4960   2.7117   3.2804   4.9114   5.7776   5.9485   8.1916   9.3448
     9.5829

          k = 1.6800-1.9399-0.1520 (  4032 PWs)   bands (ev):

   -41.0380 -41.0365 -40.7195 -40.7184 -40.6043 -40.5549  -4.4040  -0.1409
     1.3196   2.2446   4.0143   4.6040   5.8692   6.5048   7.0474   7.2842
     7.8917

          k =-0.0000-0.0000-0.4560 (  3984 PWs)   bands (ev):

   -41.1639 -41.1617 -40.6771 -40.6288 -40.6120 -40.4971  -8.0233  -1.1083
     1.8162   2.5614   4.1966   5.1415   7.9554   7.9554   9.2892   9.8716
    11.3399

     the Fermi energy is     6.0201 ev

!    total energy              =    -102.61153469 Ry
     estimated scf accuracy    <          2.0E-09 Ry
     smearing contrib. (-TS)   =      -0.00544128 Ry
     internal energy E=F+TS    =    -102.60609341 Ry

     The total energy is F=E-TS. E is the sum of the following terms:
     one-electron contribution =     -41.22446319 Ry
     hartree contribution      =      20.39784375 Ry
     xc contribution           =     -27.28683580 Ry
     ewald contribution        =     -54.49263817 Ry

     convergence has been achieved in  12 iterations

     Forces acting on atoms (cartesian axes, Ry/au):

     atom    1 type  1   force =    -0.00000000   -0.00000000    0.06332398
     atom    2 type  1   force =     0.00000000    0.00000000   -0.06332398
     atom    3 type  1   force =    -0.00000000    0.00000000    0.01319337
     atom    4 type  1   force =     0.00000000   -0.00000000   -0.01319337
     atom    5 type  1   force =    -0.00000000    0.00000000   -0.01410745
     atom    6 type  1   force =     0.00000000    0.00000000    0.01410745
     atom    7 type  2   force =    -0.00000000    0.00000000    0.14854462
     atom    8 type  2   force =    -0.00000000   -0.00000000   -0.14854462
     The non-local contrib.  to forces
     atom    1 type  1   force =     0.00000000   -0.00000000    0.11028332
     atom    2 type  1   force =     0.00000000   -0.00000000   -0.11028332
     atom    3 type  1   force =     0.00000000    0.00000000    0.02102152
     atom    4 type  1   force =    -0.00000000    0.00000000   -0.02102152
     atom    5 type  1   force =    -0.00000000   -0.00000000    0.05826698
     atom    6 type  1   force =     0.00000000    0.00000000   -0.05826698
     atom    7 type  2   force =    -0.00000000   -0.00000000    0.14022166
     atom    8 type  2   force =     0.00000000   -0.00000000   -0.14022166
     The ionic contribution  to forces
     atom    1 type  1   force =    -0.00000000    0.00000000    0.43516518
     atom    2 type  1   force =    -0.00000000   -0.00000000   -0.43516518
     atom    3 type  1   force =    -0.00000000    0.00000000    0.53519493
     atom    4 type  1   force =    -0.00000000   -0.00000000   -0.53519493
     atom    5 type  1   force =     0.00000000    0.00000000   -0.65748323
     atom    6 type  1   force =    -0.00000000   -0.00000000    0.65748323
     atom    7 type  2   force =    -0.00000000   -0.00000000    1.14549811
     atom    8 type  2   force =    -0.00000000    0.00000000   -1.14549811
     The local contribution  to forces
     atom    1 type  1   force =     0.00000000   -0.00000000   -0.48217575
     atom    2 type  1   force =    -0.00000000    0.00000000    0.48217575
     atom    3 type  1   force =    -0.00000000   -0.00000000   -0.54304322
     atom    4 type  1   force =     0.00000000    0.00000000    0.54304322
     atom    5 type  1   force =     0.00000000   -0.00000000    0.58515178
     atom    6 type  1   force =     0.00000000    0.00000000   -0.58515178
     atom    7 type  2   force =    -0.00000000    0.00000000   -1.12273521
     atom    8 type  2   force =     0.00000000   -0.00000000    1.12273521
     The core correction contribution to forces
     atom    1 type  1   force =     0.00000000    0.00000000    0.00000000
     atom    2 type  1   force =     0.00000000    0.00000000    0.00000000
     atom    3 type  1   force =     0.00000000    0.00000000    0.00000000
     atom    4 type  1   force =     0.00000000    0.00000000    0.00000000
     atom    5 type  1   force =     0.00000000    0.00000000    0.00000000
     atom    6 type  1   force =     0.00000000    0.00000000    0.00000000
     atom    7 type  2   force =    -0.00000000    0.00000000   -0.01445576
     atom    8 type  2   force =     0.00000000   -0.00000000    0.01445576
     The Hubbard contrib.    to forces
     atom    1 type  1   force =     0.00000000    0.00000000    0.00000000
     atom    2 type  1   force =     0.00000000    0.00000000    0.00000000
     atom    3 type  1   force =     0.00000000    0.00000000    0.00000000
     atom    4 type  1   force =     0.00000000    0.00000000    0.00000000
     atom    5 type  1   force =     0.00000000    0.00000000    0.00000000
     atom    6 type  1   force =     0.00000000    0.00000000    0.00000000
     atom    7 type  2   force =     0.00000000    0.00000000    0.00000000
     atom    8 type  2   force =     0.00000000    0.00000000    0.00000000
     The SCF correction term to forces
     atom    1 type  1   force =     0.00000000    0.00000000    0.00005123
     atom    2 type  1   force =    -0.00000000   -0.00000000   -0.00005123
     atom    3 type  1   force =    -0.00000000   -0.00000000    0.00002015
     atom    4 type  1   force =    -0.00000000    0.00000000   -0.00002015
     atom    5 type  1   force =     0.00000000   -0.00000000   -0.00004298
     atom    6 type  1   force =     0.00000000    0.00000000    0.00004298
     atom    7 type  2   force =    -0.00000000    0.00000000    0.00001582
     atom    8 type  2   force =    -0.00000000   -0.00000000   -0.00001582

     Total force =     0.229994     Total SCF correction =     0.000101


     Computing stress (Cartesian axis) and pressure

          total   stress  (Ry/bohr**3)                   (kbar)     P=      388.84
   0.00213321   0.00000000   0.00000000          313.81        0.00        0.00
   0.00000000   0.00213321   0.00000000            0.00      313.81        0.00
  -0.00000000   0.00000000   0.00366344           -0.00        0.00      538.91

     Energy error            =      8.2E-02 Ry
     Gradient error          =      1.5E-01 Ry/Bohr
     Cell gradient error     =      1.9E+02 kbar

     number of scf cycles    =   3
     number of bfgs steps    =   2

     enthalpy           old  =    -100.4317948084 Ry
     enthalpy           new  =    -100.5138428949 Ry

     CASE: enthalpy          _new < enthalpy          _old


     WARNING: bfgs curvature condition failed, Theta= 0.850
     new trust radius        =       0.1674606141 bohr
ibrav =      5
 celldm(1) =     21.95941222
 celldm(4) =      0.96733016
Input lattice vectors:
     0.14443160    -0.08338763     1.11769175
     0.00000000     0.16677525     1.11769175
    -0.14443160    -0.08338763     1.11769175
New lattice vectors in INITIAL alat:
     0.14443160    -0.08338763     1.11769175
     0.00000000     0.16677525     1.11769175
    -0.14443160    -0.08338763     1.11769175
New lattice vectors in NEW alat (for information only):
     0.12780813    -0.07379006     0.98905010
     0.00000000     0.14758012     0.98905010
    -0.12780813    -0.07379006     0.98905010
Discrepancy in bohr =     0.000000    0.000000    0.000000
     new conv_thr            =       0.0000000030 Ry

     new unit-cell volume =    592.63598 a.u.^3 (    87.81959 Ang^3 )
     density =      1.84958 g/cm^3

CELL_PARAMETERS (alat= 19.43197568)
   0.144431604  -0.083387625   1.117691752
   0.000000000   0.166775251   1.117691752
  -0.144431604  -0.083387625   1.117691752

ATOMIC_POSITIONS (crystal)
Li            0.2427041180        0.2427041180        0.2427041180
Li            0.7572958820        0.7572958820        0.7572958820
Li            0.3117870996        0.3117870996        0.3117870996
Li            0.6882129004        0.6882129004        0.6882129004
Li            0.3964559537        0.3964559537        0.3964559537
Li            0.6035440463        0.6035440463        0.6035440463
Si            0.1828283455        0.1828283455        0.1828283455
Si            0.8171716545        0.8171716545        0.8171716545



     Writing config-only to output data dir ./output/LiSi.save/
     NEW-OLD atomic charge density approx. for the potential
     extrapolated charge   24.92517, renormalised to   26.00000

     total cpu time spent up to now is       87.7 secs

     Self-consistent Calculation

     iteration #  1     ecut=    60.00 Ry     beta= 0.80
     Davidson diagonalization with overlap
     ethr =  1.00E-06,  avg # of iterations = 10.3

     total cpu time spent up to now is       91.0 secs

     total energy              =    -102.60235638 Ry
     estimated scf accuracy    <       0.02548311 Ry

     iteration #  2     ecut=    60.00 Ry     beta= 0.80
     Davidson diagonalization with overlap
     ethr =  9.80E-05,  avg # of iterations =  5.9

     total cpu time spent up to now is       92.8 secs

     total energy              =    -102.55360182 Ry
     estimated scf accuracy    <       0.70683636 Ry

     iteration #  3     ecut=    60.00 Ry     beta= 0.80
     Davidson diagonalization with overlap
     ethr =  9.80E-05,  avg # of iterations =  5.3

     total cpu time spent up to now is       94.3 secs

     total energy              =    -102.58792305 Ry
     estimated scf accuracy    <       1.14099513 Ry

     iteration #  4     ecut=    60.00 Ry     beta= 0.80
     Davidson diagonalization with overlap
     ethr =  9.80E-05,  avg # of iterations =  3.4

     total cpu time spent up to now is       95.6 secs

     total energy              =    -102.62388662 Ry
     estimated scf accuracy    <       0.03779296 Ry

     iteration #  5     ecut=    60.00 Ry     beta= 0.80
     Davidson diagonalization with overlap
     ethr =  9.80E-05,  avg # of iterations =  1.0

     total cpu time spent up to now is       96.7 secs

     total energy              =    -102.62174826 Ry
     estimated scf accuracy    <       0.02102312 Ry

     iteration #  6     ecut=    60.00 Ry     beta= 0.80
     Davidson diagonalization with overlap
     ethr =  8.09E-05,  avg # of iterations =  1.7

     total cpu time spent up to now is       97.9 secs

     total energy              =    -102.62280198 Ry
     estimated scf accuracy    <       0.00134760 Ry

     iteration #  7     ecut=    60.00 Ry     beta= 0.80
     Davidson diagonalization with overlap
     ethr =  5.18E-06,  avg # of iterations =  4.2

     total cpu time spent up to now is       99.2 secs

     total energy              =    -102.62291595 Ry
     estimated scf accuracy    <       0.00151286 Ry

     iteration #  8     ecut=    60.00 Ry     beta= 0.80
     Davidson diagonalization with overlap
     ethr =  5.18E-06,  avg # of iterations =  1.0

     total cpu time spent up to now is      100.3 secs

     total energy              =    -102.62298796 Ry
     estimated scf accuracy    <       0.00004369 Ry

     iteration #  9     ecut=    60.00 Ry     beta= 0.80
     Davidson diagonalization with overlap
     ethr =  1.68E-07,  avg # of iterations =  1.6

     total cpu time spent up to now is      101.5 secs

     total energy              =    -102.62298877 Ry
     estimated scf accuracy    <       0.00000421 Ry

     iteration # 10     ecut=    60.00 Ry     beta= 0.80
     Davidson diagonalization with overlap
     ethr =  1.62E-08,  avg # of iterations =  2.7

     total cpu time spent up to now is      102.8 secs

     total energy              =    -102.62298940 Ry
     estimated scf accuracy    <       0.00000276 Ry

     iteration # 11     ecut=    60.00 Ry     beta= 0.80
     Davidson diagonalization with overlap
     ethr =  1.06E-08,  avg # of iterations =  1.0

     total cpu time spent up to now is      104.0 secs

     total energy              =    -102.62298957 Ry
     estimated scf accuracy    <       0.00000023 Ry

     iteration # 12     ecut=    60.00 Ry     beta= 0.80
     Davidson diagonalization with overlap
     ethr =  8.72E-10,  avg # of iterations =  2.2

     total cpu time spent up to now is      105.1 secs

     total energy              =    -102.62298959 Ry
     estimated scf accuracy    <       0.00000003 Ry

     iteration # 13     ecut=    60.00 Ry     beta= 0.80
     Davidson diagonalization with overlap
     ethr =  1.20E-10,  avg # of iterations =  2.4

     total cpu time spent up to now is      106.3 secs

     End of self-consistent calculation

          k = 0.0000 0.0000 0.0000 (  4013 PWs)   bands (ev):

   -40.8418 -40.8412 -40.1806 -40.1582 -40.1116 -39.9540  -8.4035  -1.3254
     2.1407   3.2234   3.3430   6.2173   7.8231   8.8161   8.8161  11.8343
    12.3584

          k =-0.8655-0.4997 0.0746 (  4025 PWs)   bands (ev):

   -40.7699 -40.7668 -40.2103 -40.2050 -40.1072 -39.9751  -7.0871  -0.0816
     2.8707   3.0045   3.8966   4.3077   6.5554   6.5586   8.2972   9.5129
    10.0620

          k = 1.7309 0.9993-0.1491 (  4052 PWs)   bands (ev):

   -40.6768 -40.6740 -40.2801 -40.2771 -40.0691 -40.0113  -3.7186  -2.6010
     3.2126   3.7644   4.6628   5.1642   5.4475   6.4822   6.8177   7.3536
     7.4783

          k =-0.8655 0.4997 0.1491 (  4027 PWs)   bands (ev):

   -40.7698 -40.7680 -40.2100 -40.2056 -40.1076 -39.9750  -7.0871  -0.0816
     2.8659   3.0232   3.8203   4.3864   6.5485   6.5554   8.1848   9.6888
    10.0993

          k = 1.7309 1.9987-0.0746 (  4036 PWs)   bands (ev):

   -40.6763 -40.6754 -40.2795 -40.2781 -40.0703 -40.0107  -4.5253   0.0670
     1.3850   2.3489   4.3558   5.1259   5.9748   6.6750   7.5454   7.8823
     8.4798

          k = 0.8655 1.4990 0.0000 (  4033 PWs)   bands (ev):

   -40.6768 -40.6757 -40.2803 -40.2770 -40.0708 -40.0106  -4.5253   0.0671
     1.3850   2.3507   4.2950   5.3077   5.9036   6.5106   7.5786   8.1687
     8.3236

          k = 1.7309-0.9993-0.2982 (  4038 PWs)   bands (ev):

   -40.6764 -40.6752 -40.2785 -40.2780 -40.0700 -40.0101  -3.7186  -2.6010
     3.2008   3.8177   4.5177   5.3352   5.4474   6.3614   6.8341   7.2999
     7.5869

          k = 0.0000 0.0000 0.2237 (  3998 PWs)   bands (ev):

   -40.8431 -40.8420 -40.1820 -40.1550 -40.1117 -39.9530  -8.4035  -1.3254
     2.1801   2.9002   3.7387   5.8444   8.4015   8.8161   8.8161  10.7782
    12.0043

          k = 2.5964 1.4990 0.0000 (  4031 PWs)   bands (ev):

   -40.7689 -40.7664 -40.2099 -40.2078 -40.1061 -39.9769  -7.0871  -0.0818
     2.9331   3.0030   3.5881   4.7520   6.1298   6.5554   8.8288   9.3459
    10.1423

          k = 1.7309 0.9993 0.0746 (  4052 PWs)   bands (ev):

   -40.6772 -40.6735 -40.2796 -40.2787 -40.0693 -40.0117  -3.7186  -2.6010
     3.2066   3.7900   4.5844   5.2544   5.4475   6.4220   6.8273   7.3197
     7.5405

          k = 2.5964-1.4990-0.2237 (  4034 PWs)   bands (ev):

   -40.7696 -40.7692 -40.2115 -40.2069 -40.1082 -39.9775  -7.0871  -0.0818
     2.9162   3.0402   3.5434   4.8013   6.1059   6.5554   8.6137   9.6326
    10.2808

          k = 1.7309-1.9987-0.1491 (  4032 PWs)   bands (ev):

   -40.6756 -40.6746 -40.2781 -40.2777 -40.0689 -40.0102  -4.5253   0.0670
     1.3850   2.3472   4.4400   4.9551   6.0105   6.9064   7.4246   7.7261
     8.5403

          k =-0.0000-0.0000-0.4474 (  3984 PWs)   bands (ev):

   -40.8422 -40.8421 -40.1833 -40.1551 -40.1108 -39.9514  -8.4035  -1.3255
     2.2303   2.7339   4.0007   5.5175   8.8162   8.8162   9.4774   9.5504
    12.0042

     the Fermi energy is     6.4412 ev

!    total energy              =    -102.62298959 Ry
     estimated scf accuracy    <          5.8E-10 Ry
     smearing contrib. (-TS)   =      -0.00177665 Ry
     internal energy E=F+TS    =    -102.62121294 Ry

     The total energy is F=E-TS. E is the sum of the following terms:
     one-electron contribution =     -39.61274581 Ry
     hartree contribution      =      19.89607012 Ry
     xc contribution           =     -27.32784941 Ry
     ewald contribution        =     -55.57668784 Ry

     convergence has been achieved in  13 iterations

     Forces acting on atoms (cartesian axes, Ry/au):

     atom    1 type  1   force =    -0.00000000   -0.00000000    0.01095527
     atom    2 type  1   force =     0.00000000    0.00000000   -0.01095527
     atom    3 type  1   force =     0.00000000   -0.00000000    0.01212361
     atom    4 type  1   force =    -0.00000000    0.00000000   -0.01212361
     atom    5 type  1   force =    -0.00000000    0.00000000   -0.02158361
     atom    6 type  1   force =     0.00000000   -0.00000000    0.02158361
     atom    7 type  2   force =    -0.00000000   -0.00000000    0.24983600
     atom    8 type  2   force =     0.00000000    0.00000000   -0.24983600
     The non-local contrib.  to forces
     atom    1 type  1   force =    -0.00000000   -0.00000000    0.11629547
     atom    2 type  1   force =    -0.00000000    0.00000000   -0.11629547
     atom    3 type  1   force =    -0.00000000   -0.00000000    0.01890177
     atom    4 type  1   force =     0.00000000    0.00000000   -0.01890177
     atom    5 type  1   force =    -0.00000000    0.00000000    0.07244255
     atom    6 type  1   force =    -0.00000000   -0.00000000   -0.07244255
     atom    7 type  2   force =     0.00000000   -0.00000000    0.16500705
     atom    8 type  2   force =    -0.00000000    0.00000000   -0.16500705
     The ionic contribution  to forces
     atom    1 type  1   force =    -0.00000000    0.00000000   -0.12468924
     atom    2 type  1   force =    -0.00000000   -0.00000000    0.12468924
     atom    3 type  1   force =    -0.00000000    0.00000000    0.51938499
     atom    4 type  1   force =    -0.00000000   -0.00000000   -0.51938499
     atom    5 type  1   force =    -0.00000000    0.00000000   -0.54312886
     atom    6 type  1   force =     0.00000000   -0.00000000    0.54312886
     atom    7 type  2   force =    -0.00000000   -0.00000000    1.33323657
     atom    8 type  2   force =    -0.00000000    0.00000000   -1.33323657
     The local contribution  to forces
     atom    1 type  1   force =    -0.00000000   -0.00000000    0.01932039
     atom    2 type  1   force =    -0.00000000    0.00000000   -0.01932039
     atom    3 type  1   force =    -0.00000000   -0.00000000   -0.52617355
     atom    4 type  1   force =    -0.00000000    0.00000000    0.52617355
     atom    5 type  1   force =     0.00000000   -0.00000000    0.44912552
     atom    6 type  1   force =    -0.00000000    0.00000000   -0.44912552
     atom    7 type  2   force =    -0.00000000    0.00000000   -1.23200117
     atom    8 type  2   force =     0.00000000   -0.00000000    1.23200117
     The core correction contribution to forces
     atom    1 type  1   force =     0.00000000    0.00000000    0.00000000
     atom    2 type  1   force =     0.00000000    0.00000000    0.00000000
     atom    3 type  1   force =     0.00000000    0.00000000    0.00000000
     atom    4 type  1   force =     0.00000000    0.00000000    0.00000000
     atom    5 type  1   force =     0.00000000    0.00000000    0.00000000
     atom    6 type  1   force =     0.00000000    0.00000000    0.00000000
     atom    7 type  2   force =     0.00000000    0.00000000   -0.01641691
     atom    8 type  2   force =     0.00000000   -0.00000000    0.01641691
     The Hubbard contrib.    to forces
     atom    1 type  1   force =     0.00000000    0.00000000    0.00000000
     atom    2 type  1   force =     0.00000000    0.00000000    0.00000000
     atom    3 type  1   force =     0.00000000    0.00000000    0.00000000
     atom    4 type  1   force =     0.00000000    0.00000000    0.00000000
     atom    5 type  1   force =     0.00000000    0.00000000    0.00000000
     atom    6 type  1   force =     0.00000000    0.00000000    0.00000000
     atom    7 type  2   force =     0.00000000    0.00000000    0.00000000
     atom    8 type  2   force =     0.00000000    0.00000000    0.00000000
     The SCF correction term to forces
     atom    1 type  1   force =     0.00000000   -0.00000000    0.00002867
     atom    2 type  1   force =    -0.00000000    0.00000000   -0.00002867
     atom    3 type  1   force =    -0.00000000   -0.00000000    0.00001040
     atom    4 type  1   force =     0.00000000    0.00000000   -0.00001040
     atom    5 type  1   force =     0.00000000   -0.00000000   -0.00002282
     atom    6 type  1   force =    -0.00000000    0.00000000    0.00002282
     atom    7 type  2   force =     0.00000000    0.00000000    0.00001046
     atom    8 type  2   force =     0.00000000    0.00000000   -0.00001046

     Total force =     0.355390     Total SCF correction =     0.000056


     Computing stress (Cartesian axis) and pressure

          total   stress  (Ry/bohr**3)                   (kbar)     P=      399.52
   0.00223424  -0.00000000   0.00000000          328.67       -0.00        0.00
   0.00000000   0.00223424   0.00000000            0.00      328.67        0.00
   0.00000000   0.00000000   0.00367921            0.00        0.00      541.23

     Energy error            =      9.5E-02 Ry
     Gradient error          =      2.5E-01 Ry/Bohr
     Cell gradient error     =      1.7E+02 kbar

     number of scf cycles    =   4
     number of bfgs steps    =   3

     enthalpy           old  =    -100.5138428949 Ry
     enthalpy           new  =    -100.6086608470 Ry

     CASE: enthalpy          _new < enthalpy          _old

     new trust radius        =       0.2560572100 bohr
ibrav =      5
 celldm(1) =     22.55770116
 celldm(4) =      0.97201825
Input lattice vectors:
     0.13730940    -0.07927562     1.14997619
    -0.00000000     0.15855124     1.14997619
    -0.13730940    -0.07927562     1.14997619
New lattice vectors in INITIAL alat:
     0.13730940    -0.07927562     1.14997619
     0.00000000     0.15855124     1.14997619
    -0.13730940    -0.07927562     1.14997619
New lattice vectors in NEW alat (for information only):
     0.11828302    -0.06829073     0.99062884
     0.00000000     0.13658147     0.99062884
    -0.11828302    -0.06829073     0.99062884
Discrepancy in bohr =     0.000000    0.000000    0.000000
     new conv_thr            =       0.0000000050 Ry

     new unit-cell volume =    551.10064 a.u.^3 (    81.66469 Ang^3 )
     density =      1.98897 g/cm^3

CELL_PARAMETERS (alat= 19.43197568)
   0.137309405  -0.079275622   1.149976191
   0.000000000   0.158551243   1.149976191
  -0.137309405  -0.079275622   1.149976191

ATOMIC_POSITIONS (crystal)
Li            0.2466339750        0.2466339750        0.2466339750
Li            0.7533660250        0.7533660250        0.7533660250
Li            0.3123019260        0.3123019260        0.3123019260
Li            0.6876980740        0.6876980740        0.6876980740
Li            0.3960423722        0.3960423722        0.3960423722
Li            0.6039576278        0.6039576278        0.6039576278
Si            0.1850276231        0.1850276231        0.1850276231
Si            0.8149723769        0.8149723769        0.8149723769



     Writing config-only to output data dir ./output/LiSi.save/
     NEW-OLD atomic charge density approx. for the potential
     extrapolated charge   24.04259, renormalised to   26.00000

     total cpu time spent up to now is      107.9 secs

     Self-consistent Calculation

     iteration #  1     ecut=    60.00 Ry     beta= 0.80
     Davidson diagonalization with overlap
     ethr =  1.00E-06,  avg # of iterations = 12.2

     total cpu time spent up to now is      111.5 secs

     total energy              =    -102.56373276 Ry
     estimated scf accuracy    <       0.03723177 Ry

     iteration #  2     ecut=    60.00 Ry     beta= 0.80
     Davidson diagonalization with overlap
     ethr =  1.43E-04,  avg # of iterations =  3.5

     total cpu time spent up to now is      113.1 secs

     total energy              =    -102.57833227 Ry
     estimated scf accuracy    <       0.15287823 Ry

     iteration #  3     ecut=    60.00 Ry     beta= 0.80
     Davidson diagonalization with overlap
     ethr =  1.43E-04,  avg # of iterations =  4.5

     total cpu time spent up to now is      114.6 secs

     total energy              =    -102.55840551 Ry
     estimated scf accuracy    <       0.89440106 Ry

     iteration #  4     ecut=    60.00 Ry     beta= 0.80
     Davidson diagonalization with overlap
     ethr =  1.43E-04,  avg # of iterations =  3.8

     total cpu time spent up to now is      116.0 secs

     total energy              =    -102.60557326 Ry
     estimated scf accuracy    <       0.00810988 Ry

     iteration #  5     ecut=    60.00 Ry     beta= 0.80
     Davidson diagonalization with overlap
     ethr =  3.12E-05,  avg # of iterations =  2.3

     total cpu time spent up to now is      117.2 secs

     total energy              =    -102.60499335 Ry
     estimated scf accuracy    <       0.01762439 Ry

     iteration #  6     ecut=    60.00 Ry     beta= 0.80
     Davidson diagonalization with overlap
     ethr =  3.12E-05,  avg # of iterations =  1.8

     total cpu time spent up to now is      118.4 secs

     total energy              =    -102.60652726 Ry
     estimated scf accuracy    <       0.00121313 Ry

     iteration #  7     ecut=    60.00 Ry     beta= 0.80
     Davidson diagonalization with overlap
     ethr =  4.67E-06,  avg # of iterations =  2.2

     total cpu time spent up to now is      119.5 secs

     total energy              =    -102.60661060 Ry
     estimated scf accuracy    <       0.00000599 Ry

     iteration #  8     ecut=    60.00 Ry     beta= 0.80
     Davidson diagonalization with overlap
     ethr =  2.30E-08,  avg # of iterations =  4.0

     total cpu time spent up to now is      120.9 secs

     total energy              =    -102.60661431 Ry
     estimated scf accuracy    <       0.00000113 Ry

     iteration #  9     ecut=    60.00 Ry     beta= 0.80
     Davidson diagonalization with overlap
     ethr =  4.35E-09,  avg # of iterations =  2.0

     total cpu time spent up to now is      122.2 secs

     total energy              =    -102.60661450 Ry
     estimated scf accuracy    <       0.00000003 Ry

     iteration # 10     ecut=    60.00 Ry     beta= 0.80
     Davidson diagonalization with overlap
     ethr =  1.01E-10,  avg # of iterations =  3.2

     total cpu time spent up to now is      123.5 secs

     total energy              =    -102.60661450 Ry
     estimated scf accuracy    <          7.2E-09 Ry

     iteration # 11     ecut=    60.00 Ry     beta= 0.80
     Davidson diagonalization with overlap
     ethr =  2.79E-11,  avg # of iterations =  1.8

     total cpu time spent up to now is      124.6 secs

     End of self-consistent calculation

          k = 0.0000 0.0000 0.0000 (  4013 PWs)   bands (ev):

   -40.4718 -40.4651 -39.5465 -39.5408 -39.1569 -38.9330  -8.5612  -1.7466
     2.5465   3.1494   4.0263   6.7806   7.6907  11.1141  11.1141  11.6820
    12.5986

          k =-0.9104-0.5256 0.0725 (  4025 PWs)   bands (ev):

   -40.3432 -40.3365 -39.6428 -39.6378 -39.1223 -38.9511  -7.0902  -0.3303
     3.5005   4.0319   4.2194   4.7193   7.1256   8.3255   8.5093  10.3624
    11.3351

          k = 1.8207 1.0512-0.1449 (  4052 PWs)   bands (ev):

   -40.1429 -40.1390 -39.8127 -39.8082 -39.0635 -38.9900  -3.1867  -2.2787
     3.5669   4.0131   5.2944   5.6494   7.0451   7.0669   7.7502   8.0878
     8.2240

          k =-0.9104 0.5256 0.1449 (  4027 PWs)   bands (ev):

   -40.3412 -40.3392 -39.6433 -39.6392 -39.1230 -38.9514  -7.0902  -0.3303
     3.5041   4.0311   4.2042   4.7351   7.1311   8.3255   8.4499  10.5348
    11.2794

          k = 1.8207 2.1024-0.0725 (  4036 PWs)   bands (ev):

   -40.1439 -40.1421 -39.8117 -39.8088 -39.0660 -38.9896  -4.2120   0.9748
     2.0661   2.5224   5.1030   5.6815   6.3038   7.4504   8.2017   8.5904
     9.4478

          k = 0.9104 1.5768 0.0000 (  4033 PWs)   bands (ev):

   -40.1436 -40.1422 -39.8127 -39.8086 -39.0658 -38.9902  -4.2120   0.9749
     2.0661   2.5229   5.0358   5.9343   6.1329   7.3276   8.2144   9.0233
     9.0603

          k = 1.8207-1.0512-0.2899 (  4038 PWs)   bands (ev):

   -40.1416 -40.1402 -39.8122 -39.8101 -39.0644 -38.9896  -3.1867  -2.2787
     3.5620   4.0268   5.1992   5.7957   6.9125   7.0668   7.8189   8.1219
     8.1939

          k = 0.0000 0.0000 0.2174 (  3998 PWs)   bands (ev):

   -40.4739 -40.4698 -39.5465 -39.5373 -39.1607 -38.9326  -8.5612  -1.7468
     2.5647   3.0855   4.1283   6.4181   8.2573  10.7710  11.1141  11.1141
    13.5045

          k = 2.7311 1.5768 0.0000 (  4031 PWs)   bands (ev):

   -40.3416 -40.3384 -39.6431 -39.6399 -39.1215 -38.9533  -7.0902  -0.3304
     3.5944   3.8291   4.1990   4.9583   6.7521   8.3255   9.2709   9.8248
    11.4321

          k = 1.8207 1.0512 0.0725 (  4052 PWs)   bands (ev):

   -40.1437 -40.1420 -39.8104 -39.8084 -39.0651 -38.9899  -3.1867  -2.2787
     3.5644   4.0198   5.2409   5.7270   6.9779   7.0669   7.7871   8.1023
     8.2115

          k = 2.7311-1.5768-0.2174 (  4034 PWs)   bands (ev):

   -40.3431 -40.3399 -39.6453 -39.6406 -39.1237 -38.9541  -7.0902  -0.3304
     3.6015   3.8197   4.1934   4.9701   6.7508   8.3255   9.1052  10.0921
    11.3939

          k = 1.8207-2.1024-0.1449 (  4032 PWs)   bands (ev):

   -40.1434 -40.1424 -39.8092 -39.8084 -39.0650 -38.9890  -4.2120   0.9748
     2.0661   2.5218   5.2236   5.4642   6.3832   7.6336   8.1383   8.3658
     9.6229

          k =-0.0000-0.0000-0.4348 (  3984 PWs)   bands (ev):

   -40.4742 -40.4674 -39.5469 -39.5442 -39.1630 -38.9311  -8.5612  -1.7468
     2.5869   3.0244   4.2318   6.1709   8.9168   9.9676  11.1141  11.1141
    13.7959

     the Fermi energy is     7.1805 ev

!    total energy              =    -102.60661450 Ry
     estimated scf accuracy    <          3.0E-10 Ry
     smearing contrib. (-TS)   =      -0.00119488 Ry
     internal energy E=F+TS    =    -102.60541962 Ry

     The total energy is F=E-TS. E is the sum of the following terms:
     one-electron contribution =     -37.52808365 Ry
     hartree contribution      =      19.45183802 Ry
     xc contribution           =     -27.41576113 Ry
     ewald contribution        =     -57.11341286 Ry

     convergence has been achieved in  11 iterations

     Forces acting on atoms (cartesian axes, Ry/au):

     atom    1 type  1   force =     0.00000000    0.00000000   -0.06254399
     atom    2 type  1   force =     0.00000000   -0.00000000    0.06254399
     atom    3 type  1   force =     0.00000000   -0.00000000    0.01143282
     atom    4 type  1   force =    -0.00000000   -0.00000000   -0.01143282
     atom    5 type  1   force =    -0.00000000    0.00000000   -0.03846796
     atom    6 type  1   force =     0.00000000   -0.00000000    0.03846796
     atom    7 type  2   force =     0.00000000   -0.00000000    0.26429336
     atom    8 type  2   force =    -0.00000000    0.00000000   -0.26429336
     The non-local contrib.  to forces
     atom    1 type  1   force =     0.00000000    0.00000000    0.08485806
     atom    2 type  1   force =     0.00000000    0.00000000   -0.08485806
     atom    3 type  1   force =    -0.00000000   -0.00000000    0.01123060
     atom    4 type  1   force =     0.00000000    0.00000000   -0.01123060
     atom    5 type  1   force =    -0.00000000    0.00000000    0.10186492
     atom    6 type  1   force =    -0.00000000    0.00000000   -0.10186492
     atom    7 type  2   force =     0.00000000   -0.00000000    0.20059130
     atom    8 type  2   force =    -0.00000000   -0.00000000   -0.20059130
     The ionic contribution  to forces
[...]
                           (   1   4   3   4   0   0   0)

     celldm(1)=  19.431976  celldm(2)=   0.000000  celldm(3)=   0.000000
     celldm(4)=   0.959034  celldm(5)=   0.000000  celldm(6)=   0.000000

     crystal axes: (cart. coord. in units of alat)
               a(1) = (   0.123919  -0.071545   1.216456 )  
               a(2) = (   0.000000   0.143089   1.216456 )  
               a(3) = (  -0.123919  -0.071545   1.216456 )  

     reciprocal axes: (cart. coord. in units 2 pi/alat)
               b(1) = (  4.034899 -2.329550  0.274020 )  
               b(2) = (  0.000000  4.659100  0.274020 )  
               b(3) = ( -4.034899 -2.329550  0.274020 )  


     PseudoPot. # 1 for Li read from file:
     ../pseudo/Li_ONCV_PBE_sr.upf
     MD5 check sum: 50ff420e78310ffa21704f3361e624a4
     Pseudo is Norm-conserving, Zval =  3.0
     Generated using ONCVPSP code by D. R. Hamann
     Using radial grid of 1944 points,  4 beta functions with: 
                l(1) =   0
                l(2) =   0
                l(3) =   1
                l(4) =   1

     PseudoPot. # 2 for Si read from file:
     ../pseudo/Si_ONCV_PBE_sr.upf
     MD5 check sum: e543d271109d17c80368dfa7c482276d
     Pseudo is Norm-conserving + core correction, Zval =  4.0
     Generated using ONCVPSP code by D. R. Hamann
     Using radial grid of 1510 points,  6 beta functions with: 
                l(1) =   0
                l(2) =   0
                l(3) =   1
                l(4) =   1
                l(5) =   2
                l(6) =   2

     atomic species   valence    mass     pseudopotential
        Li             3.00     6.94100     Li( 1.00)
        Si             4.00    28.08550     Si( 1.00)

     12 Sym. Ops., with inversion, found



   Cartesian axes

     site n.     atom                  positions (alat units)
         1           Li  tau(   1) = (   0.0000000  -0.0000000   0.8884501  )
         2           Li  tau(   2) = (   0.0000000  -0.0000000   2.7609177  )
         3           Li  tau(   3) = (  -0.0000000  -0.0000000   1.1471850  )
         4           Li  tau(   4) = (   0.0000000  -0.0000000   2.5021828  )
         5           Li  tau(   5) = (  -0.0000000  -0.0000000   1.4095292  )
         6           Li  tau(   6) = (  -0.0000000  -0.0000000   2.2398386  )
         7           Si  tau(   7) = (   0.0000000  -0.0000000   0.6894965  )
         8           Si  tau(   8) = (   0.0000000  -0.0000000   2.9598713  )

     number of k points=    13  Marzari-Vanderbilt smearing, width (Ry)=  0.0200
                       cart. coord. in units 2pi/alat
        k(    1) = (   0.0000000   0.0000000   0.0000000), wk =   0.0312500
        k(    2) = (  -1.0087247  -0.5823875   0.0685050), wk =   0.1875000
        k(    3) = (   2.0174494   1.1647750  -0.1370100), wk =   0.0937500
        k(    4) = (  -1.0087247   0.5823875   0.1370100), wk =   0.1875000
        k(    5) = (   2.0174494   2.3295499  -0.0685050), wk =   0.3750000
        k(    6) = (   1.0087247   1.7471624   0.0000000), wk =   0.1875000
        k(    7) = (   2.0174494  -1.1647750  -0.2740201), wk =   0.0937500
        k(    8) = (  -0.0000000  -0.0000000   0.2055150), wk =   0.0625000
        k(    9) = (   3.0261741   1.7471624   0.0000000), wk =   0.1875000
        k(   10) = (   2.0174494   1.1647750   0.0685050), wk =   0.1875000
        k(   11) = (   3.0261741  -1.7471624  -0.2055150), wk =   0.1875000
        k(   12) = (   2.0174494  -2.3295499  -0.1370100), wk =   0.1875000
        k(   13) = (   0.0000000   0.0000000  -0.4110301), wk =   0.0312500

     Dense  grid:    29853 G-vectors     FFT dimensions: ( 120, 120, 120)

     Estimated max dynamical RAM per process >      29.35 MB

     Estimated total dynamical RAM >     234.83 MB

     Initial potential from superposition of free atoms

     starting charge      25.9714, renormalised to      26.0000
     Starting wfcs are   20 randomized atomic wfcs

     total cpu time spent up to now is      322.8 secs

     Self-consistent Calculation

     iteration #  1     ecut=    60.00 Ry     beta= 0.80
     Davidson diagonalization with overlap
     c_bands:  1 eigenvalues not converged
     c_bands:  1 eigenvalues not converged
     c_bands:  2 eigenvalues not converged
     c_bands:  2 eigenvalues not converged
     c_bands:  1 eigenvalues not converged
     c_bands:  1 eigenvalues not converged
     c_bands:  2 eigenvalues not converged
     ethr =  1.00E-06,  avg # of iterations = 19.6

     total cpu time spent up to now is      331.3 secs

     total energy              =     -96.14428491 Ry
     estimated scf accuracy    <       7.39924886 Ry

     iteration #  2     ecut=    60.00 Ry     beta= 0.80
     Davidson diagonalization with overlap
     c_bands:  3 eigenvalues not converged
     c_bands:  3 eigenvalues not converged
     ethr =  1.00E-02,  avg # of iterations = 13.5

     total cpu time spent up to now is      337.2 secs

     total energy              =     -68.14443678 Ry
     estimated scf accuracy    <     427.51730073 Ry

     iteration #  3     ecut=    60.00 Ry     beta= 0.80
     Davidson diagonalization with overlap
     ethr =  1.00E-02,  avg # of iterations =  6.8
     Minimization algorithm failed to find Fermi energy: reverting to bisection
     Possible cause: smearing is larger than the electronic band-gap.

     total cpu time spent up to now is      341.6 secs

     total energy              =    -102.22435195 Ry
     estimated scf accuracy    <      14.71340272 Ry

     iteration #  4     ecut=    60.00 Ry     beta= 0.80
     Davidson diagonalization with overlap
     ethr =  1.00E-02,  avg # of iterations =  3.7

     total cpu time spent up to now is      344.1 secs

     total energy              =    -102.59368268 Ry
     estimated scf accuracy    <       1.18346776 Ry

     iteration #  5     ecut=    60.00 Ry     beta= 0.80
     Davidson diagonalization with overlap
     ethr =  4.55E-03,  avg # of iterations =  1.5

     total cpu time spent up to now is      346.2 secs

     total energy              =    -102.61785076 Ry
     estimated scf accuracy    <       0.16984141 Ry

     iteration #  6     ecut=    60.00 Ry     beta= 0.80
     Davidson diagonalization with overlap
     ethr =  6.53E-04,  avg # of iterations =  3.0

     total cpu time spent up to now is      348.5 secs

     total energy              =    -102.62167715 Ry
     estimated scf accuracy    <       0.03848444 Ry

     iteration #  7     ecut=    60.00 Ry     beta= 0.80
     Davidson diagonalization with overlap
     ethr =  1.48E-04,  avg # of iterations =  3.9

     total cpu time spent up to now is      350.8 secs

     total energy              =    -102.62386515 Ry
     estimated scf accuracy    <       0.00087276 Ry

     iteration #  8     ecut=    60.00 Ry     beta= 0.80
     Davidson diagonalization with overlap
     ethr =  3.36E-06,  avg # of iterations =  5.7

     total cpu time spent up to now is      353.7 secs

     total energy              =    -102.62387742 Ry
     estimated scf accuracy    <       0.00127067 Ry

     iteration #  9     ecut=    60.00 Ry     beta= 0.80
     Davidson diagonalization with overlap
     ethr =  3.36E-06,  avg # of iterations =  2.7

     total cpu time spent up to now is      355.9 secs

     total energy              =    -102.62398531 Ry
     estimated scf accuracy    <       0.00029297 Ry

     iteration # 10     ecut=    60.00 Ry     beta= 0.80
     Davidson diagonalization with overlap
     ethr =  1.13E-06,  avg # of iterations =  1.1

     total cpu time spent up to now is      358.0 secs

     total energy              =    -102.62400474 Ry
     estimated scf accuracy    <       0.00002144 Ry

     iteration # 11     ecut=    60.00 Ry     beta= 0.80
     Davidson diagonalization with overlap
     ethr =  8.25E-08,  avg # of iterations =  1.5

     total cpu time spent up to now is      360.2 secs

     total energy              =    -102.62400670 Ry
     estimated scf accuracy    <       0.00000871 Ry

     iteration # 12     ecut=    60.00 Ry     beta= 0.80
     Davidson diagonalization with overlap
     ethr =  3.35E-08,  avg # of iterations =  1.0

     total cpu time spent up to now is      362.2 secs

     total energy              =    -102.62400706 Ry
     estimated scf accuracy    <       0.00000041 Ry

     iteration # 13     ecut=    60.00 Ry     beta= 0.80
     Davidson diagonalization with overlap
     ethr =  1.57E-09,  avg # of iterations =  1.9

     total cpu time spent up to now is      364.5 secs

     total energy              =    -102.62400709 Ry
     estimated scf accuracy    <       0.00000002 Ry

     iteration # 14     ecut=    60.00 Ry     beta= 0.80
     Davidson diagonalization with overlap
     ethr =  6.54E-11,  avg # of iterations =  3.7

     total cpu time spent up to now is      367.0 secs

     total energy              =    -102.62400710 Ry
     estimated scf accuracy    <       0.00000002 Ry

     iteration # 15     ecut=    60.00 Ry     beta= 0.80
     Davidson diagonalization with overlap
     ethr =  6.54E-11,  avg # of iterations =  1.8

     total cpu time spent up to now is      369.2 secs

     End of self-consistent calculation

          k = 0.0000 0.0000 0.0000 (  3695 PWs)   bands (ev):

   -38.4654 -38.2771 -37.9946 -37.8523 -37.5818 -37.4786  -7.7476  -2.4516
     2.3803   4.5046   5.2580   6.6298   8.1812  11.0028  12.0205  17.3386
    17.9316

          k =-1.0087-0.5824 0.0685 (  3717 PWs)   bands (ev):

   -38.2964 -38.1432 -37.9286 -37.8254 -37.6247 -37.5609  -5.9208  -0.6869
     3.8808   5.1478   5.9271   7.3689   7.9830   9.0508  11.9211  12.3083
    13.5940

          k = 2.0174 1.1648-0.1370 (  3748 PWs)   bands (ev):

   -38.0535 -37.9598 -37.8495 -37.8144 -37.7204 -37.7116  -0.7235  -0.4235
     4.4412   4.6736   6.4975   7.0712   8.1325   8.4925   9.1219  10.0962
    11.1398

          k =-1.0087 0.5824 0.1370 (  3705 PWs)   bands (ev):

   -38.2963 -38.1426 -37.9285 -37.8255 -37.6243 -37.5605  -5.9208  -0.6869
     3.8810   5.1398   5.9547   7.3043   7.9872   9.1651  11.4640  12.9919
    13.2793

          k = 2.0174 2.3295-0.0685 (  3739 PWs)   bands (ev):

   -38.0563 -37.9614 -37.8498 -37.8139 -37.7183 -37.7076  -2.3317   2.6211
     4.7402   4.7945   6.4763   6.9185   7.6602   8.7073   9.5651   9.9781
    10.8734

          k = 1.0087 1.7472 0.0000 (  3744 PWs)   bands (ev):

   -38.0564 -37.9617 -37.8499 -37.8138 -37.7183 -37.7076  -2.3317   2.6212
     4.7402   4.7945   6.4243   7.0913   7.4916   8.7513   9.5235  10.3606
    10.3904

          k = 2.0174-1.1648-0.2740 (  3746 PWs)   bands (ev):

   -38.0533 -37.9597 -37.8490 -37.8141 -37.7207 -37.7119  -0.7235  -0.4235
     4.4429   4.6729   6.4280   7.3130   7.8288   8.4827   9.4279   9.8898
    11.1852

          k =-0.0000-0.0000 0.2055 (  3676 PWs)   bands (ev):

   -38.4654 -38.2766 -37.9938 -37.8520 -37.5813 -37.4782  -7.7476  -2.4516
     2.3804   4.4856   5.3420   6.4385   8.5406  10.3091  12.6705  16.8084
    17.9316

          k = 3.0262 1.7472 0.0000 (  3717 PWs)   bands (ev):

   -38.2967 -38.1430 -37.9284 -37.8254 -37.6246 -37.5611  -5.9208  -0.6869
     3.8829   5.1056   6.0718   7.0986   8.0110   9.4947  10.9781  12.8180
    13.7753

          k = 2.0174 1.1648 0.0685 (  3733 PWs)   bands (ev):

   -38.0532 -37.9594 -37.8488 -37.8140 -37.7202 -37.7116  -0.7235  -0.4235
     4.4421   4.6733   6.4596   7.1794   7.9906   8.4857   9.2670  10.0080
    11.1634

          k = 3.0262-1.7472-0.2055 (  3721 PWs)   bands (ev):

   -38.2968 -38.1431 -37.9282 -37.8257 -37.6248 -37.5610  -5.9208  -0.6869
     3.8831   5.0989   6.1063   7.0393   8.0111   9.6786  10.7009  13.0739
    13.7752

          k = 2.0174-2.3295-0.1370 (  3738 PWs)   bands (ev):

   -38.0565 -37.9615 -37.8494 -37.8139 -37.7183 -37.7076  -2.3317   2.6210
     4.7402   4.7946   6.5721   6.7466   7.7925   8.6544   9.6679   9.7511
    11.3252

          k = 0.0000 0.0000-0.4110 (  3676 PWs)   bands (ev):

   -38.4653 -38.2766 -37.9938 -37.8516 -37.5814 -37.4786  -7.7476  -2.4516
     2.3803   4.4685   5.4435   6.2549   9.1897   9.5022  13.1647  16.3183
    17.9316

     the Fermi energy is     8.3046 ev

!    total energy              =    -102.62400710 Ry
     estimated scf accuracy    <          5.0E-11 Ry
     smearing contrib. (-TS)   =       0.00275636 Ry
     internal energy E=F+TS    =    -102.62676346 Ry

     The total energy is F=E-TS. E is the sum of the following terms:
     one-electron contribution =     -32.60405268 Ry
     hartree contribution      =      18.69083322 Ry
     xc contribution           =     -27.73040617 Ry
     ewald contribution        =     -60.98313782 Ry

     convergence has been achieved in  15 iterations

     Forces acting on atoms (cartesian axes, Ry/au):

     atom    1 type  1   force =    -0.00000000   -0.00000000    0.00077395
     atom    2 type  1   force =    -0.00000000   -0.00000000   -0.00077395
     atom    3 type  1   force =     0.00000000    0.00000000    0.00055987
     atom    4 type  1   force =    -0.00000000    0.00000000   -0.00055987
     atom    5 type  1   force =     0.00000000   -0.00000000   -0.00000504
     atom    6 type  1   force =    -0.00000000    0.00000000    0.00000504
     atom    7 type  2   force =     0.00000000    0.00000000    0.00072414
     atom    8 type  2   force =     0.00000000    0.00000000   -0.00072414
     The non-local contrib.  to forces
     atom    1 type  1   force =     0.00000000    0.00000000    0.01101994
     atom    2 type  1   force =     0.00000000    0.00000000   -0.01101994
     atom    3 type  1   force =    -0.00000000   -0.00000000   -0.03451569
     atom    4 type  1   force =    -0.00000000   -0.00000000    0.03451569
     atom    5 type  1   force =     0.00000000    0.00000000   -0.02990592
     atom    6 type  1   force =    -0.00000000   -0.00000000    0.02990592
     atom    7 type  2   force =    -0.00000000    0.00000000    0.08590198
     atom    8 type  2   force =    -0.00000000    0.00000000   -0.08590198
     The ionic contribution  to forces
     atom    1 type  1   force =    -0.00000000    0.00000000   -1.42318490
     atom    2 type  1   force =    -0.00000000   -0.00000000    1.42318490
     atom    3 type  1   force =     0.00000000    0.00000000   -0.20348433
     atom    4 type  1   force =     0.00000000   -0.00000000    0.20348433
     atom    5 type  1   force =     0.00000000    0.00000000    1.31359410
     atom    6 type  1   force =     0.00000000   -0.00000000   -1.31359410
     atom    7 type  2   force =     0.00000000   -0.00000000    0.93728196
     atom    8 type  2   force =    -0.00000000    0.00000000   -0.93728196
     The local contribution  to forces
     atom    1 type  1   force =    -0.00000000   -0.00000000    1.41294452
     atom    2 type  1   force =    -0.00000000    0.00000000   -1.41294452
     atom    3 type  1   force =    -0.00000000   -0.00000000    0.23856311
     atom    4 type  1   force =    -0.00000000    0.00000000   -0.23856311
     atom    5 type  1   force =     0.00000000    0.00000000   -1.28369637
     atom    6 type  1   force =    -0.00000000    0.00000000    1.28369637
     atom    7 type  2   force =    -0.00000000    0.00000000   -1.01081009
     atom    8 type  2   force =     0.00000000   -0.00000000    1.01081009
     The core correction contribution to forces
     atom    1 type  1   force =     0.00000000    0.00000000    0.00000000
     atom    2 type  1   force =     0.00000000    0.00000000    0.00000000
     atom    3 type  1   force =     0.00000000    0.00000000    0.00000000
     atom    4 type  1   force =     0.00000000    0.00000000    0.00000000
     atom    5 type  1   force =     0.00000000    0.00000000    0.00000000
     atom    6 type  1   force =     0.00000000    0.00000000    0.00000000
     atom    7 type  2   force =    -0.00000000    0.00000000   -0.01164197
     atom    8 type  2   force =     0.00000000   -0.00000000    0.01164197
     The Hubbard contrib.    to forces
     atom    1 type  1   force =     0.00000000    0.00000000    0.00000000
     atom    2 type  1   force =     0.00000000    0.00000000    0.00000000
     atom    3 type  1   force =     0.00000000    0.00000000    0.00000000
     atom    4 type  1   force =     0.00000000    0.00000000    0.00000000
     atom    5 type  1   force =     0.00000000    0.00000000    0.00000000
     atom    6 type  1   force =     0.00000000    0.00000000    0.00000000
     atom    7 type  2   force =     0.00000000    0.00000000    0.00000000
     atom    8 type  2   force =     0.00000000    0.00000000    0.00000000
     The SCF correction term to forces
     atom    1 type  1   force =     0.00000000    0.00000000   -0.00000561
     atom    2 type  1   force =    -0.00000000   -0.00000000    0.00000561
     atom    3 type  1   force =    -0.00000000   -0.00000000   -0.00000322
     atom    4 type  1   force =    -0.00000000   -0.00000000    0.00000322
     atom    5 type  1   force =     0.00000000   -0.00000000    0.00000316
     atom    6 type  1   force =     0.00000000    0.00000000   -0.00000316
     atom    7 type  2   force =    -0.00000000    0.00000000   -0.00000773
     atom    8 type  2   force =     0.00000000    0.00000000    0.00000773

     Total force =     0.001695     Total SCF correction =     0.000015


     Computing stress (Cartesian axis) and pressure

          total   stress  (Ry/bohr**3)                   (kbar)     P=      569.29
   0.00337757   0.00000000  -0.00000000          496.86        0.00       -0.00
   0.00000000   0.00337757   0.00000000            0.00      496.86        0.00
  -0.00000000   0.00000000   0.00485463           -0.00        0.00      714.14


     Writing all to output data dir ./output/LiSi.save/

     init_run     :      3.34s CPU      4.23s WALL (       2 calls)
     electrons    :    315.47s CPU    338.53s WALL (      18 calls)
     update_pot   :      6.62s CPU      6.83s WALL (      16 calls)
     forces       :      4.81s CPU      5.00s WALL (      18 calls)
     stress       :     14.29s CPU     15.14s WALL (      18 calls)

     Called by init_run:
     wfcinit      :      1.39s CPU      1.57s WALL (       2 calls)
     potinit      :      0.48s CPU      0.73s WALL (       2 calls)
     hinit0       :      1.43s CPU      1.78s WALL (       2 calls)

     Called by electrons:
     c_bands      :    254.82s CPU    273.42s WALL (     221 calls)
     sum_band     :     46.27s CPU     49.61s WALL (     221 calls)
     v_of_rho     :     14.74s CPU     15.82s WALL (     239 calls)
     mix_rho      :      0.51s CPU      0.61s WALL (     221 calls)

     Called by c_bands:
     init_us_2    :      1.27s CPU      1.43s WALL (    6240 calls)
     init_us_2:cp :      1.26s CPU      1.42s WALL (    6240 calls)
     cegterg      :    251.89s CPU    269.38s WALL (    2873 calls)

     Called by *egterg:
     cdiaghg      :      4.29s CPU      4.57s WALL (   12071 calls)
     h_psi        :    243.59s CPU    260.72s WALL (   12305 calls)
     g_psi        :      0.17s CPU      0.18s WALL (    9406 calls)

     Called by h_psi:
     h_psi:calbec :      3.31s CPU      3.57s WALL (   12305 calls)
     vloc_psi     :    237.77s CPU    254.45s WALL (   12305 calls)
     add_vuspsi   :      2.36s CPU      2.53s WALL (   12305 calls)

     General routines
     calbec       :      3.82s CPU      4.12s WALL (   13475 calls)
     fft          :      5.58s CPU      7.15s WALL (    2838 calls)
     ffts         :      0.28s CPU      0.33s WALL (     221 calls)
     fftw         :    241.94s CPU    259.05s WALL (  312131 calls)

     Parallel routines

     PWSCF        :   5m44.95s CPU   6m10.65s WALL


   This run was terminated on:  16:18:36  17Jan2025            

=------------------------------------------------------------------------------=
   JOB DONE.
=------------------------------------------------------------------------------=
