
     Program PWSCF v.7.2 starts on 29Dec2024 at 12:40:58 

     This program is part of the open-source Quantum ESPRESSO suite
     for quantum simulation of materials; please cite
         "P. Giannozzi et al., J. Phys.:Condens. Matter 21 395502 (2009);
         "P. Giannozzi et al., J. Phys.:Condens. Matter 29 465901 (2017);
         "P. Giannozzi et al., J. Chem. Phys. 152 154105 (2020);
          URL http://www.quantum-espresso.org", 
     in publications or presentations arising from this work. More details at
     http://www.quantum-espresso.org/quote

     Parallel version (MPI & OpenMP), running on       8 processor cores
     Number of MPI processes:                 8
     Threads/MPI process:                     1

     MPI processes distributed on     1 nodes
     481650 MiB available memory on the printing compute node when the environment starts

     Waiting for input...
     Reading input from standard input

     Current dimensions of program PWSCF are:
     Max number of different atomic species (ntypx) = 10
     Max number of k-points (npk) =  40000
     Max angular momentum in pseudopotentials (lmaxx) =  4

     R & G space division:  proc/nbgrp/npool/nimage =       8
     Subspace diagonalization in iterative solution of the eigenvalue problem:
     a serial algorithm will be used


     Parallelization info
     --------------------
     sticks:   dense  smooth     PW     G-vecs:    dense   smooth      PW
     Min          74      74     22                 3658     3658     620
     Max          75      75     23                 3667     3667     631
     Sum         593     593    177                29283    29283    4985

     Using Slab Decomposition



     bravais-lattice index     =            6
     lattice parameter (alat)  =       4.8092  a.u.
     unit-cell volume          =     302.5212 (a.u.)^3
     number of atoms/cell      =            4
     number of atomic types    =            2
     number of electrons       =        13.00
     number of Kohn-Sham states=           11
     kinetic-energy cutoff     =      80.0000  Ry
     charge density cutoff     =     320.0000  Ry
     scf convergence threshold =      1.0E-08
     mixing beta               =       0.7000
     number of iterations used =            8  plain     mixing
     energy convergence thresh.=      1.0E-04
     force convergence thresh. =      1.0E-03
     press convergence thresh. =      1.0E+00
     Exchange-correlation= PBE
                           (   1   4   3   4   0   0   0)
     nstep                     =           50


     celldm(1)=   4.809245  celldm(2)=   0.000000  celldm(3)=   2.719726
     celldm(4)=   0.000000  celldm(5)=   0.000000  celldm(6)=   0.000000

     crystal axes: (cart. coord. in units of alat)
               a(1) = (   1.000000   0.000000   0.000000 )  
               a(2) = (   0.000000   1.000000   0.000000 )  
               a(3) = (   0.000000   0.000000   2.719726 )  

     reciprocal axes: (cart. coord. in units 2 pi/alat)
               b(1) = (  1.000000  0.000000  0.000000 )  
               b(2) = (  0.000000  1.000000  0.000000 )  
               b(3) = (  0.000000  0.000000  0.367684 )  


     PseudoPot. # 1 for Li read from file:
     ../pseudo/Li_ONCV_PBE_sr.upf
     MD5 check sum: 50ff420e78310ffa21704f3361e624a4
     Pseudo is Norm-conserving, Zval =  3.0
     Generated using ONCVPSP code by D. R. Hamann
     Using radial grid of 1944 points,  4 beta functions with: 
                l(1) =   0
                l(2) =   0
                l(3) =   1
                l(4) =   1

     PseudoPot. # 2 for Si read from file:
     ../pseudo/Si_ONCV_PBE_sr.upf
     MD5 check sum: e543d271109d17c80368dfa7c482276d
     Pseudo is Norm-conserving + core correction, Zval =  4.0
     Generated using ONCVPSP code by D. R. Hamann
     Using radial grid of 1510 points,  6 beta functions with: 
                l(1) =   0
                l(2) =   0
                l(3) =   1
                l(4) =   1
                l(5) =   2
                l(6) =   2

     atomic species   valence    mass     pseudopotential
        Li             3.00     6.94100     Li( 1.00)
        Si             4.00    28.08550     Si( 1.00)

     16 Sym. Ops., with inversion, found



   Cartesian axes

     site n.     atom                  positions (alat units)
         1           Li  tau(   1) = (   0.0000000   0.0000000   0.7755679  )
         2           Li  tau(   2) = (   0.0000000   0.0000000   1.9441579  )
         3           Li  tau(   3) = (   0.5000000   0.5000000   0.0000000  )
         4           Si  tau(   4) = (   0.5000000   0.5000000   1.3598629  )

     number of k points=    63  Marzari-Vanderbilt smearing, width (Ry)=  0.0200
                       cart. coord. in units 2pi/alat
        k(    1) = (   0.0000000   0.0000000   0.0000000), wk =   0.0050000
        k(    2) = (   0.0000000   0.0000000   0.0919210), wk =   0.0100000
        k(    3) = (   0.0000000   0.0000000  -0.1838421), wk =   0.0050000
        k(    4) = (   0.0000000   0.1000000   0.0000000), wk =   0.0200000
        k(    5) = (   0.0000000   0.1000000   0.0919210), wk =   0.0400000
        k(    6) = (   0.0000000   0.1000000  -0.1838421), wk =   0.0200000
        k(    7) = (   0.0000000   0.2000000   0.0000000), wk =   0.0200000
        k(    8) = (   0.0000000   0.2000000   0.0919210), wk =   0.0400000
        k(    9) = (   0.0000000   0.2000000  -0.1838421), wk =   0.0200000
        k(   10) = (   0.0000000   0.3000000   0.0000000), wk =   0.0200000
        k(   11) = (   0.0000000   0.3000000   0.0919210), wk =   0.0400000
        k(   12) = (   0.0000000   0.3000000  -0.1838421), wk =   0.0200000
        k(   13) = (   0.0000000   0.4000000   0.0000000), wk =   0.0200000
        k(   14) = (   0.0000000   0.4000000   0.0919210), wk =   0.0400000
        k(   15) = (   0.0000000   0.4000000  -0.1838421), wk =   0.0200000
        k(   16) = (   0.0000000  -0.5000000   0.0000000), wk =   0.0100000
        k(   17) = (   0.0000000  -0.5000000   0.0919210), wk =   0.0200000
        k(   18) = (   0.0000000  -0.5000000  -0.1838421), wk =   0.0100000
        k(   19) = (   0.1000000   0.1000000   0.0000000), wk =   0.0200000
        k(   20) = (   0.1000000   0.1000000   0.0919210), wk =   0.0400000
        k(   21) = (   0.1000000   0.1000000  -0.1838421), wk =   0.0200000
        k(   22) = (   0.1000000   0.2000000   0.0000000), wk =   0.0400000
        k(   23) = (   0.1000000   0.2000000   0.0919210), wk =   0.0800000
        k(   24) = (   0.1000000   0.2000000  -0.1838421), wk =   0.0400000
        k(   25) = (   0.1000000   0.3000000   0.0000000), wk =   0.0400000
        k(   26) = (   0.1000000   0.3000000   0.0919210), wk =   0.0800000
        k(   27) = (   0.1000000   0.3000000  -0.1838421), wk =   0.0400000
        k(   28) = (   0.1000000   0.4000000   0.0000000), wk =   0.0400000
        k(   29) = (   0.1000000   0.4000000   0.0919210), wk =   0.0800000
        k(   30) = (   0.1000000   0.4000000  -0.1838421), wk =   0.0400000
        k(   31) = (   0.1000000  -0.5000000   0.0000000), wk =   0.0200000
        k(   32) = (   0.1000000  -0.5000000   0.0919210), wk =   0.0400000
        k(   33) = (   0.1000000  -0.5000000  -0.1838421), wk =   0.0200000
        k(   34) = (   0.2000000   0.2000000   0.0000000), wk =   0.0200000
        k(   35) = (   0.2000000   0.2000000   0.0919210), wk =   0.0400000
        k(   36) = (   0.2000000   0.2000000  -0.1838421), wk =   0.0200000
        k(   37) = (   0.2000000   0.3000000   0.0000000), wk =   0.0400000
        k(   38) = (   0.2000000   0.3000000   0.0919210), wk =   0.0800000
        k(   39) = (   0.2000000   0.3000000  -0.1838421), wk =   0.0400000
        k(   40) = (   0.2000000   0.4000000   0.0000000), wk =   0.0400000
        k(   41) = (   0.2000000   0.4000000   0.0919210), wk =   0.0800000
        k(   42) = (   0.2000000   0.4000000  -0.1838421), wk =   0.0400000
        k(   43) = (   0.2000000  -0.5000000   0.0000000), wk =   0.0200000
        k(   44) = (   0.2000000  -0.5000000   0.0919210), wk =   0.0400000
        k(   45) = (   0.2000000  -0.5000000  -0.1838421), wk =   0.0200000
        k(   46) = (   0.3000000   0.3000000   0.0000000), wk =   0.0200000
        k(   47) = (   0.3000000   0.3000000   0.0919210), wk =   0.0400000
        k(   48) = (   0.3000000   0.3000000  -0.1838421), wk =   0.0200000
        k(   49) = (   0.3000000   0.4000000   0.0000000), wk =   0.0400000
        k(   50) = (   0.3000000   0.4000000   0.0919210), wk =   0.0800000
        k(   51) = (   0.3000000   0.4000000  -0.1838421), wk =   0.0400000
        k(   52) = (   0.3000000  -0.5000000   0.0000000), wk =   0.0200000
        k(   53) = (   0.3000000  -0.5000000   0.0919210), wk =   0.0400000
        k(   54) = (   0.3000000  -0.5000000  -0.1838421), wk =   0.0200000
        k(   55) = (   0.4000000   0.4000000   0.0000000), wk =   0.0200000
        k(   56) = (   0.4000000   0.4000000   0.0919210), wk =   0.0400000
        k(   57) = (   0.4000000   0.4000000  -0.1838421), wk =   0.0200000
        k(   58) = (   0.4000000  -0.5000000   0.0000000), wk =   0.0200000
        k(   59) = (   0.4000000  -0.5000000   0.0919210), wk =   0.0400000
        k(   60) = (   0.4000000  -0.5000000  -0.1838421), wk =   0.0200000
        k(   61) = (  -0.5000000  -0.5000000   0.0000000), wk =   0.0050000
        k(   62) = (  -0.5000000  -0.5000000   0.0919210), wk =   0.0100000
        k(   63) = (  -0.5000000  -0.5000000  -0.1838421), wk =   0.0050000

     Dense  grid:    29283 G-vectors     FFT dimensions: (  27,  27,  75)

     Estimated max dynamical RAM per process >      19.15 MB

     Estimated total dynamical RAM >     153.19 MB

     Initial potential from superposition of free atoms

     starting charge      12.9857, renormalised to      13.0000
     Starting wfcs are   10 randomized atomic wfcs +    1 random wfcs

     total cpu time spent up to now is        1.2 secs

     Self-consistent Calculation

     iteration #  1     ecut=    80.00 Ry     beta= 0.70
     Davidson diagonalization with overlap
     ethr =  1.00E-02,  avg # of iterations =  6.3

     Threshold (ethr) on eigenvalues was too large:
     Diagonalizing with lowered threshold

     Davidson diagonalization with overlap
     ethr =  4.77E-04,  avg # of iterations =  2.4

     total cpu time spent up to now is        3.0 secs

     total energy              =     -51.60364722 Ry
     estimated scf accuracy    <       0.06203717 Ry

     iteration #  2     ecut=    80.00 Ry     beta= 0.70
     Davidson diagonalization with overlap
     ethr =  4.77E-04,  avg # of iterations =  3.5

     total cpu time spent up to now is        3.9 secs

     total energy              =     -51.57749841 Ry
     estimated scf accuracy    <       0.49687007 Ry

     iteration #  3     ecut=    80.00 Ry     beta= 0.70
     Davidson diagonalization with overlap
     ethr =  4.77E-04,  avg # of iterations =  2.3

     total cpu time spent up to now is        4.6 secs

     total energy              =     -51.63968026 Ry
     estimated scf accuracy    <       0.00140416 Ry

     iteration #  4     ecut=    80.00 Ry     beta= 0.70
     Davidson diagonalization with overlap
     ethr =  1.08E-05,  avg # of iterations =  5.0

     total cpu time spent up to now is        5.4 secs

     total energy              =     -51.63979979 Ry
     estimated scf accuracy    <       0.00144555 Ry

     iteration #  5     ecut=    80.00 Ry     beta= 0.70
     Davidson diagonalization with overlap
     ethr =  1.08E-05,  avg # of iterations =  1.2

     total cpu time spent up to now is        6.1 secs

     total energy              =     -51.64000955 Ry
     estimated scf accuracy    <       0.00009269 Ry

     iteration #  6     ecut=    80.00 Ry     beta= 0.70
     Davidson diagonalization with overlap
     ethr =  7.13E-07,  avg # of iterations =  1.2

     total cpu time spent up to now is        6.7 secs

     total energy              =     -51.64001605 Ry
     estimated scf accuracy    <       0.00000233 Ry

     iteration #  7     ecut=    80.00 Ry     beta= 0.70
     Davidson diagonalization with overlap
     ethr =  1.79E-08,  avg # of iterations =  1.6

     total cpu time spent up to now is        7.4 secs

     total energy              =     -51.64001644 Ry
     estimated scf accuracy    <       0.00000019 Ry

     iteration #  8     ecut=    80.00 Ry     beta= 0.70
     Davidson diagonalization with overlap
     ethr =  1.49E-09,  avg # of iterations =  1.5

     total cpu time spent up to now is        8.0 secs

     End of self-consistent calculation

          k = 0.0000 0.0000 0.0000 (  3637 PWs)   bands (ev):

   -39.8442 -39.7097 -39.7066  -6.1398   1.4572   2.7125   6.8347  11.0743
    13.0475  13.0475  13.2325

          k = 0.0000 0.0000 0.0919 (  3649 PWs)   bands (ev):

   -39.8438 -39.7155 -39.7011  -6.1400   1.2724   3.2570   5.9426  12.3460
    13.0565  13.0565  13.2350

          k = 0.0000 0.0000-0.1838 (  3686 PWs)   bands (ev):

   -39.8435 -39.7186 -39.6984  -6.1402   1.1433   4.2419   4.7020  13.0655
    13.0655  13.2376  14.3317

          k = 0.0000 0.1000 0.0000 (  3647 PWs)   bands (ev):

   -39.8388 -39.7049 -39.7027  -5.9380   1.5783   2.8532   7.0574   9.6484
    11.5350  13.2409  15.9334

          k = 0.0000 0.1000 0.0919 (  3653 PWs)   bands (ev):

   -39.8385 -39.7107 -39.6972  -5.9382   1.3959   3.3965   6.1079   9.9235
    12.5487  13.2496  15.8625

          k = 0.0000 0.1000-0.1838 (  3654 PWs)   bands (ev):

   -39.8381 -39.7136 -39.6946  -5.9384   1.2677   4.3891   4.8398  10.0285
    13.2585  14.3006  15.2012

          k = 0.0000 0.2000 0.0000 (  3644 PWs)   bands (ev):

   -39.8246 -39.6925 -39.6923  -5.3364   1.9275   3.2480   6.7102   7.7249
    11.4570  13.8195  13.9558

          k = 0.0000 0.2000 0.0919 (  3644 PWs)   bands (ev):

   -39.8243 -39.6981 -39.6870  -5.3366   1.7565   3.7707   6.1838   7.4095
    12.3791  13.8277  13.9516

          k = 0.0000 0.2000-0.1838 (  3650 PWs)   bands (ev):

   -39.8241 -39.7005 -39.6848  -5.3368   1.6339   4.8049   5.0158   7.3069
    12.9137  13.8360  14.8181

          k = 0.0000 0.3000 0.0000 (  3650 PWs)   bands (ev):

   -39.8069 -39.6801 -39.6767  -4.3494   2.4502   3.3013   4.5894   8.8345
    10.5891  11.6619  14.5809

          k = 0.0000 0.3000 0.0919 (  3648 PWs)   bands (ev):

   -39.8068 -39.6827 -39.6742  -4.3497   2.3123   3.4401   4.8796   7.7898
    10.8711  12.5668  15.1038

          k = 0.0000 0.3000-0.1838 (  3640 PWs)   bands (ev):

   -39.8066 -39.6842 -39.6728  -4.3499   2.2097   3.5281   5.3712   6.8671
    10.8618  14.1965  14.5965

          k = 0.0000 0.4000 0.0000 (  3664 PWs)   bands (ev):

   -39.7925 -39.6700 -39.6640  -3.0290   1.2554   2.9974   5.1443   9.0375
    10.0160  10.4021  14.8232

          k = 0.0000 0.4000 0.0919 (  3645 PWs)   bands (ev):

   -39.7924 -39.6706 -39.6635  -3.0295   1.2570   2.9349   5.4093   8.3823
     9.9440  11.0465  13.8604

          k = 0.0000 0.4000-0.1838 (  3656 PWs)   bands (ev):

   -39.7924 -39.6711 -39.6630  -3.0300   1.2585   2.8791   5.7381   7.8293
     9.8131  12.0949  12.6358

          k = 0.0000-0.5000 0.0000 (  3658 PWs)   bands (ev):

   -39.7870 -39.6662 -39.6592  -1.9318  -0.1827   3.2573   5.7488   8.1314
     9.4096  12.1471  12.6369

          k = 0.0000-0.5000 0.0919 (  3660 PWs)   bands (ev):

   -39.7870 -39.6661 -39.6593  -1.9329  -0.1826   3.2526   5.7310   8.3139
     9.6331  11.4835  12.1057

          k = 0.0000-0.5000-0.1838 (  3660 PWs)   bands (ev):

   -39.7870 -39.6660 -39.6594  -1.9340  -0.1825   3.2480   5.7138   8.5471
     9.9461  10.9039  11.5460

          k = 0.1000 0.1000 0.0000 (  3647 PWs)   bands (ev):

   -39.8335 -39.7001 -39.6988  -5.7360   1.7046   2.9984   7.2801   9.4065
    10.1725  13.2581  15.9741

          k = 0.1000 0.1000 0.0919 (  3645 PWs)   bands (ev):

   -39.8332 -39.7059 -39.6933  -5.7362   1.5239   3.5416   6.2822   9.4129
    11.0265  13.7403  15.5425

          k = 0.1000 0.1000-0.1838 (  3650 PWs)   bands (ev):

   -39.8329 -39.7086 -39.6908  -5.7364   1.3963   4.5405   4.9901   9.4193
    11.5554  15.4552  15.6188

          k = 0.1000 0.2000 0.0000 (  3634 PWs)   bands (ev):

   -39.8196 -39.6885 -39.6876  -5.1338   2.0695   3.4085   6.8025   7.9474
    10.4478  13.0632  13.7921

          k = 0.1000 0.2000 0.0919 (  3642 PWs)   bands (ev):

   -39.8194 -39.6934 -39.6829  -5.1339   1.8981   3.9358   6.3769   7.4059
    11.1775  13.0088  14.1983

          k = 0.1000 0.2000-0.1838 (  3638 PWs)   bands (ev):

   -39.8192 -39.6957 -39.6809  -5.1341   1.7749   4.9698   5.2192   7.2492
    11.6024  12.8984  15.9601

          k = 0.1000 0.3000 0.0000 (  3656 PWs)   bands (ev):

   -39.8024 -39.6758 -39.6722  -4.1455   2.6179   3.4970   4.7149   9.0567
    10.5954  11.6058  12.3319

          k = 0.1000 0.3000 0.0919 (  3660 PWs)   bands (ev):

   -39.8023 -39.6781 -39.6700  -4.1457   2.4764   3.6346   5.0226   7.9247
    10.9083  12.1993  12.7918

          k = 0.1000 0.3000-0.1838 (  3650 PWs)   bands (ev):

   -39.8022 -39.6796 -39.6686  -4.1459   2.3711   3.7191   5.5602   6.9452
    10.8535  12.4704  14.2491

          k = 0.1000 0.4000 0.0000 (  3657 PWs)   bands (ev):

   -39.7884 -39.6656 -39.6596  -2.8215   1.4397   3.1975   5.3178   9.2004
     9.9892  10.6120  13.2389

          k = 0.1000 0.4000 0.0919 (  3660 PWs)   bands (ev):

   -39.7884 -39.6661 -39.6592  -2.8219   1.4414   3.1295   5.5963   8.5400
     9.9711  11.1177  13.5291

          k = 0.1000 0.4000-0.1838 (  3644 PWs)   bands (ev):

   -39.7883 -39.6666 -39.6588  -2.8223   1.4431   3.0693   5.9438   7.9824
     9.8058  12.1512  12.6599

          k = 0.1000-0.5000 0.0000 (  3656 PWs)   bands (ev):

   -39.7830 -39.6617 -39.6548  -1.7118  -0.0096   3.4761   5.9499   8.2733
     9.3693  12.3572  12.8606

          k = 0.1000-0.5000 0.0919 (  3650 PWs)   bands (ev):

   -39.7830 -39.6616 -39.6549  -1.7127  -0.0094   3.4679   5.9265   8.4825
     9.6135  11.5942  12.1953

          k = 0.1000-0.5000-0.1838 (  3648 PWs)   bands (ev):

   -39.7830 -39.6616 -39.6550  -1.7136  -0.0092   3.4598   5.9041   8.7601
     9.9636  10.9445  11.5451

          k = 0.2000 0.2000 0.0000 (  3648 PWs)   bands (ev):

   -39.8067 -39.6779 -39.6754  -4.5295   2.4816   3.8711   6.4862   8.6141
     8.7172  12.9459  13.1592

          k = 0.2000 0.2000 0.0919 (  3655 PWs)   bands (ev):

   -39.8065 -39.6812 -39.6722  -4.5297   2.3127   4.4019   6.4935   7.1291
     9.6519  12.4821  13.9429

          k = 0.2000 0.2000-0.1838 (  3638 PWs)   bands (ev):

   -39.8064 -39.6830 -39.6706  -4.5298   2.1901   5.4428   5.7601   6.5009
     9.9138  12.2144  15.1282

          k = 0.2000 0.3000 0.0000 (  3654 PWs)   bands (ev):

   -39.7907 -39.6648 -39.6603  -3.5375   3.1086   4.0599   5.0082   9.0413
     9.7219  11.3570  11.6861

          k = 0.2000 0.3000 0.0919 (  3654 PWs)   bands (ev):

   -39.7906 -39.6663 -39.6588  -3.5376   2.9586   4.1760   5.3797   8.0098
     9.9782  10.8657  12.9243

          k = 0.2000 0.3000-0.1838 (  3658 PWs)   bands (ev):

   -39.7905 -39.6674 -39.6578  -3.5376   2.8470   4.2378   6.1145   6.9221
    10.0559  10.6599  14.3390

          k = 0.2000 0.4000 0.0000 (  3657 PWs)   bands (ev):

   -39.7776 -39.6541 -39.6481  -2.2037   1.9744   3.7907   5.8167   9.5953
     9.8809  10.4701  11.2631

          k = 0.2000 0.4000 0.0919 (  3660 PWs)   bands (ev):

   -39.7776 -39.6545 -39.6478  -2.2038   1.9767   3.7056   6.1380   8.8425
     9.9444  10.7291  11.5016

          k = 0.2000 0.4000-0.1838 (  3658 PWs)   bands (ev):

   -39.7776 -39.6548 -39.6475  -2.2039   1.9790   3.6322   6.5550   8.2641
     9.7256  10.9120  12.2988

          k = 0.2000-0.5000 0.0000 (  3668 PWs)   bands (ev):

   -39.7727 -39.6501 -39.6434  -1.0560   0.4984   4.1324   6.5404   8.6640
     9.2537  11.5107  12.9734

          k = 0.2000-0.5000 0.0919 (  3656 PWs)   bands (ev):

   -39.7727 -39.6500 -39.6435  -1.0563   0.4990   4.1126   6.4924   8.9395
     9.5568  11.4168  12.1677

          k = 0.2000-0.5000-0.1838 (  3648 PWs)   bands (ev):

   -39.7727 -39.6499 -39.6436  -1.0565   0.4996   4.0934   6.4480   9.3406
    10.0279  11.0232  11.2492

          k = 0.3000 0.3000 0.0000 (  3678 PWs)   bands (ev):

   -39.7761 -39.6510 -39.6457  -2.5393   3.8712   4.3964   5.2858   7.5116
    10.7035  10.8240  11.8226

          k = 0.3000 0.3000 0.0919 (  3654 PWs)   bands (ev):

   -39.7761 -39.6518 -39.6450  -2.5391   3.7192   4.4045   5.7201   7.3549
    10.0159  10.2285  12.7777

          k = 0.3000 0.3000-0.1838 (  3648 PWs)   bands (ev):

   -39.7761 -39.6524 -39.6444  -2.5389   3.6046   4.4128   6.3499   6.9594
     9.4668   9.9559  14.0163

          k = 0.3000 0.4000 0.0000 (  3668 PWs)   bands (ev):

   -39.7644 -39.6399 -39.6338  -1.1924   2.7560   4.7462   6.4407   7.9148
     9.6815  10.3296  11.8907

          k = 0.3000 0.4000 0.0919 (  3661 PWs)   bands (ev):

   -39.7643 -39.6400 -39.6337  -1.1918   2.7604   4.6323   6.7710   7.8356
     9.3279  10.8049  11.3560

          k = 0.3000 0.4000-0.1838 (  3664 PWs)   bands (ev):

   -39.7643 -39.6402 -39.6336  -1.1913   2.7649   4.5386   7.2637   7.5490
     9.4136  10.0905  11.6979

          k = 0.3000-0.5000 0.0000 (  3656 PWs)   bands (ev):

   -39.7599 -39.6356 -39.6293   0.0206   1.2940   5.2246   7.4416   8.5040
     9.0923   9.3470  10.5520

          k = 0.3000-0.5000 0.0919 (  3660 PWs)   bands (ev):

   -39.7599 -39.6356 -39.6293   0.0215   1.2959   5.1823   7.3225   8.4946
     9.4074   9.7587  10.4628

          k = 0.3000-0.5000-0.1838 (  3684 PWs)   bands (ev):

   -39.7599 -39.6355 -39.6294   0.0224   1.2978   5.1420   7.2243   8.4845
     9.8432  10.2376  10.7869

          k = 0.4000 0.4000 0.0000 (  3674 PWs)   bands (ev):

   -39.7536 -39.6283 -39.6222   0.1678   3.1421   5.8296   5.9475   7.8667
     9.3448   9.6942  10.4652

          k = 0.4000 0.4000 0.0919 (  3668 PWs)   bands (ev):

   -39.7536 -39.6283 -39.6222   0.1694   3.1508   5.7921   5.8545   8.2858
     8.8654   9.5899  11.4252

          k = 0.4000 0.4000-0.1838 (  3672 PWs)   bands (ev):

   -39.7536 -39.6283 -39.6222   0.1710   3.1597   5.6998   5.8396   8.5905
     8.9727   9.2386  11.4065

          k = 0.4000-0.5000 0.0000 (  3668 PWs)   bands (ev):

   -39.7495 -39.6239 -39.6178   1.4690   2.2160   6.0067   6.7490   7.8342
     8.9483   9.4131   9.7971

          k = 0.4000-0.5000 0.0919 (  3670 PWs)   bands (ev):

   -39.7495 -39.6239 -39.6179   1.4721   2.2214   6.0015   6.6645   7.8546
     8.3828   9.9916  10.2613

          k = 0.4000-0.5000-0.1838 (  3672 PWs)   bands (ev):

   -39.7495 -39.6238 -39.6179   1.4753   2.2267   5.9982   6.5839   7.9005
     8.0852  10.1931  10.9241

          k =-0.5000-0.5000 0.0000 (  3668 PWs)   bands (ev):

   -39.7455 -39.6194 -39.6134   2.7240   2.7240   4.3779   7.2395   8.5361
     8.8904   8.8904  10.0120

          k =-0.5000-0.5000 0.0919 (  3688 PWs)   bands (ev):

   -39.7455 -39.6194 -39.6135   2.7330   2.7330   4.3700   7.2458   8.4098
     8.4099   8.5873  10.9732

          k =-0.5000-0.5000-0.1838 (  3656 PWs)   bands (ev):

   -39.7455 -39.6193 -39.6135   2.7420   2.7420   4.3622   7.2520   8.1342
     8.1342   8.6400  12.2110

     the Fermi energy is     6.0390 ev

!    total energy              =     -51.64001647 Ry
     estimated scf accuracy    <          8.0E-09 Ry
     smearing contrib. (-TS)   =      -0.00022562 Ry
     internal energy E=F+TS    =     -51.63979085 Ry

     The total energy is F=E-TS. E is the sum of the following terms:
     one-electron contribution =     -20.85556101 Ry
     hartree contribution      =      10.46897071 Ry
     xc contribution           =     -13.58226805 Ry
     ewald contribution        =     -27.67093249 Ry

     convergence has been achieved in   8 iterations

     Forces acting on atoms (cartesian axes, Ry/au):

     atom    1 type  1   force =     0.00000000    0.00000000   -0.04893934
     atom    2 type  1   force =     0.00000000    0.00000000    0.04893934
     atom    3 type  1   force =     0.00000000    0.00000000    0.00000000
     atom    4 type  2   force =     0.00000000    0.00000000    0.00000000
     The non-local contrib.  to forces
     atom    1 type  1   force =     0.00000000    0.00000000   -0.01183377
     atom    2 type  1   force =     0.00000000    0.00000000    0.01183377
     atom    3 type  1   force =     0.00000000    0.00000000    0.00000000
     atom    4 type  2   force =     0.00000000    0.00000000    0.00000000
     The ionic contribution  to forces
     atom    1 type  1   force =    -0.00000000   -0.00000000   -1.93146544
     atom    2 type  1   force =    -0.00000000   -0.00000000    1.93146544
     atom    3 type  1   force =     0.00000000    0.00000000   -0.00000000
     atom    4 type  2   force =     0.00000000    0.00000000   -0.00000000
     The local contribution  to forces
     atom    1 type  1   force =     0.00000000    0.00000000    1.89424824
     atom    2 type  1   force =     0.00000000    0.00000000   -1.89424824
     atom    3 type  1   force =     0.00000000    0.00000000   -0.00000000
     atom    4 type  2   force =    -0.00000000   -0.00000000   -0.00000000
     The core correction contribution to forces
     atom    1 type  1   force =     0.00000000    0.00000000    0.00000000
     atom    2 type  1   force =     0.00000000    0.00000000    0.00000000
     atom    3 type  1   force =     0.00000000    0.00000000    0.00000000
     atom    4 type  2   force =    -0.00000000   -0.00000000    0.00000000
     The Hubbard contrib.    to forces
     atom    1 type  1   force =     0.00000000    0.00000000    0.00000000
     atom    2 type  1   force =     0.00000000    0.00000000    0.00000000
     atom    3 type  1   force =     0.00000000    0.00000000    0.00000000
     atom    4 type  2   force =     0.00000000    0.00000000    0.00000000
     The SCF correction term to forces
     atom    1 type  1   force =    -0.00000000   -0.00000000    0.00011163
     atom    2 type  1   force =    -0.00000000   -0.00000000   -0.00011163
     atom    3 type  1   force =    -0.00000000    0.00000000    0.00000000
     atom    4 type  2   force =     0.00000000    0.00000000   -0.00000000

     Total force =     0.069211     Total SCF correction =     0.000158


     Computing stress (Cartesian axis) and pressure

          total   stress  (Ry/bohr**3)                   (kbar)     P=      229.10
   0.00157290   0.00000000   0.00000000          231.38        0.00        0.00
   0.00000000   0.00157290   0.00000000            0.00      231.38        0.00
   0.00000000   0.00000000   0.00152638            0.00        0.00      224.54


     BFGS Geometry Optimization
     Energy error            =      0.0E+00 Ry
     Gradient error          =      4.9E-02 Ry/Bohr
     Cell gradient error     =      2.8E+02 kbar

     number of scf cycles    =   1
     number of bfgs steps    =   0

     enthalpy           new  =     -50.6117679729 Ry

     new trust radius        =       0.1628475991 bohr
ibrav =      6
 celldm(1) =      4.58969948
 celldm(3) =      2.71641119
Input lattice vectors:
     0.95434934     0.00000000     0.00000000
     0.00000000     0.95434934     0.00000000
     0.00000000     0.00000000     2.59240522
New lattice vectors in INITIAL alat:
     0.95434934     0.00000000     0.00000000
     0.00000000     0.95434934     0.00000000
     0.00000000     0.00000000     2.59240522
New lattice vectors in NEW alat (for information only):
     1.00000000     0.00000000     0.00000000
     0.00000000     1.00000000     0.00000000
     0.00000000     0.00000000     2.71641119
Discrepancy in bohr =     0.000000    0.000000    0.000000
     new conv_thr            =       0.0000000100 Ry

     new unit-cell volume =    262.63238 a.u.^3 (    38.91810 Ang^3 )
     density =      2.08680 g/cm^3

CELL_PARAMETERS (alat=  4.80924470)
   0.954349336   0.000000000   0.000000000
   0.000000000   0.954349336   0.000000000
   0.000000000   0.000000000   2.592405216

ATOMIC_POSITIONS (crystal)
Li            0.0000000000        0.0000000000        0.2814224109
Li            0.0000000000        0.0000000000        0.7185775891
Li            0.5000000000        0.5000000000        0.0000000000
Si            0.5000000000        0.5000000000        0.5000000000



     Writing config-only to output data dir ./output/LiSi.save/
     NEW-OLD atomic charge density approx. for the potential
     extrapolated charge   11.02772, renormalised to   13.00000

     total cpu time spent up to now is        9.6 secs

     Self-consistent Calculation

     iteration #  1     ecut=    80.00 Ry     beta= 0.70
     Davidson diagonalization with overlap
     ethr =  1.00E-06,  avg # of iterations =  9.5

     total cpu time spent up to now is       11.4 secs

     total energy              =     -50.83057643 Ry
     estimated scf accuracy    <       0.73082899 Ry

     iteration #  2     ecut=    80.00 Ry     beta= 0.70
     Davidson diagonalization with overlap
     ethr =  5.62E-03,  avg # of iterations =  3.9

     total cpu time spent up to now is       12.5 secs

     total energy              =     -50.56360310 Ry
     estimated scf accuracy    <      11.62556360 Ry

     iteration #  3     ecut=    80.00 Ry     beta= 0.70
     Davidson diagonalization with overlap
     ethr =  5.62E-03,  avg # of iterations =  2.6

     total cpu time spent up to now is       13.5 secs

     total energy              =     -51.56921803 Ry
     estimated scf accuracy    <       0.32882102 Ry

     iteration #  4     ecut=    80.00 Ry     beta= 0.70
     Davidson diagonalization with overlap
     ethr =  2.53E-03,  avg # of iterations =  1.5

     total cpu time spent up to now is       14.3 secs

     total energy              =     -51.56771421 Ry
     estimated scf accuracy    <       0.09292063 Ry

     iteration #  5     ecut=    80.00 Ry     beta= 0.70
     Davidson diagonalization with overlap
     ethr =  7.15E-04,  avg # of iterations =  2.1

     total cpu time spent up to now is       15.1 secs

     total energy              =     -51.56208403 Ry
     estimated scf accuracy    <       0.03705667 Ry

     iteration #  6     ecut=    80.00 Ry     beta= 0.70
     Davidson diagonalization with overlap
     ethr =  2.85E-04,  avg # of iterations =  2.1

     total cpu time spent up to now is       16.0 secs

     total energy              =     -51.56195982 Ry
     estimated scf accuracy    <       0.00711663 Ry

     iteration #  7     ecut=    80.00 Ry     beta= 0.70
     Davidson diagonalization with overlap
     ethr =  5.47E-05,  avg # of iterations =  3.3

     total cpu time spent up to now is       16.9 secs

     total energy              =     -51.56281108 Ry
     estimated scf accuracy    <       0.00002765 Ry

     iteration #  8     ecut=    80.00 Ry     beta= 0.70
     Davidson diagonalization with overlap
     ethr =  2.13E-07,  avg # of iterations =  4.0

     total cpu time spent up to now is       17.9 secs

     total energy              =     -51.56282752 Ry
     estimated scf accuracy    <       0.00002419 Ry

     iteration #  9     ecut=    80.00 Ry     beta= 0.70
     Davidson diagonalization with overlap
     ethr =  1.86E-07,  avg # of iterations =  2.0

     total cpu time spent up to now is       18.6 secs

     total energy              =     -51.56273714 Ry
     estimated scf accuracy    <       0.00034392 Ry

     iteration # 10     ecut=    80.00 Ry     beta= 0.70
     Davidson diagonalization with overlap
     ethr =  1.86E-07,  avg # of iterations =  2.1

     total cpu time spent up to now is       19.5 secs

     total energy              =     -51.56281028 Ry
     estimated scf accuracy    <       0.00007205 Ry

     iteration # 11     ecut=    80.00 Ry     beta= 0.70
     Davidson diagonalization with overlap
     ethr =  1.86E-07,  avg # of iterations =  1.0

     total cpu time spent up to now is       20.3 secs

     total energy              =     -51.56281002 Ry
     estimated scf accuracy    <       0.00001612 Ry

     iteration # 12     ecut=    80.00 Ry     beta= 0.70
     Davidson diagonalization with overlap
     ethr =  1.24E-07,  avg # of iterations =  1.0

     total cpu time spent up to now is       21.1 secs

     total energy              =     -51.56281083 Ry
     estimated scf accuracy    <       0.00000267 Ry

     iteration # 13     ecut=    80.00 Ry     beta= 0.70
     Davidson diagonalization with overlap
     ethr =  2.05E-08,  avg # of iterations =  1.0

     total cpu time spent up to now is       21.9 secs

     total energy              =     -51.56281023 Ry
     estimated scf accuracy    <       0.00000359 Ry

     iteration # 14     ecut=    80.00 Ry     beta= 0.70
     Davidson diagonalization with overlap
     ethr =  2.05E-08,  avg # of iterations =  1.1

     total cpu time spent up to now is       22.6 secs

     total energy              =     -51.56281034 Ry
     estimated scf accuracy    <       0.00000062 Ry

     iteration # 15     ecut=    80.00 Ry     beta= 0.70
     Davidson diagonalization with overlap
     ethr =  4.79E-09,  avg # of iterations =  1.0

     total cpu time spent up to now is       23.4 secs

     total energy              =     -51.56281019 Ry
     estimated scf accuracy    <       0.00000041 Ry

     iteration # 16     ecut=    80.00 Ry     beta= 0.70
     Davidson diagonalization with overlap
     ethr =  3.19E-09,  avg # of iterations =  1.9

     total cpu time spent up to now is       24.1 secs

     total energy              =     -51.56281026 Ry
     estimated scf accuracy    <       0.00000002 Ry

     iteration # 17     ecut=    80.00 Ry     beta= 0.70
     Davidson diagonalization with overlap
     ethr =  1.83E-10,  avg # of iterations =  1.4

     total cpu time spent up to now is       24.9 secs

     End of self-consistent calculation

          k = 0.0000 0.0000 0.0000 (  3637 PWs)   bands (ev):

   -38.5589 -38.5210 -38.3423  -5.8143   2.3303   3.8648   8.1004  12.6415
    14.5873  15.2536  15.2536

          k = 0.0000 0.0000 0.0964 (  3649 PWs)   bands (ev):

   -38.5543 -38.5265 -38.3415  -5.8148   2.1832   4.3868   7.1555  13.9977
    14.5898  15.2662  15.2662

          k = 0.0000 0.0000-0.1929 (  3686 PWs)   bands (ev):

   -38.5462 -38.5354 -38.3406  -5.8153   2.0728   5.4012   5.8393  15.2791
    15.2791  15.9913  18.1807

          k = 0.0000 0.1048 0.0000 (  3647 PWs)   bands (ev):

   -38.5490 -38.5133 -38.3374  -5.5950   2.4505   4.0010   8.3428  11.1435
    13.1298  15.4632  18.0314

          k = 0.0000 0.1048 0.0964 (  3653 PWs)   bands (ev):

   -38.5445 -38.5186 -38.3366  -5.5955   2.3045   4.5242   7.3266  11.4744
    14.1773  15.4755  17.9104

          k = 0.0000 0.1048-0.1929 (  3654 PWs)   bands (ev):

   -38.5366 -38.5273 -38.3358  -5.5961   2.1945   5.5560   5.9687  11.5997
    15.9308  17.1497  18.4537

          k = 0.0000 0.2096 0.0000 (  3644 PWs)   bands (ev):

   -38.5227 -38.4932 -38.3247  -4.9409   2.7964   4.3686   8.0159   9.0682
    13.0292  15.6898  17.6314

          k = 0.0000 0.2096 0.0964 (  3644 PWs)   bands (ev):

   -38.5188 -38.4977 -38.3241  -4.9415   2.6581   4.8733   7.3772   8.8377
    13.9700  15.7155  18.2134

          k = 0.0000 0.2096-0.1929 (  3650 PWs)   bands (ev):

   -38.5109 -38.5062 -38.3235  -4.9422   2.5527   5.9923   6.0651   8.7631
    14.5423  16.4944  18.7174

          k = 0.0000 0.3144 0.0000 (  3650 PWs)   bands (ev):

   -38.4895 -38.4683 -38.3097  -3.8653   3.3108   4.2274   5.8772  10.2639
    12.1220  13.2485  16.6739

          k = 0.0000 0.3144 0.0964 (  3648 PWs)   bands (ev):

   -38.4865 -38.4715 -38.3093  -3.8662   3.2003   4.3591   6.1430   9.1898
    12.3311  14.3452  17.1356

          k = 0.0000 0.3144-0.1929 (  3640 PWs)   bands (ev):

   -38.4800 -38.4784 -38.3090  -3.8670   3.1143   4.4557   6.5819   8.2672
    12.3198  16.2257  16.5006

          k = 0.0000 0.4191 0.0000 (  3664 PWs)   bands (ev):

   -38.4618 -38.4480 -38.2982  -2.4092   2.0173   3.8431   6.3828  10.5271
    11.3328  12.1566  16.8544

          k = 0.0000 0.4191 0.0964 (  3645 PWs)   bands (ev):

   -38.4605 -38.4494 -38.2981  -2.4105   2.0189   3.8000   6.6365   9.8128
    11.2595  12.9098  15.8558

          k = 0.0000 0.4191-0.1929 (  3656 PWs)   bands (ev):

   -38.4587 -38.4512 -38.2980  -2.4118   2.0205   3.7602   6.9580   9.2064
    11.1794  14.0161  14.5808

          k = 0.0000-0.5239 0.0000 (  3658 PWs)   bands (ev):

   -38.4510 -38.4403 -38.2940  -1.0960   0.3486   4.0923   6.9595   9.6159
    10.8059  14.0093  14.4167

          k = 0.0000-0.5239 0.0964 (  3660 PWs)   bands (ev):

   -38.4508 -38.4404 -38.2940  -1.0987   0.3487   4.1000   6.9490   9.7417
    10.9736  13.4065  13.9511

          k = 0.0000-0.5239-0.1929 (  3660 PWs)   bands (ev):

   -38.4506 -38.4406 -38.2940  -1.1014   0.3487   4.1077   6.9386   9.8910
    11.1811  12.9017  13.4972

          k = 0.1048 0.1048 0.0000 (  3647 PWs)   bands (ev):

   -38.5393 -38.5058 -38.3324  -5.3756   2.5775   4.1439   8.5856  10.8567
    11.7116  15.5372  19.1043

          k = 0.1048 0.1048 0.0964 (  3645 PWs)   bands (ev):

   -38.5350 -38.5107 -38.3317  -5.3761   2.4318   4.6694   7.5098  10.8641
    12.7666  15.9156  17.4196

          k = 0.1048 0.1048-0.1929 (  3650 PWs)   bands (ev):

   -38.5271 -38.5194 -38.3310  -5.3767   2.3219   5.7159   6.1162  10.8715
    13.5271  17.1546  17.4845

          k = 0.1048 0.2096 0.0000 (  3634 PWs)   bands (ev):

   -38.5137 -38.4858 -38.3195  -4.7210   2.9434   4.5346   8.0976   9.3119
    11.9788  15.2469  15.4802

          k = 0.1048 0.2096 0.0964 (  3642 PWs)   bands (ev):

   -38.5099 -38.4901 -38.3189  -4.7216   2.8032   5.0471   7.5856   8.7876
    12.9055  14.7878  16.2315

          k = 0.1048 0.2096-0.1929 (  3638 PWs)   bands (ev):

   -38.5021 -38.4985 -38.3184  -4.7223   2.6965   6.1683   6.2840   8.6400
    13.5670  14.5250  18.0294

          k = 0.1048 0.3144 0.0000 (  3656 PWs)   bands (ev):

   -38.4813 -38.4611 -38.3040  -3.6445   3.4899   4.4407   5.9982  10.5087
    12.0856  13.1597  14.3512

          k = 0.1048 0.3144 0.0964 (  3660 PWs)   bands (ev):

   -38.4786 -38.4642 -38.3038  -3.6453   3.3744   4.5732   6.2871   9.3124
    12.3560  14.0442  14.7485

          k = 0.1048 0.3144-0.1929 (  3650 PWs)   bands (ev):

   -38.4726 -38.4704 -38.3035  -3.6460   3.2847   4.6677   6.7863   8.3113
    12.3054  14.5176  16.2697

          k = 0.1048 0.4191 0.0000 (  3657 PWs)   bands (ev):

   -38.4545 -38.4411 -38.2922  -2.1855   2.2207   4.0609   6.5634  10.6944
    11.3346  12.3330  15.2458

          k = 0.1048 0.4191 0.0964 (  3660 PWs)   bands (ev):

   -38.4532 -38.4424 -38.2921  -2.1867   2.2225   4.0114   6.8341   9.9729
    11.2780  12.9729  15.6229

          k = 0.1048 0.4191-0.1929 (  3644 PWs)   bands (ev):

   -38.4517 -38.4441 -38.2920  -2.1879   2.2244   3.9662   7.1808   9.3543
    11.1652  14.0619  14.5646

          k = 0.1048-0.5239 0.0000 (  3656 PWs)   bands (ev):

   -38.4440 -38.4334 -38.2878  -0.8577   0.5384   4.3317   7.1744   9.7630
    10.7499  14.2418  14.6448

          k = 0.1048-0.5239 0.0964 (  3650 PWs)   bands (ev):

   -38.4438 -38.4336 -38.2878  -0.8600   0.5385   4.3351   7.1589   9.9212
    10.9457  13.5133  14.0028

          k = 0.1048-0.5239-0.1929 (  3648 PWs)   bands (ev):

   -38.4436 -38.4338 -38.2878  -0.8624   0.5386   4.3385   7.1438  10.1155
    11.1967  12.9277  13.4307

          k = 0.2096 0.2096 0.0000 (  3648 PWs)   bands (ev):

   -38.4899 -38.4665 -38.3059  -4.0651   3.3688   5.0052   7.6930  10.0413
    10.2683  14.5053  15.9968

          k = 0.2096 0.2096 0.0964 (  3655 PWs)   bands (ev):

   -38.4866 -38.4701 -38.3055  -4.0657   3.2274   5.5292   7.7017   8.3938
    11.4833  14.0522  15.9757

          k = 0.2096 0.2096-0.1929 (  3638 PWs)   bands (ev):

   -38.4788 -38.4783 -38.3051  -4.0664   3.1194   6.6725   6.8530   7.7106
    11.9057  13.7716  16.9761

          k = 0.2096 0.3144 0.0000 (  3654 PWs)   bands (ev):

   -38.4599 -38.4424 -38.2894  -2.9861   4.0127   5.0540   6.2506  10.6128
    11.2426  12.8134  13.4967

          k = 0.2096 0.3144 0.0964 (  3654 PWs)   bands (ev):

   -38.4576 -38.4449 -38.2892  -2.9868   3.8849   5.1721   6.6167   9.3413
    11.8590  12.3123  14.7390

          k = 0.2096 0.3144-0.1929 (  3658 PWs)   bands (ev):

   -38.4533 -38.4494 -38.2890  -2.9874   3.7860   5.2459   7.3857   8.1386
    12.0651  12.0760  16.3159

          k = 0.2096 0.4191 0.0000 (  3657 PWs)   bands (ev):

   -38.4352 -38.4229 -38.2765  -1.5204   2.8104   4.7066   7.0726  11.0710
    11.2217  12.3543  12.9808

          k = 0.2096 0.4191 0.0964 (  3660 PWs)   bands (ev):

   -38.4342 -38.4239 -38.2764  -1.5212   2.8132   4.6370   7.3982  10.2365
    11.2705  12.5854  13.4480

          k = 0.2096 0.4191-0.1929 (  3658 PWs)   bands (ev):

   -38.4331 -38.4252 -38.2764  -1.5219   2.8160   4.5752   7.8406   9.5759
    11.0639  12.9436  14.1690

          k = 0.2096-0.5239 0.0000 (  3668 PWs)   bands (ev):

   -38.4256 -38.4155 -38.2716  -0.1496   1.0970   5.0499   7.8006  10.1573
    10.5830  13.6981  14.5545

          k = 0.2096-0.5239 0.0964 (  3656 PWs)   bands (ev):

   -38.4255 -38.4156 -38.2716  -0.1509   1.0975   5.0393   7.7605  10.3950
    10.8612  13.4467  13.5833

          k = 0.2096-0.5239-0.1929 (  3648 PWs)   bands (ev):

   -38.4253 -38.4158 -38.2716  -0.1521   1.0979   5.0288   7.7231  10.7116
    11.2637  12.8338  12.9563

          k = 0.3144 0.3144 0.0000 (  3678 PWs)   bands (ev):

   -38.4331 -38.4192 -38.2715  -1.9042   4.8224   5.4291   6.4116   9.1631
    12.0376  12.4648  13.5322

          k = 0.3144 0.3144 0.0964 (  3654 PWs)   bands (ev):

   -38.4316 -38.4209 -38.2714  -1.9046   4.6865   5.4390   6.8486   8.8703
    11.5746  11.8532  14.5252

          k = 0.3144 0.3144-0.1929 (  3648 PWs)   bands (ev):

   -38.4294 -38.4232 -38.2712  -1.9050   4.5808   5.4490   7.5048   8.3003
    11.2885  11.4644  15.8967

          k = 0.3144 0.4191 0.0000 (  3668 PWs)   bands (ev):

   -38.4113 -38.4004 -38.2571  -0.4339   3.6673   5.7455   7.6476   9.6383
    10.9509  11.9232  14.1547

          k = 0.3144 0.4191 0.0964 (  3661 PWs)   bands (ev):

   -38.4107 -38.4010 -38.2570  -0.4338   3.6728   5.6411   7.9997   9.4221
    10.6940  12.4466  13.1143

          k = 0.3144 0.4191-0.1929 (  3664 PWs)   bands (ev):

   -38.4100 -38.4018 -38.2570  -0.4337   3.6784   5.5532   8.6005   8.9011
    10.7297  12.0892  13.2006

          k = 0.3144-0.5239 0.0000 (  3656 PWs)   bands (ev):

   -38.4029 -38.3932 -38.2516   1.0013   1.9789   6.2460   8.7169  10.2232
    10.3435  11.1494  11.8710

          k = 0.3144-0.5239 0.0964 (  3660 PWs)   bands (ev):

   -38.4027 -38.3934 -38.2516   1.0020   1.9807   6.2076   8.6046  10.2420
    10.6361  11.5509  11.7626

          k = 0.3144-0.5239-0.1929 (  3684 PWs)   bands (ev):

   -38.4026 -38.3935 -38.2516   1.0027   1.9825   6.1707   8.5109  10.2470
    11.0318  11.5302  12.8059

          k = 0.4191 0.4191 0.0000 (  3674 PWs)   bands (ev):

   -38.3918 -38.3821 -38.2414   1.0255   4.0711   7.0492   7.2647   9.4150
    10.5432  11.0517  12.0445

          k = 0.4191 0.4191 0.0964 (  3668 PWs)   bands (ev):

   -38.3916 -38.3824 -38.2413   1.0271   4.0819   6.9054   7.3026   9.8178
    10.0763  10.9636  13.0411

          k = 0.4191 0.4191-0.1929 (  3672 PWs)   bands (ev):

   -38.3913 -38.3827 -38.2413   1.0287   4.0927   6.7980   7.3182   9.7877
    10.5116  10.6373  13.1643

          k = 0.4191-0.5239 0.0000 (  3668 PWs)   bands (ev):

   -38.3844 -38.3751 -38.2353   2.4998   3.0222   7.8262   7.9186   8.8024
    10.1292  10.8937  11.3608

          k = 0.4191-0.5239 0.0964 (  3670 PWs)   bands (ev):

   -38.3842 -38.3753 -38.2353   2.5043   3.0282   7.7848   7.8514   8.8592
     9.5520  11.5950  11.7307

          k = 0.4191-0.5239-0.1929 (  3672 PWs)   bands (ev):

   -38.3841 -38.3754 -38.2353   2.5088   3.0342   7.7350   7.7992   9.0336
     9.1106  11.8413  12.4148

          k =-0.5239-0.5239 0.0000 (  3668 PWs)   bands (ev):

   -38.3773 -38.3682 -38.2291   3.6187   3.6187   6.3193  10.0435  10.0435
    10.0846  11.5478  11.5478

          k =-0.5239-0.5239 0.0964 (  3688 PWs)   bands (ev):

   -38.3772 -38.3684 -38.2291   3.6297   3.6297   6.3042   8.0682   9.5756
     9.5756  10.1563  12.5452

          k =-0.5239-0.5239-0.1929 (  3656 PWs)   bands (ev):

   -38.3770 -38.3685 -38.2291   3.6409   3.6409   6.2893   8.0761   9.2862
     9.2862  10.2301  13.9086

     the Fermi energy is     7.3462 ev

!    total energy              =     -51.56281027 Ry
     estimated scf accuracy    <          8.6E-11 Ry
     smearing contrib. (-TS)   =      -0.00022819 Ry
     internal energy E=F+TS    =     -51.56258208 Ry

     The total energy is F=E-TS. E is the sum of the following terms:
     one-electron contribution =     -18.55268331 Ry
     hartree contribution      =       9.94803914 Ry
     xc contribution           =     -13.75672407 Ry
     ewald contribution        =     -29.20121384 Ry

     convergence has been achieved in  17 iterations

     Forces acting on atoms (cartesian axes, Ry/au):

     atom    1 type  1   force =     0.00000000    0.00000000   -0.07013636
     atom    2 type  1   force =     0.00000000    0.00000000    0.07013636
     atom    3 type  1   force =     0.00000000    0.00000000    0.00000000
     atom    4 type  2   force =     0.00000000    0.00000000    0.00000000
     The non-local contrib.  to forces
     atom    1 type  1   force =     0.00000000    0.00000000    0.00576111
     atom    2 type  1   force =     0.00000000    0.00000000   -0.00576111
     atom    3 type  1   force =     0.00000000    0.00000000    0.00000000
     atom    4 type  2   force =     0.00000000    0.00000000    0.00000000
     The ionic contribution  to forces
     atom    1 type  1   force =    -0.00000000   -0.00000000   -1.98318762
     atom    2 type  1   force =     0.00000000    0.00000000    1.98318762
     atom    3 type  1   force =     0.00000000   -0.00000000   -0.00000000
     atom    4 type  2   force =     0.00000000   -0.00000000   -0.00000000
     The local contribution  to forces
     atom    1 type  1   force =     0.00000000    0.00000000    1.90727783
     atom    2 type  1   force =     0.00000000    0.00000000   -1.90727783
     atom    3 type  1   force =    -0.00000000    0.00000000   -0.00000000
     atom    4 type  2   force =    -0.00000000   -0.00000000   -0.00000000
     The core correction contribution to forces
     atom    1 type  1   force =     0.00000000    0.00000000    0.00000000
     atom    2 type  1   force =     0.00000000    0.00000000    0.00000000
     atom    3 type  1   force =     0.00000000    0.00000000    0.00000000
     atom    4 type  2   force =    -0.00000000   -0.00000000   -0.00000000
     The Hubbard contrib.    to forces
     atom    1 type  1   force =     0.00000000    0.00000000    0.00000000
     atom    2 type  1   force =     0.00000000    0.00000000    0.00000000
     atom    3 type  1   force =     0.00000000    0.00000000    0.00000000
     atom    4 type  2   force =     0.00000000    0.00000000    0.00000000
     The SCF correction term to forces
     atom    1 type  1   force =     0.00000000   -0.00000000    0.00001232
     atom    2 type  1   force =    -0.00000000   -0.00000000   -0.00001232
     atom    3 type  1   force =     0.00000000   -0.00000000   -0.00000000
     atom    4 type  2   force =    -0.00000000   -0.00000000   -0.00000000

     Total force =     0.099188     Total SCF correction =     0.000017


     Computing stress (Cartesian axis) and pressure

          total   stress  (Ry/bohr**3)                   (kbar)     P=      400.83
   0.00275259   0.00000000   0.00000000          404.92        0.00        0.00
   0.00000000   0.00275259   0.00000000            0.00      404.92        0.00
   0.00000000   0.00000000   0.00266915            0.00        0.00      392.65

     Energy error            =      5.8E-02 Ry
     Gradient error          =      7.0E-02 Ry/Bohr
     Cell gradient error     =      1.1E+02 kbar

     number of scf cycles    =   2
     number of bfgs steps    =   1

     enthalpy           old  =     -50.6117679729 Ry
     enthalpy           new  =     -50.6701409628 Ry

     CASE: enthalpy          _new < enthalpy          _old

     new trust radius        =       0.1188077667 bohr
ibrav =      6
 celldm(1) =      4.43778212
 celldm(3) =      2.70642096
Input lattice vectors:
     0.92276072     0.00000000     0.00000000
     0.00000000     0.92276072     0.00000000
     0.00000000     0.00000000     2.49737897
New lattice vectors in INITIAL alat:
     0.92276072     0.00000000     0.00000000
     0.00000000     0.92276072     0.00000000
     0.00000000     0.00000000     2.49737897
New lattice vectors in NEW alat (for information only):
     1.00000000     0.00000000     0.00000000
     0.00000000     1.00000000     0.00000000
     0.00000000     0.00000000     2.70642096
Discrepancy in bohr =     0.000000    0.000000    0.000000
     new conv_thr            =       0.0000000070 Ry

     new unit-cell volume =    236.53384 a.u.^3 (    35.05070 Ang^3 )
     density =      2.31706 g/cm^3

CELL_PARAMETERS (alat=  4.80924470)
   0.922760724   0.000000000   0.000000000
   0.000000000   0.922760724   0.000000000
   0.000000000   0.000000000   2.497378966

ATOMIC_POSITIONS (crystal)
Li            0.0000000000        0.0000000000        0.2723886129
Li            0.0000000000        0.0000000000        0.7276113871
Li            0.5000000000        0.5000000000        0.0000000000
Si            0.5000000000        0.5000000000        0.5000000000



     Writing config-only to output data dir ./output/LiSi.save/
     NEW-OLD atomic charge density approx. for the potential
     extrapolated charge   11.56719, renormalised to   13.00000

     total cpu time spent up to now is       26.4 secs

     Self-consistent Calculation

     iteration #  1     ecut=    80.00 Ry     beta= 0.70
     Davidson diagonalization with overlap
     ethr =  1.00E-06,  avg # of iterations =  8.4

     total cpu time spent up to now is       28.0 secs

     total energy              =     -51.21508017 Ry
     estimated scf accuracy    <       0.27580072 Ry

     iteration #  2     ecut=    80.00 Ry     beta= 0.70
     Davidson diagonalization with overlap
     ethr =  2.12E-03,  avg # of iterations =  3.5

     total cpu time spent up to now is       28.8 secs

     total energy              =     -51.16808097 Ry
     estimated scf accuracy    <       3.62811806 Ry

     iteration #  3     ecut=    80.00 Ry     beta= 0.70
     Davidson diagonalization with overlap
     ethr =  2.12E-03,  avg # of iterations =  2.3

     total cpu time spent up to now is       29.5 secs

     total energy              =     -51.49561558 Ry
     estimated scf accuracy    <       0.10493045 Ry

     iteration #  4     ecut=    80.00 Ry     beta= 0.70
     Davidson diagonalization with overlap
     ethr =  8.07E-04,  avg # of iterations =  1.5

     total cpu time spent up to now is       30.2 secs

     total energy              =     -51.49174341 Ry
     estimated scf accuracy    <       0.03014171 Ry

     iteration #  5     ecut=    80.00 Ry     beta= 0.70
     Davidson diagonalization with overlap
     ethr =  2.32E-04,  avg # of iterations =  2.5

     total cpu time spent up to now is       30.9 secs

     total energy              =     -51.49290643 Ry
     estimated scf accuracy    <       0.00324898 Ry

     iteration #  6     ecut=    80.00 Ry     beta= 0.70
     Davidson diagonalization with overlap
     ethr =  2.50E-05,  avg # of iterations =  3.5

     total cpu time spent up to now is       31.6 secs

     total energy              =     -51.49330146 Ry
     estimated scf accuracy    <       0.00003557 Ry

     iteration #  7     ecut=    80.00 Ry     beta= 0.70
     Davidson diagonalization with overlap
     ethr =  2.74E-07,  avg # of iterations =  3.1

     total cpu time spent up to now is       32.4 secs

     total energy              =     -51.49330786 Ry
     estimated scf accuracy    <       0.00000066 Ry

     iteration #  8     ecut=    80.00 Ry     beta= 0.70
     Davidson diagonalization with overlap
     ethr =  5.07E-09,  avg # of iterations =  2.0

     total cpu time spent up to now is       33.0 secs

     total energy              =     -51.49330780 Ry
     estimated scf accuracy    <       0.00000052 Ry

     iteration #  9     ecut=    80.00 Ry     beta= 0.70
     Davidson diagonalization with overlap
     ethr =  4.01E-09,  avg # of iterations =  1.3

     total cpu time spent up to now is       33.6 secs

     End of self-consistent calculation

          k = 0.0000 0.0000 0.0000 (  3637 PWs)   bands (ev):

   -37.6183 -37.5695 -37.2099  -5.3994   3.0663   4.8609   9.1901  13.9355
    15.8662  17.2523  17.2523

          k = 0.0000 0.0000 0.1001 (  3649 PWs)   bands (ev):

   -37.6126 -37.5758 -37.2092  -5.4002   2.9549   5.3515   8.2040  15.3620
    15.8690  17.2718  17.2718

          k = 0.0000 0.0000-0.2002 (  3686 PWs)   bands (ev):

   -37.6038 -37.5853 -37.2086  -5.4010   2.8662   6.3003   6.9061  17.2918
    17.2918  17.3415  20.2315

          k = 0.0000 0.1084 0.0000 (  3647 PWs)   bands (ev):

   -37.6046 -37.5590 -37.2032  -5.1648   3.1893   4.9866   9.4424  12.4992
    14.4627  17.4726  19.9133

          k = 0.0000 0.1084 0.1001 (  3653 PWs)   bands (ev):

   -37.5992 -37.5650 -37.2026  -5.1656   3.0770   5.4821   8.3740  12.8975
    15.5257  17.4916  19.6266

          k = 0.0000 0.1084-0.2002 (  3654 PWs)   bands (ev):

   -37.5904 -37.5743 -37.2020  -5.1665   2.9877   6.4589   7.0213  13.0437
    17.3150  18.7152  20.2693

          k = 0.0000 0.2167 0.0000 (  3644 PWs)   bands (ev):

   -37.5683 -37.5313 -37.1860  -4.4650   3.5427   5.3178   9.2484  10.1930
    14.2830  17.1543  19.2842

          k = 0.0000 0.2167 0.1001 (  3644 PWs)   bands (ev):

   -37.5635 -37.5365 -37.1856  -4.4660   3.4325   5.8052   8.4304  10.1274
    15.2108  17.1891  19.9222

          k = 0.0000 0.2167-0.2002 (  3650 PWs)   bands (ev):

   -37.5551 -37.5454 -37.1851  -4.4671   3.3449   6.9067   7.0518  10.1111
    15.7897  17.9020  20.5985

          k = 0.0000 0.3251 0.0000 (  3650 PWs)   bands (ev):

   -37.5226 -37.4970 -37.1653  -3.3130   4.0672   5.1159   6.9701  11.3964
    13.2600  14.6120  18.3668

          k = 0.0000 0.3251 0.1001 (  3648 PWs)   bands (ev):

   -37.5189 -37.5009 -37.1651  -3.3145   3.9774   5.2636   7.1777  10.3487
    13.4010  15.8215  18.7879

          k = 0.0000 0.3251-0.2002 (  3640 PWs)   bands (ev):

   -37.5106 -37.5095 -37.1648  -3.3160   3.9055   5.3856   7.5133   9.4796
    13.3873  17.8457  18.0489

          k = 0.0000 0.4335 0.0000 (  3664 PWs)   bands (ev):

   -37.4847 -37.4691 -37.1491  -1.7422   2.8205   4.6083   7.3499  11.6123
    12.2325  13.7393  18.5399

          k = 0.0000 0.4335 0.1001 (  3645 PWs)   bands (ev):

   -37.4830 -37.4710 -37.1491  -1.7445   2.8221   4.5790   7.5913  10.9171
    12.1766  14.4836  17.5269

          k = 0.0000 0.4335-0.2002 (  3656 PWs)   bands (ev):

   -37.4803 -37.4737 -37.1490  -1.7467   2.8238   4.5517   7.8979  10.3026
    12.1247  15.5415  16.2976

          k = 0.0000-0.5419 0.0000 (  3658 PWs)   bands (ev):

   -37.4701 -37.4585 -37.1431  -0.2185   0.9327   4.8609   7.8816  10.7046
    11.8044  15.4744  16.0606

          k = 0.0000-0.5419 0.1001 (  3660 PWs)   bands (ev):

   -37.4696 -37.4589 -37.1431  -0.2234   0.9330   4.8803   7.8771  10.7871
    11.9104  14.9178  15.6709

          k = 0.0000-0.5419-0.2002 (  3660 PWs)   bands (ev):

   -37.4691 -37.4594 -37.1431  -0.2283   0.9333   4.8997   7.8727  10.8811
    12.0297  14.4603  15.3110

          k = 0.1084 0.1084 0.0000 (  3647 PWs)   bands (ev):

   -37.5912 -37.5485 -37.1964  -4.9301   3.3197   5.1210   9.6960  12.2207
    13.0382  17.4720  19.4421

          k = 0.1084 0.1084 0.1001 (  3645 PWs)   bands (ev):

   -37.5860 -37.5543 -37.1959  -4.9310   3.2059   5.6224   8.5593  12.2302
    14.2731  17.7551  18.9398

          k = 0.1084 0.1084-0.2002 (  3650 PWs)   bands (ev):

   -37.5774 -37.5634 -37.1953  -4.9320   3.1155   6.6234   7.1596  12.2399
    15.2749  18.6395  19.1516

          k = 0.1084 0.2167 0.0000 (  3634 PWs)   bands (ev):

   -37.5559 -37.5212 -37.1788  -4.2302   3.6955   5.4815   9.3307  10.4509
    13.3015  16.9182  16.9953

          k = 0.1084 0.2167 0.1001 (  3642 PWs)   bands (ev):

   -37.5514 -37.5262 -37.1784  -4.2313   3.5817   5.9798   8.6569  10.0420
    14.3823  16.2132  17.9333

          k = 0.1084 0.2167-0.2002 (  3638 PWs)   bands (ev):

   -37.5430 -37.5349 -37.1780  -4.2324   3.4915   7.0897   7.2767   9.9445
    15.3174  15.7850  19.7351

          k = 0.1084 0.3251 0.0000 (  3656 PWs)   bands (ev):

   -37.5115 -37.4873 -37.1576  -3.0778   4.2558   5.3416   7.0887  11.6588
    13.2473  14.5048  16.0244

          k = 0.1084 0.3251 0.1001 (  3660 PWs)   bands (ev):

   -37.5081 -37.4910 -37.1574  -3.0792   4.1592   5.4941   7.3247  10.4634
    13.4371  15.6291  16.3815

          k = 0.1084 0.3251-0.2002 (  3650 PWs)   bands (ev):

   -37.4997 -37.4995 -37.1572  -3.0807   4.0823   5.6164   7.7284   9.4991
    13.3846  16.3246  17.8843

          k = 0.1084 0.4335 0.0000 (  3657 PWs)   bands (ev):

   -37.4748 -37.4597 -37.1409  -1.5053   3.0411   4.8400   7.5336  11.7831
    12.2841  13.8717  16.9783

          k = 0.1084 0.4335 0.1001 (  3660 PWs)   bands (ev):

   -37.4732 -37.4615 -37.1409  -1.5074   3.0432   4.8028   7.7960  11.0855
    12.2090  14.5242  17.4216

          k = 0.1084 0.4335-0.2002 (  3644 PWs)   bands (ev):

   -37.4707 -37.4640 -37.1408  -1.5095   3.0453   4.7683   8.1334  10.4530
    12.1236  15.5755  16.2185

          k = 0.1084-0.5419 0.0000 (  3656 PWs)   bands (ev):

   -37.4606 -37.4492 -37.1347   0.0337   1.1387   5.1165   8.1047  10.8536
    11.7664  15.7227  16.2589

          k = 0.1084-0.5419 0.1001 (  3650 PWs)   bands (ev):

   -37.4602 -37.4496 -37.1347   0.0294   1.1390   5.1302   8.0964  10.9744
    11.9038  15.0196  15.6638

          k = 0.1084-0.5419-0.2002 (  3648 PWs)   bands (ev):

   -37.4597 -37.4501 -37.1347   0.0251   1.1392   5.1438   8.0884  11.1164
    12.0642  14.4691  15.1688

          k = 0.2167 0.2167 0.0000 (  3648 PWs)   bands (ev):

   -37.5233 -37.4947 -37.1602  -3.5297   4.1377   5.9411   8.8888  11.2194
    11.6251  15.8538  17.3559

          k = 0.2167 0.2167 0.1001 (  3655 PWs)   bands (ev):

   -37.5193 -37.4990 -37.1599  -3.5309   4.0173   6.4597   8.9005   9.4602
    13.0639  15.3247  17.5495

          k = 0.2167 0.2167-0.2002 (  3638 PWs)   bands (ev):

   -37.5111 -37.5074 -37.1597  -3.5321   3.9224   7.6150   7.8445   8.9124
    13.6497  15.0070  18.4026

          k = 0.2167 0.3251 0.0000 (  3654 PWs)   bands (ev):

   -37.4823 -37.4618 -37.1375  -2.3767   4.8064   5.9978   7.3132  11.9865
    12.4449  14.0957  14.8209

          k = 0.2167 0.3251 0.1001 (  3654 PWs)   bands (ev):

   -37.4795 -37.4649 -37.1373  -2.3780   4.6919   6.1493   7.6416  10.4754
    13.2869  13.6245  16.1595

          k = 0.2167 0.3251-0.2002 (  3658 PWs)   bands (ev):

   -37.4733 -37.4712 -37.1372  -2.3793   4.6017   6.2547   8.3598   9.2317
    13.1718  13.7933  17.8969

          k = 0.2167 0.4335 0.0000 (  3657 PWs)   bands (ev):

   -37.4488 -37.4351 -37.1194  -0.8012   3.6818   5.5267   8.0451  12.1870
    12.2752  13.9298  14.4281

          k = 0.2167 0.4335 0.1001 (  3660 PWs)   bands (ev):

   -37.4474 -37.4365 -37.1194  -0.8028   3.6855   5.4642   8.3757  11.3660
    12.2669  14.0764  15.1129

          k = 0.2167 0.4335-0.2002 (  3658 PWs)   bands (ev):

   -37.4456 -37.4384 -37.1193  -0.8044   3.6893   5.4080   8.8294  10.6741
    12.0551  14.5962  15.6416

          k = 0.2167-0.5419 0.0000 (  3668 PWs)   bands (ev):

   -37.4358 -37.4249 -37.1126   0.7811   1.7471   5.8829   8.7513  11.2489
    11.6286  15.5611  16.4624

          k = 0.2167-0.5419 0.1001 (  3656 PWs)   bands (ev):

   -37.4354 -37.4253 -37.1126   0.7786   1.7475   5.8782   8.7205  11.4674
    11.8688  15.0001  15.0351

          k = 0.2167-0.5419-0.2002 (  3648 PWs)   bands (ev):

   -37.4349 -37.4257 -37.1126   0.7760   1.7480   5.8735   8.6914  11.7461
    12.1883  14.2895  14.4419

          k = 0.3251 0.3251 0.0000 (  3678 PWs)   bands (ev):

   -37.4460 -37.4302 -37.1127  -1.2242   5.6588   6.4984   7.3241  10.5554
    13.2081  13.7672  14.7278

          k = 0.3251 0.3251 0.1001 (  3654 PWs)   bands (ev):

   -37.4440 -37.4323 -37.1126  -1.2253   5.5271   6.5120   7.7866  10.1036
    12.6696  13.3576  15.8493

          k = 0.3251 0.3251-0.2002 (  3648 PWs)   bands (ev):

   -37.4408 -37.4356 -37.1126  -1.2263   5.4244   6.5258   8.5291   9.3260
    12.3457  13.1157  17.4324

          k = 0.3251 0.4335 0.0000 (  3668 PWs)   bands (ev):

   -37.4164 -37.4045 -37.0927   0.3481   4.6164   6.6310   8.6105  11.0776
    12.0392  13.0567  15.0838

          k = 0.3251 0.4335 0.1001 (  3661 PWs)   bands (ev):

   -37.4155 -37.4055 -37.0927   0.3477   4.6242   6.5229   9.0012  10.7090
    11.7856  13.6596  14.7570

          k = 0.3251 0.4335-0.2002 (  3664 PWs)   bands (ev):

   -37.4143 -37.4066 -37.0927   0.3473   4.6320   6.4322   9.7640   9.9382
    11.7555  13.6696  14.6572

          k = 0.3251-0.5419 0.0000 (  3656 PWs)   bands (ev):

   -37.4050 -37.3947 -37.0851   1.9870   2.7154   7.1594   9.6763  11.3945
    11.5262  12.6919  13.1082

          k = 0.3251-0.5419 0.1001 (  3660 PWs)   bands (ev):

   -37.4046 -37.3951 -37.0851   1.9877   2.7174   7.1174   9.5728  11.6267
    11.6977  12.9365  13.0300

          k = 0.3251-0.5419-0.2002 (  3684 PWs)   bands (ev):

   -37.4042 -37.3955 -37.0851   1.9884   2.7193   7.0774   9.4848  11.6897
    12.1757  12.5653  14.1969

          k = 0.4335 0.4335 0.0000 (  3674 PWs)   bands (ev):

   -37.3901 -37.3797 -37.0711   1.8921   5.0643   8.0162   8.4195  10.6968
    11.6069  12.3112  13.1409

          k = 0.4335 0.4335 0.1001 (  3668 PWs)   bands (ev):

   -37.3895 -37.3802 -37.0711   1.8940   5.0791   7.8505   8.5013  11.0650
    11.0869  12.2292  14.2649

          k = 0.4335 0.4335-0.2002 (  3672 PWs)   bands (ev):

   -37.3890 -37.3808 -37.0711   1.8959   5.0943   7.7300   8.5455  10.7381
    11.6956  12.0025  14.5577

          k = 0.4335-0.5419 0.0000 (  3668 PWs)   bands (ev):

   -37.3800 -37.3702 -37.0628   3.5224   3.8864   8.9432   9.4597   9.6758
    11.1661  12.0167  12.4598

          k = 0.4335-0.5419 0.1001 (  3670 PWs)   bands (ev):

   -37.3796 -37.3705 -37.0628   3.5291   3.8940   8.8190   9.4360   9.7458
    10.5381  12.7912  12.9084

          k = 0.4335-0.5419-0.2002 (  3672 PWs)   bands (ev):

   -37.3793 -37.3709 -37.0628   3.5359   3.9017   8.7110   9.4068   9.9496
    10.0464  13.1517  13.6281

          k =-0.5419-0.5419 0.0000 (  3668 PWs)   bands (ev):

   -37.3704 -37.3608 -37.0543   4.5865   4.5865   8.0062   8.8330  11.0716
    11.0716  12.6111  12.6111

          k =-0.5419-0.5419 0.1001 (  3688 PWs)   bands (ev):

   -37.3701 -37.3611 -37.0543   4.6018   4.6018   7.9801   8.8432  10.5289
    10.5289  11.5098  13.7355

          k =-0.5419-0.5419-0.2002 (  3656 PWs)   bands (ev):

   -37.3697 -37.3615 -37.0543   4.6174   4.6174   7.9549   8.8535  10.2010
    10.2010  11.6109  15.3045

     the Fermi energy is     8.3813 ev

!    total energy              =     -51.49330788 Ry
     estimated scf accuracy    <          1.6E-09 Ry
     smearing contrib. (-TS)   =      -0.00009203 Ry
     internal energy E=F+TS    =     -51.49321585 Ry

     The total energy is F=E-TS. E is the sum of the following terms:
     one-electron contribution =     -16.27087456 Ry
     hartree contribution      =       9.33161370 Ry
     xc contribution           =     -13.88538411 Ry
     ewald contribution        =     -30.66857089 Ry

     convergence has been achieved in   9 iterations

     Forces acting on atoms (cartesian axes, Ry/au):

     atom    1 type  1   force =     0.00000000    0.00000000   -0.06976823
     atom    2 type  1   force =     0.00000000    0.00000000    0.06976823
     atom    3 type  1   force =     0.00000000    0.00000000    0.00000000
     atom    4 type  2   force =     0.00000000    0.00000000    0.00000000
     The non-local contrib.  to forces
     atom    1 type  1   force =     0.00000000    0.00000000    0.01931811
     atom    2 type  1   force =     0.00000000    0.00000000   -0.01931811
     atom    3 type  1   force =     0.00000000    0.00000000    0.00000000
     atom    4 type  2   force =     0.00000000    0.00000000    0.00000000
     The ionic contribution  to forces
     atom    1 type  1   force =    -0.00000000   -0.00000000   -1.76272098
     atom    2 type  1   force =    -0.00000000   -0.00000000    1.76272098
     atom    3 type  1   force =     0.00000000   -0.00000000   -0.00000000
     atom    4 type  2   force =     0.00000000    0.00000000   -0.00000000
     The local contribution  to forces
     atom    1 type  1   force =     0.00000000    0.00000000    1.67368645
     atom    2 type  1   force =     0.00000000    0.00000000   -1.67368645
     atom    3 type  1   force =     0.00000000    0.00000000    0.00000000
     atom    4 type  2   force =    -0.00000000   -0.00000000   -0.00000000
     The core correction contribution to forces
     atom    1 type  1   force =     0.00000000    0.00000000    0.00000000
     atom    2 type  1   force =     0.00000000    0.00000000    0.00000000
     atom    3 type  1   force =     0.00000000    0.00000000    0.00000000
     atom    4 type  2   force =    -0.00000000   -0.00000000   -0.00000000
     The Hubbard contrib.    to forces
     atom    1 type  1   force =     0.00000000    0.00000000    0.00000000
     atom    2 type  1   force =     0.00000000    0.00000000    0.00000000
     atom    3 type  1   force =     0.00000000    0.00000000    0.00000000
     atom    4 type  2   force =     0.00000000    0.00000000    0.00000000
     The SCF correction term to forces
     atom    1 type  1   force =     0.00000000   -0.00000000   -0.00005181
     atom    2 type  1   force =     0.00000000    0.00000000    0.00005181
     atom    3 type  1   force =    -0.00000000    0.00000000    0.00000000
     atom    4 type  2   force =    -0.00000000   -0.00000000    0.00000000

     Total force =     0.098667     Total SCF correction =     0.000073


     Computing stress (Cartesian axis) and pressure

          total   stress  (Ry/bohr**3)                   (kbar)     P=      571.28
   0.00400443   0.00000000   0.00000000          589.07        0.00        0.00
   0.00000000   0.00400443   0.00000000            0.00      589.07        0.00
   0.00000000   0.00000000   0.00364154            0.00        0.00      535.69

     Energy error            =      1.9E-02 Ry
     Gradient error          =      7.0E-02 Ry/Bohr
     Cell gradient error     =      8.9E+01 kbar

     number of scf cycles    =   3
     number of bfgs steps    =   2

     enthalpy           old  =     -50.6701409628 Ry
     enthalpy           new  =     -50.6893457117 Ry

     CASE: enthalpy          _new < enthalpy          _old

     new trust radius        =       0.0957608227 bohr
ibrav =      6
 celldm(1) =      4.43725832
 celldm(3) =      2.67882209
Input lattice vectors:
     0.92265181     0.00000000     0.00000000
     0.00000000     0.92265181     0.00000000
     0.00000000     0.00000000     2.47162005
New lattice vectors in INITIAL alat:
     0.92265181     0.00000000     0.00000000
     0.00000000     0.92265181     0.00000000
     0.00000000     0.00000000     2.47162005
New lattice vectors in NEW alat (for information only):
     1.00000000     0.00000000     0.00000000
     0.00000000     1.00000000     0.00000000
     0.00000000     0.00000000     2.67882209
Discrepancy in bohr =     0.000000    0.000000    0.000000
     new conv_thr            =       0.0000000070 Ry

     new unit-cell volume =    234.03888 a.u.^3 (    34.68098 Ang^3 )
     density =      2.34176 g/cm^3

CELL_PARAMETERS (alat=  4.80924470)
   0.922651809   0.000000000   0.000000000
   0.000000000   0.922651809   0.000000000
   0.000000000   0.000000000   2.471620051

ATOMIC_POSITIONS (crystal)
Li            0.0000000000        0.0000000000        0.2644155251
Li            0.0000000000        0.0000000000        0.7355844749
Li            0.5000000000        0.5000000000        0.0000000000
Si            0.5000000000        0.5000000000        0.5000000000



     Writing config-only to output data dir ./output/LiSi.save/
     NEW-OLD atomic charge density approx. for the potential
     extrapolated charge   12.86157, renormalised to   13.00000

     total cpu time spent up to now is       35.1 secs

     Self-consistent Calculation

     iteration #  1     ecut=    80.00 Ry     beta= 0.70
     Davidson diagonalization with overlap
     ethr =  1.00E-06,  avg # of iterations =  6.1

     total cpu time spent up to now is       36.3 secs

     total energy              =     -51.49406462 Ry
     estimated scf accuracy    <       0.00334417 Ry

     iteration #  2     ecut=    80.00 Ry     beta= 0.70
     Davidson diagonalization with overlap
     ethr =  2.57E-05,  avg # of iterations =  2.9

     total cpu time spent up to now is       37.0 secs

     total energy              =     -51.49233388 Ry
     estimated scf accuracy    <       0.01770364 Ry

     iteration #  3     ecut=    80.00 Ry     beta= 0.70
     Davidson diagonalization with overlap
     ethr =  2.57E-05,  avg # of iterations =  2.3

     total cpu time spent up to now is       37.7 secs

     total energy              =     -51.49585288 Ry
     estimated scf accuracy    <       0.00063024 Ry

     iteration #  4     ecut=    80.00 Ry     beta= 0.70
     Davidson diagonalization with overlap
     ethr =  4.85E-06,  avg # of iterations =  1.1

     total cpu time spent up to now is       38.3 secs

     total energy              =     -51.49582400 Ry
     estimated scf accuracy    <       0.00015307 Ry

     iteration #  5     ecut=    80.00 Ry     beta= 0.70
     Davidson diagonalization with overlap
     ethr =  1.18E-06,  avg # of iterations =  1.5

     total cpu time spent up to now is       38.8 secs

     total energy              =     -51.49584835 Ry
     estimated scf accuracy    <       0.00000021 Ry

     iteration #  6     ecut=    80.00 Ry     beta= 0.70
     Davidson diagonalization with overlap
     ethr =  1.61E-09,  avg # of iterations =  3.0

     total cpu time spent up to now is       39.5 secs

     total energy              =     -51.49584837 Ry
     estimated scf accuracy    <       0.00000026 Ry

     iteration #  7     ecut=    80.00 Ry     beta= 0.70
     Davidson diagonalization with overlap
     ethr =  1.61E-09,  avg # of iterations =  1.2

     total cpu time spent up to now is       40.1 secs

     End of self-consistent calculation

          k = 0.0000 0.0000 0.0000 (  3637 PWs)   bands (ev):

   -37.4956 -37.4368 -37.0609  -5.2614   3.1118   5.0336   9.5170  14.1240
    16.0835  17.5060  17.5060

          k = 0.0000 0.0000 0.1011 (  3649 PWs)   bands (ev):

   -37.4908 -37.4424 -37.0602  -5.2624   3.0122   5.5128   8.4834  15.6072
    16.0869  17.5307  17.5307

          k = 0.0000 0.0000-0.2023 (  3686 PWs)   bands (ev):

   -37.4844 -37.4494 -37.0595  -5.2634   2.9311   6.3969   7.2177  16.0904
    17.5562  17.5562  17.5855

          k = 0.0000 0.1084 0.0000 (  3647 PWs)   bands (ev):

   -37.4810 -37.4263 -37.0551  -5.0246   3.2400   5.1529   9.7619  12.7282
    14.6487  17.7266  20.1189

          k = 0.0000 0.1084 0.1011 (  3653 PWs)   bands (ev):

   -37.4763 -37.4316 -37.0545  -5.0257   3.1384   5.6387   8.6417  13.1475
    15.7535  17.7507  19.7716

          k = 0.0000 0.1084-0.2023 (  3654 PWs)   bands (ev):

   -37.4701 -37.4385 -37.0538  -5.0268   3.0561   6.5528   7.3207  13.2924
    17.5747  18.8739  20.4431

          k = 0.0000 0.2168 0.0000 (  3644 PWs)   bands (ev):

   -37.4423 -37.3987 -37.0405  -4.3181   3.6089   5.4686   9.4706  10.4870
    14.4126  17.3217  19.3088

          k = 0.0000 0.2168 0.1011 (  3644 PWs)   bands (ev):

   -37.4380 -37.4035 -37.0400  -4.3194   3.5062   5.9537   8.6415  10.3925
    15.3226  17.3841  20.0061

          k = 0.0000 0.2168-0.2023 (  3650 PWs)   bands (ev):

   -37.4321 -37.4099 -37.0395  -4.3207   3.4234   6.9947   7.3071  10.3686
    15.8298  18.1683  18.4337

          k = 0.0000 0.3251 0.0000 (  3650 PWs)   bands (ev):

   -37.3931 -37.3645 -37.0234  -3.1547   4.1578   5.2971   7.1160  11.6158
    13.2916  14.8014  18.5243

          k = 0.0000 0.3251 0.1011 (  3648 PWs)   bands (ev):

   -37.3896 -37.3683 -37.0231  -3.1565   4.0706   5.4602   7.2996  10.5598
    13.4032  16.0363  18.9750

          k = 0.0000 0.3251-0.2023 (  3640 PWs)   bands (ev):

   -37.3838 -37.3743 -37.0229  -3.1583   4.0004   5.5990   7.5974   9.7036
    13.3801  17.9782  18.3340

          k = 0.0000 0.4335 0.0000 (  3664 PWs)   bands (ev):

   -37.3520 -37.3367 -37.0106  -1.5664   3.0123   4.7275   7.4307  11.6167
    12.1978  14.1113  18.8373

          k = 0.0000 0.4335 0.1011 (  3645 PWs)   bands (ev):

   -37.3498 -37.3389 -37.0106  -1.5690   3.0143   4.6977   7.6717  11.0030
    12.1367  14.7433  17.8211

          k = 0.0000 0.4335-0.2023 (  3656 PWs)   bands (ev):

   -37.3455 -37.3434 -37.0105  -1.5717   3.0164   4.6699   7.9750  10.4250
    12.0797  15.6504  16.6882

          k = 0.0000-0.5419 0.0000 (  3658 PWs)   bands (ev):

   -37.3359 -37.3261 -37.0061  -0.0038   1.0857   4.9954   7.9422  10.7138
    11.7744  15.6538  16.5362

          k = 0.0000-0.5419 0.1011 (  3660 PWs)   bands (ev):

   -37.3352 -37.3268 -37.0061  -0.0094   1.0861   5.0155   7.9377  10.8075
    11.8656  15.0608  16.1485

          k = 0.0000-0.5419-0.2023 (  3660 PWs)   bands (ev):

   -37.3344 -37.3276 -37.0061  -0.0150   1.0865   5.0357   7.9332  10.9149
    11.9656  14.5732  15.7982

          k = 0.1084 0.1084 0.0000 (  3647 PWs)   bands (ev):

   -37.4669 -37.4159 -37.0492  -4.7878   3.3752   5.2809  10.0093  12.4564
    13.2532  17.6423  19.6217

          k = 0.1084 0.1084 0.1011 (  3645 PWs)   bands (ev):

   -37.4623 -37.4211 -37.0486  -4.7889   3.2711   5.7742   8.8180  12.4682
    14.5551  17.9309  19.0121

          k = 0.1084 0.1084-0.2023 (  3650 PWs)   bands (ev):

   -37.4562 -37.4277 -37.0480  -4.7901   3.1870   6.7149   7.4488  12.4802
    15.5819  18.6792  19.4321

          k = 0.1084 0.2168 0.0000 (  3634 PWs)   bands (ev):

   -37.4293 -37.3887 -37.0340  -4.0812   3.7650   5.6257   9.5565  10.7418
    13.5049  17.0708  17.0888

          k = 0.1084 0.2168 0.1011 (  3642 PWs)   bands (ev):

   -37.4251 -37.3932 -37.0335  -4.0826   3.6577   6.1227   8.8685  10.2987
    14.6296  16.2990  18.0941

          k = 0.1084 0.2168-0.2023 (  3638 PWs)   bands (ev):

   -37.4193 -37.3995 -37.0331  -4.0839   3.5717   7.1761   7.5279  10.1956
    15.6108  15.8208  19.9844

          k = 0.1084 0.3251 0.0000 (  3656 PWs)   bands (ev):

   -37.3817 -37.3549 -37.0161  -2.9177   4.3481   5.5205   7.2345  11.8784
    13.3201  14.6978  16.1665

          k = 0.1084 0.3251 0.1011 (  3660 PWs)   bands (ev):

   -37.3783 -37.3585 -37.0158  -2.9195   4.2530   5.6907   7.4468  10.6723
    13.4518  15.9121  16.5176

          k = 0.1084 0.3251-0.2023 (  3650 PWs)   bands (ev):

   -37.3725 -37.3644 -37.0156  -2.9212   4.1770   5.8310   7.8113   9.7213
    13.3844  16.5945  18.0196

          k = 0.1084 0.4335 0.0000 (  3657 PWs)   bands (ev):

   -37.3420 -37.3274 -37.0025  -1.3283   3.2350   4.9598   7.6104  11.7865
    12.2691  14.2326  17.2017

          k = 0.1084 0.4335 0.1011 (  3660 PWs)   bands (ev):

   -37.3399 -37.3295 -37.0024  -1.3307   3.2376   4.9209   7.8737  11.1728
    12.1870  14.7647  17.6706

          k = 0.1084 0.4335-0.2023 (  3644 PWs)   bands (ev):

   -37.3359 -37.3335 -37.0024  -1.3332   3.2403   4.8850   8.2085  10.5800
    12.0928  15.6807  16.5491

          k = 0.1084-0.5419 0.0000 (  3656 PWs)   bands (ev):

   -37.3265 -37.3168 -36.9976   0.2486   1.2951   5.2514   8.1610  10.8589
    11.7608  15.9009  16.7018

          k = 0.1084-0.5419 0.1011 (  3650 PWs)   bands (ev):

   -37.3258 -37.3175 -36.9976   0.2437   1.2954   5.2649   8.1526  10.9928
    11.8830  15.1561  16.0999

          k = 0.1084-0.5419-0.2023 (  3648 PWs)   bands (ev):

   -37.3250 -37.3183 -36.9976   0.2388   1.2957   5.2783   8.1444  11.1513
    12.0213  14.5731  15.6145

          k = 0.2168 0.2168 0.0000 (  3648 PWs)   bands (ev):

   -37.3949 -37.3623 -37.0172  -3.3747   4.2174   6.0677   9.1258  11.4981
    11.8446  16.0276  17.2644

          k = 0.2168 0.2168 0.1011 (  3655 PWs)   bands (ev):

   -37.3911 -37.3663 -37.0169  -3.3761   4.1003   6.5889   9.1404   9.6665
    13.3389  15.3911  17.6381

          k = 0.2168 0.2168-0.2023 (  3638 PWs)   bands (ev):

   -37.3855 -37.3723 -37.0166  -3.3776   4.0075   7.6978   8.0792   9.1552
    13.9204  15.0395  18.5363

          k = 0.2168 0.3251 0.0000 (  3654 PWs)   bands (ev):

   -37.3515 -37.3295 -36.9969  -2.2112   4.9039   6.1727   7.4610  12.2004
    12.6645  14.2933  14.7806

          k = 0.2168 0.3251 0.1011 (  3654 PWs)   bands (ev):

   -37.3485 -37.3326 -36.9968  -2.2128   4.7874   6.3503   7.7677  10.6735
    13.3804  13.8084  16.2723

          k = 0.2168 0.3251-0.2023 (  3658 PWs)   bands (ev):

   -37.3429 -37.3384 -36.9966  -2.2145   4.6961   6.4759   8.4404   9.4473
    13.1911  14.0217  18.0348

          k = 0.2168 0.4335 0.0000 (  3657 PWs)   bands (ev):

   -37.3157 -37.3028 -36.9811  -0.6202   3.8827   5.6480   8.1115  12.2089
    12.3355  14.1012  14.7312

          k = 0.2168 0.4335 0.1011 (  3660 PWs)   bands (ev):

   -37.3140 -37.3046 -36.9810  -0.6220   3.8873   5.5801   8.4472  11.4682
    12.3081  14.2034  15.3744

          k = 0.2168 0.4335-0.2023 (  3658 PWs)   bands (ev):

   -37.3110 -37.3077 -36.9810  -0.6238   3.8921   5.5196   8.8985  10.8254
    12.0629  14.7733  15.7370

          k = 0.2168-0.5419 0.0000 (  3668 PWs)   bands (ev):

   -37.3019 -37.2926 -36.9752   0.9967   1.9136   6.0193   8.7951  11.2455
    11.6834  15.7242  16.3123

          k = 0.2168-0.5419 0.1011 (  3656 PWs)   bands (ev):

   -37.3012 -37.2933 -36.9752   0.9939   1.9141   6.0111   8.7629  11.4835
    11.9134  15.1533  15.3136

          k = 0.2168-0.5419-0.2023 (  3648 PWs)   bands (ev):

   -37.3005 -37.2940 -36.9752   0.9911   1.9147   6.0031   8.7325  11.7898
    12.2069  14.5190  14.6222

          k = 0.3251 0.3251 0.0000 (  3678 PWs)   bands (ev):

   -37.3139 -37.2980 -36.9734  -1.0496   5.7665   6.7352   7.4185  10.7304
    13.3798  13.9993  14.6387

          k = 0.3251 0.3251 0.1011 (  3654 PWs)   bands (ev):

   -37.3116 -37.3003 -36.9733  -1.0508   5.6269   6.7521   7.9043  10.2563
    12.7338  13.5514  15.8916

          k = 0.3251 0.3251-0.2023 (  3648 PWs)   bands (ev):

   -37.3062 -37.3058 -36.9733  -1.0521   5.5194   6.7694   8.7159   9.4059
    12.3756  13.2975  17.6351

          k = 0.3251 0.4335 0.0000 (  3668 PWs)   bands (ev):

   -37.2831 -37.2724 -36.9545   0.5365   4.8325   6.7557   8.6842  11.2464
    12.1803  13.0014  15.2929

          k = 0.3251 0.4335 0.1011 (  3661 PWs)   bands (ev):

   -37.2818 -37.2736 -36.9545   0.5361   4.8422   6.6346   9.0977  10.8588
    11.8520  13.7047  14.9952

          k = 0.3251 0.4335-0.2023 (  3664 PWs)   bands (ev):

   -37.2800 -37.2755 -36.9545   0.5356   4.8521   6.5346   9.9531   9.9960
    11.8032  13.7805  14.8843

          k = 0.3251-0.5419 0.0000 (  3656 PWs)   bands (ev):

   -37.2712 -37.2626 -36.9474   2.2045   2.8998   7.2980   9.7075  11.5123
    11.5856  12.7681  13.3460

[...]
        k(   60) = (   0.4127283  -0.5159104  -0.2240035), wk =   0.0200000
        k(   61) = (  -0.5159104  -0.5159104   0.0000000), wk =   0.0050000
        k(   62) = (  -0.5159104  -0.5159104   0.1120018), wk =   0.0100000
        k(   63) = (  -0.5159104  -0.5159104  -0.2240035), wk =   0.0050000

     Dense  grid:    22557 G-vectors     FFT dimensions: (  27,  27,  64)

     Estimated max dynamical RAM per process >      17.48 MB

     Estimated total dynamical RAM >     139.81 MB

     Initial potential from superposition of free atoms

     starting charge      12.9857, renormalised to      13.0000
     Starting wfcs are   10 randomized atomic wfcs +    1 random wfcs

     total cpu time spent up to now is       86.5 secs

     Self-consistent Calculation

     iteration #  1     ecut=    80.00 Ry     beta= 0.70
     Davidson diagonalization with overlap
     c_bands:  1 eigenvalues not converged
     c_bands:  1 eigenvalues not converged
     c_bands:  1 eigenvalues not converged
     c_bands:  1 eigenvalues not converged
     c_bands:  1 eigenvalues not converged
     c_bands:  1 eigenvalues not converged
     c_bands:  1 eigenvalues not converged
     c_bands:  1 eigenvalues not converged
     c_bands:  1 eigenvalues not converged
     ethr =  1.00E-06,  avg # of iterations = 15.9

     total cpu time spent up to now is       88.1 secs

     total energy              =     -51.45692650 Ry
     estimated scf accuracy    <       0.10691882 Ry

     iteration #  2     ecut=    80.00 Ry     beta= 0.70
     Davidson diagonalization with overlap
     ethr =  8.22E-04,  avg # of iterations =  2.5

     total cpu time spent up to now is       88.7 secs

     total energy              =     -51.39388623 Ry
     estimated scf accuracy    <       0.75300644 Ry

     iteration #  3     ecut=    80.00 Ry     beta= 0.70
     Davidson diagonalization with overlap
     ethr =  8.22E-04,  avg # of iterations =  2.1

     total cpu time spent up to now is       89.2 secs

     total energy              =     -51.50974896 Ry
     estimated scf accuracy    <       0.01224041 Ry

     iteration #  4     ecut=    80.00 Ry     beta= 0.70
     Davidson diagonalization with overlap
     ethr =  9.42E-05,  avg # of iterations =  1.1

     total cpu time spent up to now is       89.8 secs

     total energy              =     -51.51160101 Ry
     estimated scf accuracy    <       0.00010692 Ry

     iteration #  5     ecut=    80.00 Ry     beta= 0.70
     Davidson diagonalization with overlap
     ethr =  8.22E-07,  avg # of iterations =  2.7

     total cpu time spent up to now is       90.4 secs

     total energy              =     -51.51161469 Ry
     estimated scf accuracy    <       0.00000622 Ry

     iteration #  6     ecut=    80.00 Ry     beta= 0.70
     Davidson diagonalization with overlap
     ethr =  4.79E-08,  avg # of iterations =  1.8

     total cpu time spent up to now is       91.0 secs

     total energy              =     -51.51161594 Ry
     estimated scf accuracy    <       0.00000025 Ry

     iteration #  7     ecut=    80.00 Ry     beta= 0.70
     Davidson diagonalization with overlap
     ethr =  1.94E-09,  avg # of iterations =  2.3

     total cpu time spent up to now is       91.6 secs

     total energy              =     -51.51161600 Ry
     estimated scf accuracy    <          3.0E-09 Ry

     iteration #  8     ecut=    80.00 Ry     beta= 0.70
     Davidson diagonalization with overlap
     ethr =  2.28E-11,  avg # of iterations =  3.3

     total cpu time spent up to now is       92.3 secs

     End of self-consistent calculation

          k = 0.0000 0.0000 0.0000 (  2831 PWs)   bands (ev):

   -37.4175 -37.2290 -36.9473  -4.3716   3.4724   5.4964  12.6519  15.4410
    15.7074  15.9761  15.9761

          k = 0.0000 0.0000 0.1120 (  2839 PWs)   bands (ev):

   -37.4142 -37.2342 -36.9454  -4.3763   3.2990   6.1916  10.6064  15.7258
    16.0543  16.0543  18.0216

          k = 0.0000 0.0000-0.2240 (  2830 PWs)   bands (ev):

   -37.4108 -37.2395 -36.9436  -4.3809   3.1698   7.3895   8.7401  15.7445
    16.1413  16.1413  19.7905

          k = 0.0000 0.1032 0.0000 (  2835 PWs)   bands (ev):

   -37.4004 -37.2222 -36.9513  -4.1579   3.5899   5.5871  12.4091  12.8409
    15.5268  16.1833  19.0535

          k = 0.0000 0.1032 0.1120 (  2831 PWs)   bands (ev):

   -37.3972 -37.2272 -36.9495  -4.1626   3.4128   6.2861  10.5812  12.8266
    16.2601  17.3403  18.6007

          k = 0.0000 0.1032-0.2240 (  2830 PWs)   bands (ev):

   -37.3938 -37.2324 -36.9477  -4.1674   3.2814   7.5099   8.7354  12.8677
    16.3454  17.6567  18.5659

          k = 0.0000 0.2064 0.0000 (  2831 PWs)   bands (ev):

   -37.3529 -37.2043 -36.9643  -3.5207   3.9265   5.8182   9.2386  13.3417
    15.0467  16.8041  16.9933

          k = 0.0000 0.2064 0.1120 (  2831 PWs)   bands (ev):

   -37.3498 -37.2090 -36.9627  -3.5257   3.7447   6.4909   9.0359  11.7052
    15.1700  16.8769  18.5091

          k = 0.0000 0.2064-0.2240 (  2836 PWs)   bands (ev):

   -37.3466 -37.2138 -36.9612  -3.5306   3.6109   7.8309   8.0460  10.7847
    14.9064  16.9573  20.0048

          k = 0.0000 0.3095 0.0000 (  2825 PWs)   bands (ev):

   -37.2856 -37.1822 -36.9890  -2.4746   4.4223   5.4732   7.1567  13.3035
    13.4671  15.5947  17.8350

          k = 0.0000 0.3095 0.1120 (  2825 PWs)   bands (ev):

   -37.2826 -37.1864 -36.9878  -2.4798   4.2565   5.6503   7.5476  11.9574
    13.1477  16.7323  17.9015

          k = 0.0000 0.3095-0.2240 (  2826 PWs)   bands (ev):

   -37.2794 -37.1908 -36.9866  -2.4849   4.1351   5.7651   8.1554  10.7666
    12.8974  17.9740  18.2233

          k = 0.0000 0.4127 0.0000 (  2824 PWs)   bands (ev):

   -37.2156 -37.1643 -37.0243  -1.0670   3.3188   4.9274   7.4275  11.5618
    12.3868  16.4768  19.2642

          k = 0.0000 0.4127 0.1120 (  2813 PWs)   bands (ev):

   -37.2126 -37.1679 -37.0237  -1.0724   3.3262   4.8384   7.7228  11.3395
    12.5067  15.8533  19.4578

          k = 0.0000 0.4127-0.2240 (  2814 PWs)   bands (ev):

   -37.2091 -37.1721 -37.0230  -1.0778   3.3338   4.7604   8.0350  11.3215
    12.1831  16.0292  18.1265

          k = 0.0000-0.5159 0.0000 (  2830 PWs)   bands (ev):

   -37.1784 -37.1574 -37.0483   0.1537   1.7529   5.1603   7.8111  10.7560
    11.8500  17.6143  19.3560

          k = 0.0000-0.5159 0.1120 (  2802 PWs)   bands (ev):

   -37.1756 -37.1602 -37.0483   0.1469   1.7545   5.1388   7.7729  11.1277
    12.0808  16.1449  18.2682

          k = 0.0000-0.5159-0.2240 (  2808 PWs)   bands (ev):

   -37.1708 -37.1650 -37.0483   0.1401   1.7560   5.1181   7.7364  11.6286
    12.3434  15.0028  17.4443

          k = 0.1032 0.1032 0.0000 (  2837 PWs)   bands (ev):

   -37.3839 -37.2154 -36.9547  -3.9440   3.7139   5.6859  11.8936  13.0400
    13.5837  17.2699  18.8958

          k = 0.1032 0.1032 0.1120 (  2831 PWs)   bands (ev):

   -37.3808 -37.2204 -36.9530  -3.9488   3.5317   6.3915  10.6840  11.9429
    14.9290  17.4053  18.5098

          k = 0.1032 0.1032-0.2240 (  2830 PWs)   bands (ev):

   -37.3774 -37.2254 -36.9513  -3.9536   3.3973   7.6398   8.7964  11.9950
    15.2368  16.8730  19.2370

          k = 0.1032 0.2064 0.0000 (  2834 PWs)   bands (ev):

   -37.3381 -37.1978 -36.9663  -3.3064   4.0698   5.9451   9.2802  13.5719
    13.6703  16.0725  16.6643

          k = 0.1032 0.2064 0.1120 (  2828 PWs)   bands (ev):

   -37.3351 -37.2024 -36.9648  -3.3113   3.8788   6.6361   9.1559  11.4383
    14.8897  15.1428  18.5588

          k = 0.1032 0.2064-0.2240 (  2824 PWs)   bands (ev):

   -37.3319 -37.2071 -36.9633  -3.3162   3.7397   7.9897   8.2657  10.4311
    14.6451  15.2112  19.4843

          k = 0.1032 0.3095 0.0000 (  2809 PWs)   bands (ev):

   -37.2734 -37.1759 -36.9886  -2.2595   4.5968   5.6669   7.2400  13.3765
    13.6016  15.0710  15.5202

          k = 0.1032 0.3095 0.1120 (  2824 PWs)   bands (ev):

   -37.2705 -37.1800 -36.9875  -2.2644   4.4159   5.8520   7.6654  11.9584
    13.0780  15.5422  16.8247

          k = 0.1032 0.3095-0.2240 (  2816 PWs)   bands (ev):

   -37.2673 -37.1843 -36.9863  -2.2692   4.2850   5.9673   8.3539  10.6839
    12.7567  15.8766  18.1712

          k = 0.1032 0.4127 0.0000 (  2815 PWs)   bands (ev):

   -37.2069 -37.1581 -37.0208  -0.8493   3.5134   5.1395   7.5646  11.6650
    12.3783  16.3481  16.6070

          k = 0.1032 0.4127 0.1120 (  2808 PWs)   bands (ev):

   -37.2039 -37.1617 -37.0202  -0.8539   3.5226   5.0331   7.8853  11.3868
    12.5830  15.4604  17.1990

          k = 0.1032 0.4127-0.2240 (  2812 PWs)   bands (ev):

   -37.2003 -37.1659 -37.0196  -0.8586   3.5321   4.9413   8.2195  11.4256
    12.1452  15.9613  16.6857

          k = 0.1032-0.5159 0.0000 (  2822 PWs)   bands (ev):

   -37.1721 -37.1513 -37.0424   0.3839   1.9368   5.3930   7.9789  10.8356
    11.8156  17.6076  17.8245

          k = 0.1032-0.5159 0.1120 (  2806 PWs)   bands (ev):

   -37.1693 -37.1541 -37.0424   0.3788   1.9390   5.3579   7.9280  11.2506
    12.0889  16.0385  17.6409

          k = 0.1032-0.5159-0.2240 (  2812 PWs)   bands (ev):

   -37.1646 -37.1588 -37.0424   0.3736   1.9413   5.3244   7.8800  11.8283
    12.4091  14.8718  16.7713

          k = 0.2064 0.2064 0.0000 (  2823 PWs)   bands (ev):

   -37.2973 -37.1806 -36.9735  -2.6676   4.4835   6.2988   8.7968  11.7576
    14.2334  15.5460  15.8134

          k = 0.2064 0.2064 0.1120 (  2821 PWs)   bands (ev):

   -37.2944 -37.1849 -36.9722  -2.6722   4.2711   7.0244   8.8527  10.6569
    14.0197  14.1466  17.9553

          k = 0.2064 0.2064-0.2240 (  2822 PWs)   bands (ev):

   -37.2912 -37.1893 -36.9709  -2.6768   4.1194   8.4330   8.9125   8.9213
    13.5876  13.9485  18.5289

          k = 0.2064 0.3095 0.0000 (  2819 PWs)   bands (ev):

   -37.2403 -37.1593 -36.9889  -1.6186   5.1058   6.2230   7.3818  11.9725
    13.7402  13.8177  15.5096

          k = 0.2064 0.3095 0.1120 (  2819 PWs)   bands (ev):

   -37.2375 -37.1632 -36.9879  -1.6224   4.8825   6.4118   7.9158  11.2477
    12.5999  14.1364  16.4463

          k = 0.2064 0.3095-0.2240 (  2816 PWs)   bands (ev):

   -37.2343 -37.1673 -36.9869  -1.6262   4.7260   6.5168   8.9439   9.9790
    12.1957  13.9439  17.9157

          k = 0.2064 0.4127 0.0000 (  2808 PWs)   bands (ev):

   -37.1835 -37.1420 -37.0119  -0.2020   4.0757   5.7682   7.9459  11.9248
    12.3028  13.2274  17.0481

          k = 0.2064 0.4127 0.1120 (  2809 PWs)   bands (ev):

   -37.1806 -37.1454 -37.0115  -0.2040   4.0919   5.6055   8.3482  11.3422
    12.6195  13.5530  16.2039

          k = 0.2064 0.4127-0.2240 (  2794 PWs)   bands (ev):

   -37.1770 -37.1494 -37.0110  -0.2061   4.1087   5.4728   8.7510  11.3352
    11.9711  14.3596  15.7706

          k = 0.2064-0.5159 0.0000 (  2814 PWs)   bands (ev):

   -37.1554 -37.1354 -37.0271   1.0686   2.4755   6.0909   8.4609  11.0419
    11.6973  14.3732  16.0863

          k = 0.2064-0.5159 0.1120 (  2816 PWs)   bands (ev):

   -37.1528 -37.1381 -37.0271   1.0687   2.4810   6.0114   8.3579  11.5515
    12.1015  14.3506  15.5271

          k = 0.2064-0.5159-0.2240 (  2804 PWs)   bands (ev):

   -37.1482 -37.1426 -37.0271   1.0688   2.4865   5.9377   8.2652  12.2641
    12.6387  14.8268  15.1461

          k = 0.3095 0.3095 0.0000 (  2805 PWs)   bands (ev):

   -37.1955 -37.1387 -36.9930  -0.5669   5.8915   6.5792   7.3754  10.3753
    13.1563  13.4542  16.2037

          k = 0.3095 0.3095 0.1120 (  2812 PWs)   bands (ev):

   -37.1927 -37.1423 -36.9923  -0.5684   5.6160   6.6409   8.0272  10.2218
    11.7476  14.5752  15.6075

          k = 0.3095 0.3095-0.2240 (  2828 PWs)   bands (ev):

   -37.1895 -37.1462 -36.9916  -0.5699   5.4294   6.7075   8.8351   9.8389
    11.1767  13.6840  17.4471

          k = 0.3095 0.4127 0.0000 (  2806 PWs)   bands (ev):

   -37.1535 -37.1221 -37.0020   0.8552   4.8847   6.7792   8.3935  10.6566
    12.0881  12.1682  14.7307

          k = 0.3095 0.4127 0.1120 (  2802 PWs)   bands (ev):

   -37.1507 -37.1251 -37.0017   0.8583   4.9198   6.5116   8.8806  10.4241
    11.2637  13.7053  14.6366

          k = 0.3095 0.4127-0.2240 (  2822 PWs)   bands (ev):

   -37.1471 -37.1291 -37.0014   0.8614   4.9566   6.3166   9.5029   9.7600
    11.5785  14.0356  14.3509

          k = 0.3095-0.5159 0.0000 (  2808 PWs)   bands (ev):

   -37.1348 -37.1157 -37.0081   2.1854   3.3153   7.2527   9.1557  11.2118
    11.4185  11.4999  13.4092

          k = 0.3095-0.5159 0.1120 (  2808 PWs)   bands (ev):

   -37.1322 -37.1182 -37.0081   2.1954   3.3311   7.0829   8.9308  11.1828
    11.9191  12.1154  13.3571

          k = 0.3095-0.5159-0.2240 (  2820 PWs)   bands (ev):

   -37.1279 -37.1225 -37.0081   2.2055   3.3471   6.9350   8.7447  11.1227
    12.4322  13.1545  13.5724

          k = 0.4127 0.4127 0.0000 (  2810 PWs)   bands (ev):

   -37.1281 -37.1059 -36.9950   2.2717   5.2480   8.0439   8.2672   9.8229
    11.7085  12.0288  12.3867

          k = 0.4127 0.4127 0.1120 (  2817 PWs)   bands (ev):

   -37.1255 -37.1085 -36.9949   2.2846   5.3136   7.6382   8.3156  10.2976
    10.5630  12.2260  14.1826

          k = 0.4127 0.4127-0.2240 (  2820 PWs)   bands (ev):

   -37.1216 -37.1126 -36.9948   2.2977   5.3847   7.3827   8.3148   9.7198
    11.5813  11.8064  14.9869

          k = 0.4127-0.5159 0.0000 (  2806 PWs)   bands (ev):

   -37.1180 -37.0997 -36.9927   3.6564   4.2800   8.6859   8.8740   9.6056
    11.3054  11.4868  11.7335

          k = 0.4127-0.5159 0.1120 (  2818 PWs)   bands (ev):

   -37.1156 -37.1021 -36.9927   3.6854   4.3210   8.4360   8.7560   9.3808
    10.5296  11.8269  13.1975

          k = 0.4127-0.5159-0.2240 (  2820 PWs)   bands (ev):

   -37.1114 -37.1062 -36.9927   3.7154   4.3639   8.2355   8.6306   9.1078
    10.3712  12.1994  14.1455

          k =-0.5159-0.5159 0.0000 (  2788 PWs)   bands (ev):

   -37.1116 -37.0935 -36.9868   4.8043   4.8043   7.1439   9.3689  10.7282
    11.2244  11.5529  11.5529

          k =-0.5159-0.5159 0.1120 (  2816 PWs)   bands (ev):

   -37.1092 -37.0959 -36.9868   4.8712   4.8712   7.0855   9.3990   9.8132
     9.8132  10.9150  13.7061

          k =-0.5159-0.5159-0.2240 (  2832 PWs)   bands (ev):

   -37.1051 -37.1000 -36.9868   4.9440   4.9440   7.0305   9.2330   9.2330
     9.4298  11.1085  15.3591

     the Fermi energy is     8.4256 ev

!    total energy              =     -51.51161600 Ry
     estimated scf accuracy    <          2.9E-11 Ry
     smearing contrib. (-TS)   =       0.00010027 Ry
     internal energy E=F+TS    =     -51.51171628 Ry

     The total energy is F=E-TS. E is the sum of the following terms:
     one-electron contribution =     -14.54488152 Ry
     hartree contribution      =       8.58922397 Ry
     xc contribution           =     -13.82732655 Ry
     ewald contribution        =     -31.72873217 Ry

     convergence has been achieved in   8 iterations

     Forces acting on atoms (cartesian axes, Ry/au):

     atom    1 type  1   force =     0.00000000    0.00000000    0.00021568
     atom    2 type  1   force =     0.00000000    0.00000000   -0.00021568
     atom    3 type  1   force =     0.00000000    0.00000000    0.00000000
     atom    4 type  2   force =     0.00000000    0.00000000    0.00000000
     The non-local contrib.  to forces
     atom    1 type  1   force =     0.00000000    0.00000000    0.04406531
     atom    2 type  1   force =     0.00000000    0.00000000   -0.04406531
     atom    3 type  1   force =     0.00000000    0.00000000    0.00000000
     atom    4 type  2   force =     0.00000000    0.00000000    0.00000000
     The ionic contribution  to forces
     atom    1 type  1   force =     0.00000000    0.00000000   -0.35903219
     atom    2 type  1   force =     0.00000000    0.00000000    0.35903219
     atom    3 type  1   force =    -0.00000000   -0.00000000    0.00000000
     atom    4 type  2   force =    -0.00000000   -0.00000000    0.00000000
     The local contribution  to forces
     atom    1 type  1   force =     0.00000000    0.00000000    0.31518335
     atom    2 type  1   force =     0.00000000    0.00000000   -0.31518335
     atom    3 type  1   force =    -0.00000000   -0.00000000   -0.00000000
     atom    4 type  2   force =     0.00000000    0.00000000    0.00000000
     The core correction contribution to forces
     atom    1 type  1   force =     0.00000000    0.00000000    0.00000000
     atom    2 type  1   force =     0.00000000    0.00000000    0.00000000
     atom    3 type  1   force =     0.00000000    0.00000000    0.00000000
     atom    4 type  2   force =     0.00000000    0.00000000   -0.00000000
     The Hubbard contrib.    to forces
     atom    1 type  1   force =     0.00000000    0.00000000    0.00000000
     atom    2 type  1   force =     0.00000000    0.00000000    0.00000000
     atom    3 type  1   force =     0.00000000    0.00000000    0.00000000
     atom    4 type  2   force =     0.00000000    0.00000000    0.00000000
     The SCF correction term to forces
     atom    1 type  1   force =     0.00000000   -0.00000000   -0.00000079
     atom    2 type  1   force =    -0.00000000   -0.00000000    0.00000079
     atom    3 type  1   force =    -0.00000000   -0.00000000   -0.00000000
     atom    4 type  2   force =     0.00000000   -0.00000000   -0.00000000

     Total force =     0.000305     Total SCF correction =     0.000001


     Computing stress (Cartesian axis) and pressure

          total   stress  (Ry/bohr**3)                   (kbar)     P=      500.13
   0.00340148   0.00000000   0.00000000          500.38        0.00        0.00
   0.00000000   0.00340148   0.00000000            0.00      500.38        0.00
   0.00000000   0.00000000   0.00339656            0.00        0.00      499.65


     Writing all to output data dir ./output/LiSi.save/

     init_run     :      0.85s CPU      1.05s WALL (       2 calls)
     electrons    :     56.79s CPU     74.65s WALL (      13 calls)
     update_pot   :      3.28s CPU      3.37s WALL (      11 calls)
     forces       :      2.55s CPU      2.68s WALL (      13 calls)
     stress       :      9.70s CPU     10.29s WALL (      13 calls)

     Called by init_run:
     wfcinit      :      0.33s CPU      0.34s WALL (       2 calls)
     potinit      :      0.24s CPU      0.32s WALL (       2 calls)
     hinit0       :      0.25s CPU      0.31s WALL (       2 calls)

     Called by electrons:
     c_bands      :     48.74s CPU     65.14s WALL (     102 calls)
     sum_band     :      7.16s CPU      7.43s WALL (     102 calls)
     v_of_rho     :      0.86s CPU      1.40s WALL (     114 calls)
     mix_rho      :      0.08s CPU      0.16s WALL (     102 calls)

     Called by c_bands:
     init_us_2    :      1.59s CPU      1.71s WALL (   14616 calls)
     init_us_2:cp :      1.57s CPU      1.69s WALL (   14616 calls)
     cegterg      :     45.35s CPU     47.04s WALL (    6426 calls)

     Called by *egterg:
     cdiaghg      :      3.17s CPU      3.28s WALL (   23348 calls)
     h_psi        :     37.82s CPU     39.22s WALL (   24230 calls)
     g_psi        :      0.19s CPU      0.20s WALL (   17678 calls)

     Called by h_psi:
     h_psi:calbec :      2.34s CPU      2.42s WALL (   24230 calls)
     vloc_psi     :     33.77s CPU     35.03s WALL (   24230 calls)
     add_vuspsi   :      1.53s CPU      1.58s WALL (   24230 calls)

     General routines
     calbec       :      3.00s CPU      3.12s WALL (   28325 calls)
     fft          :      0.96s CPU      1.79s WALL (    1464 calls)
     ffts         :      0.06s CPU      0.08s WALL (     102 calls)
     fftw         :     36.00s CPU     37.26s WALL (  450506 calls)

     Parallel routines

     PWSCF        :   1m13.52s CPU   1m33.70s WALL


   This run was terminated on:  12:42:31  29Dec2024            

=------------------------------------------------------------------------------=
   JOB DONE.
=------------------------------------------------------------------------------=
