
     Program PWSCF v.7.2 starts on 29Dec2024 at 11:52:27 

     This program is part of the open-source Quantum ESPRESSO suite
     for quantum simulation of materials; please cite
         "P. Giannozzi et al., J. Phys.:Condens. Matter 21 395502 (2009);
         "P. Giannozzi et al., J. Phys.:Condens. Matter 29 465901 (2017);
         "P. Giannozzi et al., J. Chem. Phys. 152 154105 (2020);
          URL http://www.quantum-espresso.org", 
     in publications or presentations arising from this work. More details at
     http://www.quantum-espresso.org/quote

     Parallel version (MPI & OpenMP), running on       8 processor cores
     Number of MPI processes:                 8
     Threads/MPI process:                     1

     MPI processes distributed on     1 nodes
     481435 MiB available memory on the printing compute node when the environment starts

     Waiting for input...
     Reading input from standard input

     Current dimensions of program PWSCF are:
     Max number of different atomic species (ntypx) = 10
     Max number of k-points (npk) =  40000
     Max angular momentum in pseudopotentials (lmaxx) =  4

     R & G space division:  proc/nbgrp/npool/nimage =       8
     Subspace diagonalization in iterative solution of the eigenvalue problem:
     a serial algorithm will be used


     Parallelization info
     --------------------
     sticks:   dense  smooth     PW     G-vecs:    dense   smooth      PW
     Min         137     137     40                 3449     3449     546
     Max         138     138     41                 3452     3452     549
     Sum        1101    1101    325                27609    27609    4385

     Using Slab Decomposition



     bravais-lattice index     =            1
     lattice parameter (alat)  =       6.5886  a.u.
     unit-cell volume          =     286.0101 (a.u.)^3
     number of atoms/cell      =            4
     number of atomic types    =            2
     number of electrons       =        15.00
     number of Kohn-Sham states=           12
     kinetic-energy cutoff     =      80.0000  Ry
     charge density cutoff     =     320.0000  Ry
     scf convergence threshold =      1.0E-08
     mixing beta               =       0.7000
     number of iterations used =            8  plain     mixing
     energy convergence thresh.=      1.0E-04
     force convergence thresh. =      1.0E-03
     press convergence thresh. =      1.0E+00
     Exchange-correlation= PBE
                           (   1   4   3   4   0   0   0)
     nstep                     =           50


     celldm(1)=   6.588610  celldm(2)=   0.000000  celldm(3)=   0.000000
     celldm(4)=   0.000000  celldm(5)=   0.000000  celldm(6)=   0.000000

     crystal axes: (cart. coord. in units of alat)
               a(1) = (   1.000000   0.000000   0.000000 )  
               a(2) = (   0.000000   1.000000   0.000000 )  
               a(3) = (   0.000000   0.000000   1.000000 )  

     reciprocal axes: (cart. coord. in units 2 pi/alat)
               b(1) = (  1.000000  0.000000  0.000000 )  
               b(2) = (  0.000000  1.000000  0.000000 )  
               b(3) = (  0.000000  0.000000  1.000000 )  


     PseudoPot. # 1 for Li read from file:
     ../pseudo/Li_ONCV_PBE_sr.upf
     MD5 check sum: 50ff420e78310ffa21704f3361e624a4
     Pseudo is Norm-conserving, Zval =  3.0
     Generated using ONCVPSP code by D. R. Hamann
     Using radial grid of 1944 points,  4 beta functions with: 
                l(1) =   0
                l(2) =   0
                l(3) =   1
                l(4) =   1

     PseudoPot. # 2 for Si read from file:
     ../pseudo/Si_ONCV_PBE_sr.upf
     MD5 check sum: e543d271109d17c80368dfa7c482276d
     Pseudo is Norm-conserving + core correction, Zval =  4.0
     Generated using ONCVPSP code by D. R. Hamann
     Using radial grid of 1510 points,  6 beta functions with: 
                l(1) =   0
                l(2) =   0
                l(3) =   1
                l(4) =   1
                l(5) =   2
                l(6) =   2

     atomic species   valence    mass     pseudopotential
        Li             3.00     6.94100     Li( 1.00)
        Si             4.00    28.08550     Si( 1.00)

     48 Sym. Ops., with inversion, found



   Cartesian axes

     site n.     atom                  positions (alat units)
         1           Li  tau(   1) = (   0.0000000   0.0000000   0.0000000  )
         2           Si  tau(   2) = (   0.0000000   0.5000000   0.5000000  )
         3           Si  tau(   3) = (   0.5000000   0.0000000   0.5000000  )
         4           Si  tau(   4) = (   0.5000000   0.5000000   0.0000000  )

     number of k points=    20  Marzari-Vanderbilt smearing, width (Ry)=  0.0200
                       cart. coord. in units 2pi/alat
        k(    1) = (   0.0000000   0.0000000   0.0000000), wk =   0.0058309
        k(    2) = (   0.0000000   0.0000000   0.1428571), wk =   0.0349854
        k(    3) = (   0.0000000   0.0000000   0.2857143), wk =   0.0349854
        k(    4) = (   0.0000000   0.0000000   0.4285714), wk =   0.0349854
        k(    5) = (   0.0000000   0.1428571   0.1428571), wk =   0.0699708
        k(    6) = (   0.0000000   0.1428571   0.2857143), wk =   0.1399417
        k(    7) = (   0.0000000   0.1428571   0.4285714), wk =   0.1399417
        k(    8) = (   0.0000000   0.2857143   0.2857143), wk =   0.0699708
        k(    9) = (   0.0000000   0.2857143   0.4285714), wk =   0.1399417
        k(   10) = (   0.0000000   0.4285714   0.4285714), wk =   0.0699708
        k(   11) = (   0.1428571   0.1428571   0.1428571), wk =   0.0466472
        k(   12) = (   0.1428571   0.1428571   0.2857143), wk =   0.1399417
        k(   13) = (   0.1428571   0.1428571   0.4285714), wk =   0.1399417
        k(   14) = (   0.1428571   0.2857143   0.2857143), wk =   0.1399417
        k(   15) = (   0.1428571   0.2857143   0.4285714), wk =   0.2798834
        k(   16) = (   0.1428571   0.4285714   0.4285714), wk =   0.1399417
        k(   17) = (   0.2857143   0.2857143   0.2857143), wk =   0.0466472
        k(   18) = (   0.2857143   0.2857143   0.4285714), wk =   0.1399417
        k(   19) = (   0.2857143   0.4285714   0.4285714), wk =   0.1399417
        k(   20) = (   0.4285714   0.4285714   0.4285714), wk =   0.0466472

     Dense  grid:    27609 G-vectors     FFT dimensions: (  40,  40,  40)

     Estimated max dynamical RAM per process >      16.00 MB

     Estimated total dynamical RAM >     128.02 MB

     Initial potential from superposition of free atoms

     starting charge      14.9936, renormalised to      15.0000
     Starting wfcs are   14 randomized atomic wfcs

     total cpu time spent up to now is        0.9 secs

     Self-consistent Calculation

     iteration #  1     ecut=    80.00 Ry     beta= 0.70
     Davidson diagonalization with overlap
     ethr =  1.00E-02,  avg # of iterations =  6.1

     Threshold (ethr) on eigenvalues was too large:
     Diagonalizing with lowered threshold

     Davidson diagonalization with overlap
     ethr =  1.16E-04,  avg # of iterations =  4.6

     total cpu time spent up to now is        1.4 secs

     total energy              =     -39.65444083 Ry
     estimated scf accuracy    <       0.01814584 Ry

     iteration #  2     ecut=    80.00 Ry     beta= 0.70
     Davidson diagonalization with overlap
     ethr =  1.21E-04,  avg # of iterations =  1.0

     total cpu time spent up to now is        1.6 secs

     total energy              =     -39.65456296 Ry
     estimated scf accuracy    <       0.00124454 Ry

     iteration #  3     ecut=    80.00 Ry     beta= 0.70
     Davidson diagonalization with overlap
     ethr =  8.30E-06,  avg # of iterations =  3.5

     total cpu time spent up to now is        1.8 secs

     total energy              =     -39.65462914 Ry
     estimated scf accuracy    <       0.00001136 Ry

     iteration #  4     ecut=    80.00 Ry     beta= 0.70
     Davidson diagonalization with overlap
     ethr =  7.58E-08,  avg # of iterations =  4.3

     total cpu time spent up to now is        2.1 secs

     total energy              =     -39.65463797 Ry
     estimated scf accuracy    <       0.00000114 Ry

     iteration #  5     ecut=    80.00 Ry     beta= 0.70
     Davidson diagonalization with overlap
     ethr =  7.57E-09,  avg # of iterations =  2.1

     total cpu time spent up to now is        2.3 secs

     total energy              =     -39.65463824 Ry
     estimated scf accuracy    <       0.00000007 Ry

     iteration #  6     ecut=    80.00 Ry     beta= 0.70
     Davidson diagonalization with overlap
     ethr =  4.41E-10,  avg # of iterations =  2.6

     total cpu time spent up to now is        2.5 secs

     End of self-consistent calculation

          k = 0.0000 0.0000 0.0000 (  3407 PWs)   bands (ev):

   -33.6678  -2.8837   7.3421   7.3421   7.3421   9.1901   9.1901  12.2785
    17.9146  17.9146  17.9146  18.3971

          k = 0.0000 0.0000 0.1429 (  3459 PWs)   bands (ev):

   -33.6673  -2.6727   5.4189   7.5581   7.5581   9.4252  10.7066  13.1689
    15.5985  15.5985  16.7651  19.0039

          k = 0.0000 0.0000 0.2857 (  3479 PWs)   bands (ev):

   -33.6661  -2.0631   3.1453   8.1931   8.1931  10.1246  11.3690  13.2074
    13.2074  14.7524  16.1723  18.3723

          k = 0.0000 0.0000 0.4286 (  3474 PWs)   bands (ev):

   -33.6651  -1.2317   1.4538   9.1251   9.1251  11.2633  11.3824  11.3824
    11.5595  12.8616  17.6017  20.4323

          k = 0.0000 0.1429 0.1429 (  3469 PWs)   bands (ev):

   -33.6668  -2.4603   5.3409   5.9706   7.7741  10.2255  12.0063  13.3884
    13.9979  15.5075  16.2450  17.3749

          k = 0.0000 0.1429 0.2857 (  3472 PWs)   bands (ev):

   -33.6656  -1.8457   3.3202   6.3291   8.4087  10.4586  11.8845  13.0637
    13.4073  15.9438  16.4169  16.5185

          k = 0.0000 0.1429 0.4286 (  3457 PWs)   bands (ev):

   -33.6647  -1.0011   1.6291   7.1768   9.3406   9.4037  11.5917  11.9750
    13.4354  14.5824  17.2886  18.2193

          k = 0.0000 0.2857 0.2857 (  3465 PWs)   bands (ev):

   -33.6645  -1.2134   3.5063   4.4100   8.8934   9.0428  11.9884  13.7479
    14.3557  15.4958  16.5806  16.9122

          k = 0.0000 0.2857 0.4286 (  3447 PWs)   bands (ev):

   -33.6636  -0.3223   2.1149   4.7981   7.4009   9.9769  12.1891  12.6355
    14.8538  14.8821  17.3149  17.7397

          k = 0.0000 0.4286 0.4286 (  3466 PWs)   bands (ev):

   -33.6627   0.6967   2.5650   3.0441   6.0185  10.9353  12.8663  13.1416
    13.5876  15.1215  15.7879  16.0888

          k = 0.1429 0.1429 0.1429 (  3458 PWs)   bands (ev):

   -33.6663  -2.2466   5.5699   5.5699   6.5431  12.1545  12.1545  13.6095
    13.6603  13.6603  15.4499  18.5194

          k = 0.1429 0.1429 0.2857 (  3460 PWs)   bands (ev):

   -33.6651  -1.6275   3.5056   6.2499   6.8358  11.0512  11.8172  13.0778
    13.9248  14.6136  16.8521  17.4418

          k = 0.1429 0.1429 0.4286 (  3460 PWs)   bands (ev):

   -33.6642  -0.7707   1.8102   7.3212   7.4194   9.1641  10.5526  14.1113
    14.2807  15.3247  15.6670  17.9875

          k = 0.1429 0.2857 0.2857 (  3467 PWs)   bands (ev):

   -33.6640  -0.9923   3.7393   4.5451   7.1151   9.2747  11.7453  12.8407
    14.0778  16.5149  17.3684  18.1442

          k = 0.1429 0.2857 0.4286 (  3449 PWs)   bands (ev):

   -33.6631  -0.0922   2.3151   5.0090   7.3113   8.2324  10.5977  13.0322
    14.8824  16.3064  16.9418  18.0774

          k = 0.1429 0.4286 0.4286 (  3459 PWs)   bands (ev):

   -33.6623   0.9277   2.7995   3.2587   6.0586   9.0598  10.8701  11.3656
    15.0829  15.9283  17.4634  18.0348

          k = 0.2857 0.2857 0.2857 (  3461 PWs)   bands (ev):

   -33.6630  -0.3463   4.4323   4.4323   5.4120   9.3505   9.3505  11.2365
    15.8920  17.2553  17.2553  18.9777

          k = 0.2857 0.2857 0.4286 (  3449 PWs)   bands (ev):

   -33.6621   0.5858   2.8839   5.5332   5.6940   7.3711   8.8969  10.7701
    14.8168  18.2771  18.6232  19.7628

          k = 0.2857 0.4286 0.4286 (  3443 PWs)   bands (ev):

   -33.6613   1.6106   3.4970   3.8767   6.0722   6.7900   8.4516   9.0927
    13.9040  19.4002  20.7933  21.3327

          k = 0.4286 0.4286 0.4286 (  3448 PWs)   bands (ev):

   -33.6605   2.6579   4.6051   4.6051   4.7720   6.4566   6.4566   7.3087
    13.1801  22.7934  22.7934  23.3801

     the Fermi energy is    12.8958 ev

!    total energy              =     -39.65463826 Ry
     estimated scf accuracy    <          3.8E-09 Ry
     smearing contrib. (-TS)   =      -0.00170546 Ry
     internal energy E=F+TS    =     -39.65293280 Ry

     The total energy is F=E-TS. E is the sum of the following terms:
     one-electron contribution =      10.19219031 Ry
     hartree contribution      =       2.94419860 Ry
     xc contribution           =     -13.38957431 Ry
     ewald contribution        =     -39.39974741 Ry

     convergence has been achieved in   6 iterations

     Forces acting on atoms (cartesian axes, Ry/au):

     atom    1 type  1   force =     0.00000000    0.00000000    0.00000000
     atom    2 type  2   force =     0.00000000    0.00000000    0.00000000
     atom    3 type  2   force =     0.00000000    0.00000000    0.00000000
     atom    4 type  2   force =     0.00000000    0.00000000    0.00000000
     The non-local contrib.  to forces
     atom    1 type  1   force =     0.00000000    0.00000000    0.00000000
     atom    2 type  2   force =     0.00000000    0.00000000    0.00000000
     atom    3 type  2   force =     0.00000000    0.00000000    0.00000000
     atom    4 type  2   force =     0.00000000    0.00000000    0.00000000
     The ionic contribution  to forces
     atom    1 type  1   force =    -0.00000000   -0.00000000   -0.00000000
     atom    2 type  2   force =    -0.00000000    0.00000000    0.00000000
     atom    3 type  2   force =     0.00000000   -0.00000000    0.00000000
     atom    4 type  2   force =     0.00000000    0.00000000   -0.00000000
     The local contribution  to forces
     atom    1 type  1   force =    -0.00000000    0.00000000   -0.00000000
     atom    2 type  2   force =    -0.00000000   -0.00000000    0.00000000
     atom    3 type  2   force =    -0.00000000    0.00000000    0.00000000
     atom    4 type  2   force =    -0.00000000   -0.00000000   -0.00000000
     The core correction contribution to forces
     atom    1 type  1   force =     0.00000000    0.00000000    0.00000000
     atom    2 type  2   force =    -0.00000000   -0.00000000   -0.00000000
     atom    3 type  2   force =    -0.00000000   -0.00000000   -0.00000000
     atom    4 type  2   force =    -0.00000000   -0.00000000   -0.00000000
     The Hubbard contrib.    to forces
     atom    1 type  1   force =     0.00000000    0.00000000    0.00000000
     atom    2 type  2   force =     0.00000000    0.00000000    0.00000000
     atom    3 type  2   force =     0.00000000    0.00000000    0.00000000
     atom    4 type  2   force =     0.00000000    0.00000000    0.00000000
     The SCF correction term to forces
     atom    1 type  1   force =    -0.00000000    0.00000000    0.00000000
     atom    2 type  2   force =    -0.00000000   -0.00000000    0.00000000
     atom    3 type  2   force =     0.00000000    0.00000000    0.00000000
     atom    4 type  2   force =    -0.00000000    0.00000000   -0.00000000

     Total force =     0.000000     Total SCF correction =     0.000000


     Computing stress (Cartesian axis) and pressure

          total   stress  (Ry/bohr**3)                   (kbar)     P=      381.85
   0.00259578   0.00000000   0.00000000          381.85        0.00        0.00
   0.00000000   0.00259578   0.00000000            0.00      381.85        0.00
   0.00000000   0.00000000   0.00259578            0.00        0.00      381.85


     BFGS Geometry Optimization
     Energy error            =      0.0E+00 Ry
     Gradient error          =      0.0E+00 Ry/Bohr
     Cell gradient error     =      1.2E+02 kbar

     number of scf cycles    =   1
     number of bfgs steps    =   0

     enthalpy           new  =     -38.6825095725 Ry

     new trust radius        =       0.0679138909 bohr
ibrav =      1
 celldm(1) =      6.45631867
Input lattice vectors:
     0.97992119     0.00000000     0.00000000
     0.00000000     0.97992119     0.00000000
     0.00000000     0.00000000     0.97992119
New lattice vectors in INITIAL alat:
     0.97992119     0.00000000     0.00000000
     0.00000000     0.97992119     0.00000000
     0.00000000     0.00000000     0.97992119
New lattice vectors in NEW alat (for information only):
     1.00000000     0.00000000     0.00000000
     0.00000000     1.00000000     0.00000000
     0.00000000     0.00000000     1.00000000
Discrepancy in bohr =     0.000000    0.000000    0.000000
     new conv_thr            =       0.0000000100 Ry

     new unit-cell volume =    269.12551 a.u.^3 (    39.88029 Ang^3 )
     density =      3.79729 g/cm^3

CELL_PARAMETERS (alat=  6.58861010)
   0.979921193   0.000000000   0.000000000
   0.000000000   0.979921193   0.000000000
   0.000000000   0.000000000   0.979921193

ATOMIC_POSITIONS (crystal)
Li            0.0000000000        0.0000000000        0.0000000000
Si            0.0000000000        0.5000000000        0.5000000000
Si            0.5000000000        0.0000000000        0.5000000000
Si            0.5000000000        0.5000000000        0.0000000000



     Writing config-only to output data dir ./output/LiSi.save/
     NEW-OLD atomic charge density approx. for the potential
     extrapolated charge   14.05932, renormalised to   15.00000

     total cpu time spent up to now is        3.7 secs

     Self-consistent Calculation

     iteration #  1     ecut=    80.00 Ry     beta= 0.70
     Davidson diagonalization with overlap
     c_bands:  1 eigenvalues not converged
     ethr =  1.00E-06,  avg # of iterations =  8.8

     total cpu time spent up to now is        4.1 secs

     total energy              =     -39.60061845 Ry
     estimated scf accuracy    <       0.00091889 Ry

     iteration #  2     ecut=    80.00 Ry     beta= 0.70
     Davidson diagonalization with overlap
     ethr =  6.13E-06,  avg # of iterations =  3.1

     total cpu time spent up to now is        4.4 secs

     total energy              =     -39.60333200 Ry
     estimated scf accuracy    <       0.00053724 Ry

     iteration #  3     ecut=    80.00 Ry     beta= 0.70
     Davidson diagonalization with overlap
     ethr =  3.58E-06,  avg # of iterations =  1.1

     total cpu time spent up to now is        4.6 secs

     total energy              =     -39.60328620 Ry
     estimated scf accuracy    <       0.00012612 Ry

     iteration #  4     ecut=    80.00 Ry     beta= 0.70
     Davidson diagonalization with overlap
     ethr =  8.41E-07,  avg # of iterations =  2.0

     total cpu time spent up to now is        4.8 secs

     total energy              =     -39.60328197 Ry
     estimated scf accuracy    <       0.00001714 Ry

     iteration #  5     ecut=    80.00 Ry     beta= 0.70
     Davidson diagonalization with overlap
     ethr =  1.14E-07,  avg # of iterations =  2.0

     total cpu time spent up to now is        5.0 secs

     total energy              =     -39.60328495 Ry
     estimated scf accuracy    <       0.00000006 Ry

     iteration #  6     ecut=    80.00 Ry     beta= 0.70
     Davidson diagonalization with overlap
     ethr =  4.23E-10,  avg # of iterations =  4.2

     total cpu time spent up to now is        5.2 secs

     total energy              =     -39.60328502 Ry
     estimated scf accuracy    <       0.00000009 Ry

     iteration #  7     ecut=    80.00 Ry     beta= 0.70
     Davidson diagonalization with overlap
     ethr =  4.23E-10,  avg # of iterations =  2.0

     total cpu time spent up to now is        5.4 secs

     End of self-consistent calculation

          k = 0.0000 0.0000 0.0000 (  3407 PWs)   bands (ev):

   -32.8073  -2.5218   8.0077   8.0077   8.0077  10.1240  10.1240  12.9539
    19.1905  19.1905  19.1906  19.2851

          k = 0.0000 0.0000 0.1458 (  3459 PWs)   bands (ev):

   -32.8066  -2.3039   6.0687   8.2320   8.2320  10.3666  11.5727  13.9346
    16.5591  16.5591  18.0261  20.2299

          k = 0.0000 0.0000 0.2916 (  3479 PWs)   bands (ev):

   -32.8049  -1.6749   3.7239   8.8924   8.8924  11.0840  12.1131  14.0696
    14.0696  15.9675  17.1818  19.6590

          k = 0.0000 0.0000 0.4374 (  3474 PWs)   bands (ev):

   -32.8036  -0.8195   1.9794   9.8689   9.8689  12.1651  12.1651  12.2070
    12.2512  14.0720  19.0157  20.8503

          k = 0.0000 0.1458 0.1458 (  3469 PWs)   bands (ev):

   -32.8058  -2.0844   6.0016   6.6179   8.4562  11.1073  12.9572  14.2251
    14.9035  16.5068  17.1480  18.6491

          k = 0.0000 0.1458 0.2916 (  3472 PWs)   bands (ev):

   -32.8043  -1.4498   3.9059   7.0003   9.1161  11.2107  12.9309  13.9157
    14.2821  17.1500  17.3991  17.4869

          k = 0.0000 0.1458 0.4374 (  3457 PWs)   bands (ev):

   -32.8030  -0.5802   2.1602   7.8829  10.0917  10.1083  12.3856  12.9696
    14.2984  15.7516  18.3073  19.5634

          k = 0.0000 0.2916 0.2916 (  3465 PWs)   bands (ev):

   -32.8027  -0.7957   4.1082   5.0127   9.5803   9.7746  13.0424  14.6823
    15.2106  16.4372  17.5482  18.2914

          k = 0.0000 0.2916 0.4374 (  3447 PWs)   bands (ev):

   -32.8015   0.1241   2.6624   5.4311   8.0483  10.7496  13.0191  13.6870
    15.8230  15.8677  18.4979  18.9758

          k = 0.0000 0.4374 0.4374 (  3466 PWs)   bands (ev):

   -32.8004   1.1788   3.1329   3.6182   6.6198  11.7397  13.7698  14.0119
    14.6900  16.1875  16.9361  16.9393

          k = 0.1458 0.1458 0.1458 (  3458 PWs)   bands (ev):

   -32.8052  -1.8635   6.2401   6.2401   7.1662  13.0682  13.0682  14.3531
    14.6906  14.6906  16.3541  19.8098

          k = 0.1458 0.1458 0.2916 (  3460 PWs)   bands (ev):

   -32.8036  -1.2239   4.0988   6.9503   7.4706  11.8581  12.6201  14.1630
    14.8955  15.5178  17.8526  18.6506

          k = 0.1458 0.1458 0.4374 (  3460 PWs)   bands (ev):

   -32.8023  -0.3411   2.3472   8.0590   8.0881   9.8969  11.3489  15.1377
    15.2344  16.3231  16.7862  19.0612

          k = 0.1458 0.2916 0.2916 (  3467 PWs)   bands (ev):

   -32.8021  -0.5667   4.3517   5.1543   7.7728  10.0489  12.6192  13.7013
    15.1325  17.6031  18.3126  19.1711

          k = 0.1458 0.2916 0.4374 (  3449 PWs)   bands (ev):

   -32.8009   0.3626   2.8700   5.6480   7.9346   9.0150  11.4198  13.9504
    15.9471  17.2497  17.9496  19.3371

          k = 0.1458 0.4374 0.4374 (  3459 PWs)   bands (ev):

   -32.7998   1.4179   3.3782   3.8398   6.6538   9.8593  11.7222  12.2300
    15.9155  17.0599  18.5889  19.2156

          k = 0.2916 0.2916 0.2916 (  3461 PWs)   bands (ev):

   -32.8007   0.1022   5.0775   5.0775   5.9761  10.1374  10.1374  12.0806
    16.7808  18.4449  18.4449  19.9690

          k = 0.2916 0.2916 0.4374 (  3449 PWs)   bands (ev):

   -32.7995   1.0652   3.4609   6.2524   6.2646   8.0544   9.6898  11.6253
    15.6590  19.5515  19.7031  21.0076

          k = 0.2916 0.4374 0.4374 (  3443 PWs)   bands (ev):

   -32.7985   2.1232   4.1096   4.4762   6.6478   7.5360   9.2114   9.8929
    14.7163  20.6604  22.0223  22.6234

          k = 0.4374 0.4374 0.4374 (  3448 PWs)   bands (ev):

   -32.7974   3.1955   5.2940   5.2940   5.3326   7.1084   7.1084   8.0400
    13.9877  24.1972  24.1973  24.7699

     the Fermi energy is    13.8230 ev

!    total energy              =     -39.60328503 Ry
     estimated scf accuracy    <          4.9E-09 Ry
     smearing contrib. (-TS)   =      -0.00215887 Ry
     internal energy E=F+TS    =     -39.60112616 Ry

     The total energy is F=E-TS. E is the sum of the following terms:
     one-electron contribution =      11.25091824 Ry
     hartree contribution      =       2.90174238 Ry
     xc contribution           =     -13.54672963 Ry
     ewald contribution        =     -40.20705715 Ry

     convergence has been achieved in   7 iterations

     Forces acting on atoms (cartesian axes, Ry/au):

     atom    1 type  1   force =     0.00000000    0.00000000    0.00000000
     atom    2 type  2   force =     0.00000000    0.00000000    0.00000000
     atom    3 type  2   force =     0.00000000    0.00000000    0.00000000
     atom    4 type  2   force =     0.00000000    0.00000000    0.00000000
     The non-local contrib.  to forces
     atom    1 type  1   force =     0.00000000    0.00000000    0.00000000
     atom    2 type  2   force =     0.00000000    0.00000000    0.00000000
     atom    3 type  2   force =     0.00000000    0.00000000    0.00000000
     atom    4 type  2   force =     0.00000000    0.00000000    0.00000000
     The ionic contribution  to forces
     atom    1 type  1   force =    -0.00000000   -0.00000000   -0.00000000
     atom    2 type  2   force =    -0.00000000    0.00000000    0.00000000
     atom    3 type  2   force =     0.00000000   -0.00000000    0.00000000
     atom    4 type  2   force =     0.00000000    0.00000000   -0.00000000
     The local contribution  to forces
     atom    1 type  1   force =    -0.00000000    0.00000000    0.00000000
     atom    2 type  2   force =     0.00000000   -0.00000000   -0.00000000
     atom    3 type  2   force =    -0.00000000   -0.00000000   -0.00000000
     atom    4 type  2   force =    -0.00000000   -0.00000000   -0.00000000
     The core correction contribution to forces
     atom    1 type  1   force =     0.00000000    0.00000000    0.00000000
     atom    2 type  2   force =    -0.00000000   -0.00000000   -0.00000000
     atom    3 type  2   force =    -0.00000000    0.00000000   -0.00000000
     atom    4 type  2   force =    -0.00000000   -0.00000000   -0.00000000
     The Hubbard contrib.    to forces
     atom    1 type  1   force =     0.00000000    0.00000000    0.00000000
     atom    2 type  2   force =     0.00000000    0.00000000    0.00000000
     atom    3 type  2   force =     0.00000000    0.00000000    0.00000000
     atom    4 type  2   force =     0.00000000    0.00000000    0.00000000
     The SCF correction term to forces
     atom    1 type  1   force =     0.00000000   -0.00000000   -0.00000000
     atom    2 type  2   force =    -0.00000000    0.00000000   -0.00000000
     atom    3 type  2   force =    -0.00000000   -0.00000000   -0.00000000
     atom    4 type  2   force =     0.00000000   -0.00000000   -0.00000000

     Total force =     0.000000     Total SCF correction =     0.000000


     Computing stress (Cartesian axis) and pressure

          total   stress  (Ry/bohr**3)                   (kbar)     P=      519.24
   0.00352974   0.00000000   0.00000000          519.24        0.00        0.00
   0.00000000   0.00352974   0.00000000            0.00      519.24        0.00
   0.00000000   0.00000000   0.00352974            0.00        0.00      519.24

     Energy error            =      6.0E-03 Ry
     Gradient error          =      0.0E+00 Ry/Bohr
     Cell gradient error     =      1.9E+01 kbar

     number of scf cycles    =   2
     number of bfgs steps    =   1

     enthalpy           old  =     -38.6825095725 Ry
     enthalpy           new  =     -38.6885459926 Ry

     CASE: enthalpy          _new < enthalpy          _old

     new trust radius        =       0.0090919924 bohr
ibrav =      1
 celldm(1) =      6.47420975
Input lattice vectors:
     0.98263665     0.00000000     0.00000000
     0.00000000     0.98263665     0.00000000
     0.00000000     0.00000000     0.98263665
New lattice vectors in INITIAL alat:
     0.98263665     0.00000000     0.00000000
     0.00000000     0.98263665     0.00000000
     0.00000000     0.00000000     0.98263665
New lattice vectors in NEW alat (for information only):
     1.00000000     0.00000000     0.00000000
     0.00000000     1.00000000     0.00000000
     0.00000000     0.00000000     1.00000000
Discrepancy in bohr =     0.000000    0.000000    0.000000
     new conv_thr            =            1.0E-10 Ry

     new unit-cell volume =    271.36904 a.u.^3 (    40.21274 Ang^3 )
     density =      3.76590 g/cm^3

CELL_PARAMETERS (alat=  6.58861010)
   0.982636649   0.000000000   0.000000000
   0.000000000   0.982636649   0.000000000
   0.000000000   0.000000000   0.982636649

ATOMIC_POSITIONS (crystal)
Li            0.0000000000        0.0000000000        0.0000000000
Si            0.0000000000        0.5000000000        0.5000000000
Si            0.5000000000        0.0000000000        0.5000000000
Si            0.5000000000        0.5000000000        0.0000000000



     Writing config-only to output data dir ./output/LiSi.save/
     NEW-OLD atomic charge density approx. for the potential
     extrapolated charge   15.12396, renormalised to   15.00000

     total cpu time spent up to now is        6.5 secs

     Self-consistent Calculation

     iteration #  1     ecut=    80.00 Ry     beta= 0.70
     Davidson diagonalization with overlap
     ethr =  1.00E-06,  avg # of iterations =  3.5

     Threshold (ethr) on eigenvalues was too large:
     Diagonalizing with lowered threshold

     Davidson diagonalization with overlap
     ethr =  8.42E-08,  avg # of iterations =  1.9

     total cpu time spent up to now is        7.0 secs

     total energy              =     -39.61100060 Ry
     estimated scf accuracy    <       0.00001284 Ry

     iteration #  2     ecut=    80.00 Ry     beta= 0.70
     Davidson diagonalization with overlap
     ethr =  8.56E-08,  avg # of iterations =  3.0

     total cpu time spent up to now is        7.2 secs

     total energy              =     -39.61104727 Ry
     estimated scf accuracy    <       0.00000911 Ry

     iteration #  3     ecut=    80.00 Ry     beta= 0.70
     Davidson diagonalization with overlap
     ethr =  6.07E-08,  avg # of iterations =  1.0

     total cpu time spent up to now is        7.3 secs

     total energy              =     -39.61104630 Ry
     estimated scf accuracy    <       0.00000246 Ry

     iteration #  4     ecut=    80.00 Ry     beta= 0.70
     Davidson diagonalization with overlap
     ethr =  1.64E-08,  avg # of iterations =  2.0

     total cpu time spent up to now is        7.5 secs

     total energy              =     -39.61104613 Ry
     estimated scf accuracy    <       0.00000042 Ry

     iteration #  5     ecut=    80.00 Ry     beta= 0.70
     Davidson diagonalization with overlap
     ethr =  2.77E-09,  avg # of iterations =  2.0

     total cpu time spent up to now is        7.7 secs

     total energy              =     -39.61104619 Ry
     estimated scf accuracy    <          1.5E-09 Ry

     iteration #  6     ecut=    80.00 Ry     beta= 0.70
     Davidson diagonalization with overlap
     ethr =  9.71E-12,  avg # of iterations =  4.5

     total cpu time spent up to now is        8.0 secs

     total energy              =     -39.61104620 Ry
     estimated scf accuracy    <          3.1E-10 Ry

     iteration #  7     ecut=    80.00 Ry     beta= 0.70
     Davidson diagonalization with overlap
     ethr =  2.06E-12,  avg # of iterations =  2.0

     total cpu time spent up to now is        8.1 secs

     End of self-consistent calculation

          k = 0.0000 0.0000 0.0000 (  3407 PWs)   bands (ev):

   -32.9270  -2.5728   7.9147   7.9147   7.9147   9.9950   9.9950  12.8602
    19.0125  19.0125  19.0125  19.1618

          k = 0.0000 0.0000 0.1454 (  3459 PWs)   bands (ev):

   -32.9263  -2.3558   5.9783   8.1379   8.1379  10.2368  11.4535  13.8277
    16.4261  16.4261  17.8497  20.0587

          k = 0.0000 0.0000 0.2908 (  3479 PWs)   bands (ev):

   -32.9248  -1.7294   3.6432   8.7947   8.7947  10.9523  12.0104  13.9497
    13.9497  15.7965  17.0426  19.4788

          k = 0.0000 0.0000 0.4361 (  3474 PWs)   bands (ev):

   -32.9235  -0.8772   1.9059   9.7651   9.7651  12.0561  12.0561  12.0801
    12.1555  13.8989  18.8192  20.7180

          k = 0.0000 0.1454 0.1454 (  3469 PWs)   bands (ev):

   -32.9256  -2.1373   5.9097   6.5277   8.3610  10.9859  12.8257  14.1106
    14.7756  16.3682  17.0228  18.4710

          k = 0.0000 0.1454 0.2908 (  3472 PWs)   bands (ev):

   -32.9241  -1.5054   3.8243   6.9069   9.0173  11.1069  12.7857  13.7979
    14.1605  16.9854  17.2585  17.3525

          k = 0.0000 0.1454 0.4361 (  3457 PWs)   bands (ev):

   -32.9229  -0.6390   2.0859   7.7850   9.9869  10.0102  12.2751  12.8340
    14.1780  15.5863  18.1662  19.3776

          k = 0.0000 0.2908 0.2908 (  3465 PWs)   bands (ev):

   -32.9227  -0.8542   4.0245   4.9286   9.4848   9.6725  12.8964  14.5523
    15.0920  16.3066  17.4146  18.0991

          k = 0.0000 0.2908 0.4361 (  3447 PWs)   bands (ev):

   -32.9215   0.0617   2.5860   5.3432   7.9580  10.6419  12.9037  13.5416
    15.6923  15.7275  18.3342  18.6161

          k = 0.0000 0.4361 0.4361 (  3466 PWs)   bands (ev):

   -32.9204   1.1116   3.0539   3.5382   6.5356  11.6277  13.6439  13.8910
    14.5373  16.0399  16.7793  16.8181

          k = 0.1454 0.1454 0.1454 (  3458 PWs)   bands (ev):

   -32.9250  -1.9174   6.1470   6.1470   7.0791  12.9423  12.9423  14.2500
    14.5468  14.5468  16.2287  19.6299

          k = 0.1454 0.1454 0.2908 (  3460 PWs)   bands (ev):

   -32.9235  -1.2805   4.0161   6.8531   7.3820  11.7459  12.5087  14.0126
    14.7615  15.3923  17.7135  18.4814

          k = 0.1454 0.1454 0.4361 (  3460 PWs)   bands (ev):

   -32.9223  -0.4011   2.2721   7.9698   7.9821   9.7945  11.2381  15.0190
    15.0807  16.1845  16.6272  18.9139

          k = 0.1454 0.2908 0.2908 (  3467 PWs)   bands (ev):

   -32.9220  -0.6262   4.2665   5.0695   7.6812   9.9410  12.4976  13.5820
    14.9865  17.4531  18.1812  19.0281

          k = 0.1454 0.2908 0.4361 (  3449 PWs)   bands (ev):

   -32.9209   0.2991   2.7926   5.5593   7.8476   8.9059  11.3054  13.8229
    15.8003  17.1186  17.8095  19.1608

          k = 0.1454 0.4361 0.4361 (  3459 PWs)   bands (ev):

   -32.9198   1.3495   3.2977   3.7589   6.5705   9.7479  11.6035  12.1098
    15.7998  16.9028  18.4331  19.0517

          k = 0.2908 0.2908 0.2908 (  3461 PWs)   bands (ev):

   -32.9207   0.0395   4.9879   4.9879   5.8972  10.0276  10.0276  11.9633
    16.6571  18.2803  18.2803  19.8312

          k = 0.2908 0.2908 0.4361 (  3449 PWs)   bands (ev):

   -32.9196   0.9983   3.3806   6.1531   6.1850   7.9584   9.5791  11.5063
    15.5417  19.3759  19.5539  20.8333

          k = 0.2908 0.4361 0.4361 (  3443 PWs)   bands (ev):

   -32.9185   2.0519   4.0245   4.3930   6.5674   7.4316   9.1053   9.7813
    14.6031  20.4863  21.8529  22.4450

          k = 0.4361 0.4361 0.4361 (  3448 PWs)   bands (ev):

   -32.9175   3.1209   5.1989   5.1989   5.2543   7.0166   7.0166   7.9376
    13.8750  24.0044  24.0044  24.5784

     the Fermi energy is    13.6956 ev

!    total energy              =     -39.61104620 Ry
     estimated scf accuracy    <          9.5E-12 Ry
     smearing contrib. (-TS)   =      -0.00210451 Ry
     internal energy E=F+TS    =     -39.60894169 Ry

     The total energy is F=E-TS. E is the sum of the following terms:
     one-electron contribution =      11.10461383 Ry
     hartree contribution      =       2.90727897 Ry
     xc contribution           =     -13.52488708 Ry
     ewald contribution        =     -40.09594741 Ry

     convergence has been achieved in   7 iterations

     Forces acting on atoms (cartesian axes, Ry/au):

     atom    1 type  1   force =     0.00000000    0.00000000    0.00000000
     atom    2 type  2   force =     0.00000000    0.00000000    0.00000000
     atom    3 type  2   force =     0.00000000    0.00000000    0.00000000
     atom    4 type  2   force =     0.00000000    0.00000000    0.00000000
     The non-local contrib.  to forces
     atom    1 type  1   force =     0.00000000    0.00000000    0.00000000
     atom    2 type  2   force =     0.00000000    0.00000000    0.00000000
     atom    3 type  2   force =     0.00000000    0.00000000    0.00000000
     atom    4 type  2   force =     0.00000000    0.00000000    0.00000000
     The ionic contribution  to forces
     atom    1 type  1   force =    -0.00000000   -0.00000000   -0.00000000
     atom    2 type  2   force =    -0.00000000   -0.00000000   -0.00000000
     atom    3 type  2   force =    -0.00000000   -0.00000000   -0.00000000
     atom    4 type  2   force =    -0.00000000   -0.00000000   -0.00000000
     The local contribution  to forces
     atom    1 type  1   force =    -0.00000000    0.00000000    0.00000000
     atom    2 type  2   force =    -0.00000000    0.00000000    0.00000000
     atom    3 type  2   force =     0.00000000   -0.00000000    0.00000000
     atom    4 type  2   force =    -0.00000000    0.00000000    0.00000000
     The core correction contribution to forces
     atom    1 type  1   force =     0.00000000    0.00000000    0.00000000
     atom    2 type  2   force =    -0.00000000    0.00000000    0.00000000
     atom    3 type  2   force =     0.00000000    0.00000000    0.00000000
     atom    4 type  2   force =     0.00000000    0.00000000   -0.00000000
     The Hubbard contrib.    to forces
     atom    1 type  1   force =     0.00000000    0.00000000    0.00000000
     atom    2 type  2   force =     0.00000000    0.00000000    0.00000000
     atom    3 type  2   force =     0.00000000    0.00000000    0.00000000
     atom    4 type  2   force =     0.00000000    0.00000000    0.00000000
     The SCF correction term to forces
     atom    1 type  1   force =     0.00000000    0.00000000    0.00000000
     atom    2 type  2   force =    -0.00000000   -0.00000000    0.00000000
     atom    3 type  2   force =    -0.00000000   -0.00000000    0.00000000
     atom    4 type  2   force =    -0.00000000   -0.00000000   -0.00000000

     Total force =     0.000000     Total SCF correction =     0.000000


     Computing stress (Cartesian axis) and pressure

          total   stress  (Ry/bohr**3)                   (kbar)     P=      498.67
   0.00338990   0.00000000   0.00000000          498.67        0.00        0.00
   0.00000000   0.00338990   0.00000000            0.00      498.67        0.00
   0.00000000   0.00000000   0.00338990            0.00        0.00      498.67

     Energy error            =      1.4E-04 Ry
     Gradient error          =      0.0E+00 Ry/Bohr
     Cell gradient error     =      1.3E+00 kbar

     number of scf cycles    =   3
     number of bfgs steps    =   2

     enthalpy           old  =     -38.6885459926 Ry
     enthalpy           new  =     -38.6886815790 Ry

     CASE: enthalpy          _new < enthalpy          _old

     new trust radius        =       0.0005908364 bohr
ibrav =      1
 celldm(1) =      6.47304872
Input lattice vectors:
     0.98246043     0.00000000     0.00000000
     0.00000000     0.98246043     0.00000000
     0.00000000     0.00000000     0.98246043
New lattice vectors in INITIAL alat:
     0.98246043     0.00000000     0.00000000
     0.00000000     0.98246043     0.00000000
     0.00000000     0.00000000     0.98246043
New lattice vectors in NEW alat (for information only):
     1.00000000     0.00000000     0.00000000
     0.00000000     1.00000000     0.00000000
     0.00000000     0.00000000     1.00000000
Discrepancy in bohr =     0.000000    0.000000    0.000000
     new conv_thr            =            1.0E-10 Ry

     new unit-cell volume =    271.22307 a.u.^3 (    40.19111 Ang^3 )
     density =      3.76792 g/cm^3

CELL_PARAMETERS (alat=  6.58861010)
   0.982460431   0.000000000   0.000000000
   0.000000000   0.982460431   0.000000000
   0.000000000   0.000000000   0.982460431

ATOMIC_POSITIONS (crystal)
Li            0.0000000000        0.0000000000        0.0000000000
Si            0.0000000000        0.5000000000        0.5000000000
Si            0.5000000000        0.0000000000        0.5000000000
Si            0.5000000000        0.5000000000        0.0000000000



     Writing config-only to output data dir ./output/LiSi.save/
     NEW-OLD atomic charge density approx. for the potential
     extrapolated charge   14.99193, renormalised to   15.00000

     total cpu time spent up to now is        9.2 secs

     Self-consistent Calculation

     iteration #  1     ecut=    80.00 Ry     beta= 0.70
     Davidson diagonalization with overlap
     ethr =  1.00E-06,  avg # of iterations =  1.0

     Threshold (ethr) on eigenvalues was too large:
     Diagonalizing with lowered threshold

     Davidson diagonalization with overlap
     ethr =  3.84E-10,  avg # of iterations =  4.5

     total cpu time spent up to now is        9.6 secs

     total energy              =     -39.61055053 Ry
     estimated scf accuracy    <       0.00000006 Ry

     iteration #  2     ecut=    80.00 Ry     beta= 0.70
     Davidson diagonalization with overlap
     ethr =  3.75E-10,  avg # of iterations =  3.0

     total cpu time spent up to now is        9.8 secs

     total energy              =     -39.61055073 Ry
     estimated scf accuracy    <       0.00000004 Ry

     iteration #  3     ecut=    80.00 Ry     beta= 0.70
     Davidson diagonalization with overlap
     ethr =  2.62E-10,  avg # of iterations =  1.0

     total cpu time spent up to now is       10.0 secs

     total energy              =     -39.61055072 Ry
     estimated scf accuracy    <       0.00000001 Ry

     iteration #  4     ecut=    80.00 Ry     beta= 0.70
     Davidson diagonalization with overlap
     ethr =  6.92E-11,  avg # of iterations =  2.0

     total cpu time spent up to now is       10.1 secs

     total energy              =     -39.61055072 Ry
     estimated scf accuracy    <          1.8E-09 Ry

     iteration #  5     ecut=    80.00 Ry     beta= 0.70
     Davidson diagonalization with overlap
     ethr =  1.21E-11,  avg # of iterations =  2.0

     total cpu time spent up to now is       10.3 secs

     End of self-consistent calculation

          k = 0.0000 0.0000 0.0000 (  3407 PWs)   bands (ev):

   -32.9194  -2.5695   7.9207   7.9207   7.9207  10.0034  10.0034  12.8663
    19.0240  19.0240  19.0240  19.1698

          k = 0.0000 0.0000 0.1454 (  3459 PWs)   bands (ev):

   -32.9187  -2.3524   5.9841   8.1440   8.1440  10.2452  11.4612  13.8346
    16.4348  16.4348  17.8611  20.0694

          k = 0.0000 0.0000 0.2908 (  3479 PWs)   bands (ev):

   -32.9171  -1.7259   3.6484   8.8010   8.8010  10.9608  12.0171  13.9575
    13.9575  15.8075  17.0516  19.4904

          k = 0.0000 0.0000 0.4362 (  3474 PWs)   bands (ev):

   -32.9159  -0.8734   1.9106   9.7719   9.7719  12.0632  12.0632  12.0883
    12.1617  13.9100  18.8319  20.7265

          k = 0.0000 0.1454 0.1454 (  3469 PWs)   bands (ev):

   -32.9180  -2.1338   5.9157   6.5336   8.3671  10.9938  12.8342  14.1180
    14.7838  16.3772  17.0309  18.4825

          k = 0.0000 0.1454 0.2908 (  3472 PWs)   bands (ev):

   -32.9165  -1.5018   3.8295   6.9130   9.0237  11.1136  12.7951  13.8055
    14.1684  16.9961  17.2675  17.3612

          k = 0.0000 0.1454 0.4362 (  3457 PWs)   bands (ev):

   -32.9153  -0.6352   2.0907   7.7913   9.9937  10.0165  12.2823  12.8428
    14.1858  15.5970  18.1753  19.3896

          k = 0.0000 0.2908 0.2908 (  3465 PWs)   bands (ev):

   -32.9150  -0.8504   4.0299   4.9341   9.4910   9.6791  12.9059  14.5607
    15.0997  16.3151  17.4233  18.1116

          k = 0.0000 0.2908 0.4362 (  3447 PWs)   bands (ev):

   -32.9139   0.0657   2.5909   5.3489   7.9638  10.6488  12.9112  13.5510
    15.7007  15.7366  18.3448  18.6245

          k = 0.0000 0.4362 0.4362 (  3466 PWs)   bands (ev):

   -32.9127   1.1159   3.0590   3.5434   6.5410  11.6349  13.6521  13.8988
    14.5472  16.0494  16.7896  16.8257

          k = 0.1454 0.1454 0.1454 (  3458 PWs)   bands (ev):

   -32.9174  -1.9139   6.1530   6.1530   7.0848  12.9505  12.9505  14.2567
    14.5561  14.5561  16.2368  19.6415

          k = 0.1454 0.1454 0.2908 (  3460 PWs)   bands (ev):

   -32.9159  -1.2769   4.0215   6.8594   7.3877  11.7532  12.5159  14.0224
    14.7702  15.4004  17.7225  18.4924

          k = 0.1454 0.1454 0.4362 (  3460 PWs)   bands (ev):

   -32.9147  -0.3973   2.2770   7.9756   7.9890   9.8011  11.2453  15.0267
    15.0907  16.1935  16.6375  18.9235

          k = 0.1454 0.2908 0.2908 (  3467 PWs)   bands (ev):

   -32.9144  -0.6224   4.2720   5.0750   7.6871   9.9479  12.5055  13.5897
    14.9959  17.4628  18.1897  19.0373

          k = 0.1454 0.2908 0.4362 (  3449 PWs)   bands (ev):

   -32.9133   0.3032   2.7976   5.5651   7.8533   8.9129  11.3128  13.8312
    15.8098  17.1271  17.8186  19.1722

          k = 0.1454 0.4362 0.4362 (  3459 PWs)   bands (ev):

   -32.9122   1.3540   3.3029   3.7642   6.5759   9.7551  11.6112  12.1176
    15.8073  16.9130  18.4432  19.0623

          k = 0.2908 0.2908 0.2908 (  3461 PWs)   bands (ev):

   -32.9131   0.0436   4.9937   4.9937   5.9023  10.0347  10.0347  11.9709
    16.6651  18.2909  18.2909  19.8401

          k = 0.2908 0.2908 0.4362 (  3449 PWs)   bands (ev):

   -32.9120   1.0027   3.3858   6.1595   6.1901   7.9646   9.5863  11.5140
    15.5493  19.3873  19.5635  20.8445

          k = 0.2908 0.4362 0.4362 (  3443 PWs)   bands (ev):

   -32.9109   2.0565   4.0300   4.3984   6.5726   7.4384   9.1121   9.7885
    14.6104  20.4976  21.8639  22.4565

          k = 0.4362 0.4362 0.4362 (  3448 PWs)   bands (ev):

   -32.9099   3.1257   5.2051   5.2051   5.2594   7.0225   7.0225   7.9443
    13.8823  24.0169  24.0169  24.5908

     the Fermi energy is    13.7039 ev

!    total energy              =     -39.61055072 Ry
     estimated scf accuracy    <          2.4E-11 Ry
     smearing contrib. (-TS)   =      -0.00210810 Ry
     internal energy E=F+TS    =     -39.60844263 Ry

     The total energy is F=E-TS. E is the sum of the following terms:
     one-electron contribution =      11.11407439 Ry
     hartree contribution      =       2.90692109 Ry
     xc contribution           =     -13.52629893 Ry
     ewald contribution        =     -40.10313918 Ry

     convergence has been achieved in   5 iterations

     Forces acting on atoms (cartesian axes, Ry/au):

     atom    1 type  1   force =     0.00000000    0.00000000    0.00000000
     atom    2 type  2   force =     0.00000000    0.00000000    0.00000000
     atom    3 type  2   force =     0.00000000    0.00000000    0.00000000
     atom    4 type  2   force =     0.00000000    0.00000000    0.00000000
     The non-local contrib.  to forces
     atom    1 type  1   force =     0.00000000    0.00000000    0.00000000
     atom    2 type  2   force =     0.00000000    0.00000000    0.00000000
     atom    3 type  2   force =     0.00000000    0.00000000    0.00000000
     atom    4 type  2   force =     0.00000000    0.00000000    0.00000000
     The ionic contribution  to forces
     atom    1 type  1   force =    -0.00000000   -0.00000000   -0.00000000
     atom    2 type  2   force =    -0.00000000   -0.00000000   -0.00000000
     atom    3 type  2   force =    -0.00000000   -0.00000000   -0.00000000
     atom    4 type  2   force =    -0.00000000   -0.00000000   -0.00000000
     The local contribution  to forces
     atom    1 type  1   force =    -0.00000000    0.00000000    0.00000000
     atom    2 type  2   force =    -0.00000000   -0.00000000   -0.00000000
     atom    3 type  2   force =    -0.00000000   -0.00000000   -0.00000000
     atom    4 type  2   force =    -0.00000000   -0.00000000    0.00000000
     The core correction contribution to forces
     atom    1 type  1   force =     0.00000000    0.00000000    0.00000000
     atom    2 type  2   force =    -0.00000000    0.00000000    0.00000000
     atom    3 type  2   force =     0.00000000    0.00000000    0.00000000
     atom    4 type  2   force =     0.00000000    0.00000000   -0.00000000
     The Hubbard contrib.    to forces
     atom    1 type  1   force =     0.00000000    0.00000000    0.00000000
     atom    2 type  2   force =     0.00000000    0.00000000    0.00000000
     atom    3 type  2   force =     0.00000000    0.00000000    0.00000000
     atom    4 type  2   force =     0.00000000    0.00000000    0.00000000
     The SCF correction term to forces
     atom    1 type  1   force =     0.00000000   -0.00000000   -0.00000000
     atom    2 type  2   force =     0.00000000    0.00000000   -0.00000000
     atom    3 type  2   force =    -0.00000000   -0.00000000   -0.00000000
     atom    4 type  2   force =    -0.00000000   -0.00000000    0.00000000

     Total force =     0.000000     Total SCF correction =     0.000000


     Computing stress (Cartesian axis) and pressure

          total   stress  (Ry/bohr**3)                   (kbar)     P=      499.99
   0.00339883   0.00000000   0.00000000          499.99        0.00        0.00
   0.00000000   0.00339883   0.00000000            0.00      499.99        0.00
   0.00000000   0.00000000   0.00339883            0.00        0.00      499.99

     Energy error            =      6.7E-07 Ry
     Gradient error          =      0.0E+00 Ry/Bohr
     Cell gradient error     =      1.4E-02 kbar
ibrav =      1
 celldm(1) =      6.47304872
Input lattice vectors:
     0.98246043     0.00000000     0.00000000
     0.00000000     0.98246043     0.00000000
     0.00000000     0.00000000     0.98246043
New lattice vectors in INITIAL alat:
     0.98246043     0.00000000     0.00000000
     0.00000000     0.98246043     0.00000000
     0.00000000     0.00000000     0.98246043
New lattice vectors in NEW alat (for information only):
     1.00000000     0.00000000     0.00000000
     0.00000000     1.00000000     0.00000000
     0.00000000     0.00000000     1.00000000
Discrepancy in bohr =     0.000000    0.000000    0.000000

     bfgs converged in   4 scf cycles and   3 bfgs steps
     (criteria: energy <  1.0E-04 Ry, force <  1.0E-03 Ry/Bohr, cell <  1.0E+00 kbar)

     End of BFGS Geometry Optimization

     Final enthalpy           =     -38.6886822464 Ry

     File ./output/LiSi.bfgs deleted, as requested
Begin final coordinates
     new unit-cell volume =    271.22307 a.u.^3 (    40.19111 Ang^3 )
     density =      3.76792 g/cm^3

CELL_PARAMETERS (alat=  6.58861010)
   0.982460431   0.000000000   0.000000000
   0.000000000   0.982460431   0.000000000
   0.000000000   0.000000000   0.982460431

ATOMIC_POSITIONS (crystal)
Li            0.0000000000        0.0000000000        0.0000000000
Si            0.0000000000        0.5000000000        0.5000000000
Si            0.5000000000        0.0000000000        0.5000000000
Si            0.5000000000        0.5000000000        0.0000000000
End final coordinates



     Writing config-only to output data dir ./output/LiSi.save/

     Final scf calculation at the relaxed structure.
     The G-vectors are recalculated for the final unit cell
     Results may differ from those at the preceding step.

     Parallelization info
     --------------------
     sticks:   dense  smooth     PW     G-vecs:    dense   smooth      PW
     Min         133     133     38                 3267     3267     516
     Max         134     134     39                 3270     3270     518
     Sum        1069    1069    305                26145    26145    4139

     Using Slab Decomposition



     bravais-lattice index     =            1
     lattice parameter (alat)  =       6.5886  a.u.
     unit-cell volume          =     271.2231 (a.u.)^3
     number of atoms/cell      =            4
     number of atomic types    =            2
     number of electrons       =        15.00
     number of Kohn-Sham states=           12
     kinetic-energy cutoff     =      80.0000  Ry
     charge density cutoff     =     320.0000  Ry
     scf convergence threshold =      1.0E-10
     mixing beta               =       0.7000
     number of iterations used =            8  plain     mixing
     press convergence thresh. =      1.0E+00
     Exchange-correlation= PBE
                           (   1   4   3   4   0   0   0)

     celldm(1)=   6.588610  celldm(2)=   0.000000  celldm(3)=   0.000000
     celldm(4)=   0.000000  celldm(5)=   0.000000  celldm(6)=   0.000000

     crystal axes: (cart. coord. in units of alat)
               a(1) = (   0.982460   0.000000   0.000000 )  
               a(2) = (   0.000000   0.982460   0.000000 )  
               a(3) = (   0.000000   0.000000   0.982460 )  

     reciprocal axes: (cart. coord. in units 2 pi/alat)
               b(1) = (  1.017853  0.000000  0.000000 )  
               b(2) = (  0.000000  1.017853  0.000000 )  
               b(3) = (  0.000000  0.000000  1.017853 )  


     PseudoPot. # 1 for Li read from file:
     ../pseudo/Li_ONCV_PBE_sr.upf
     MD5 check sum: 50ff420e78310ffa21704f3361e624a4
     Pseudo is Norm-conserving, Zval =  3.0
     Generated using ONCVPSP code by D. R. Hamann
     Using radial grid of 1944 points,  4 beta functions with: 
                l(1) =   0
                l(2) =   0
                l(3) =   1
                l(4) =   1

     PseudoPot. # 2 for Si read from file:
     ../pseudo/Si_ONCV_PBE_sr.upf
     MD5 check sum: e543d271109d17c80368dfa7c482276d
     Pseudo is Norm-conserving + core correction, Zval =  4.0
     Generated using ONCVPSP code by D. R. Hamann
     Using radial grid of 1510 points,  6 beta functions with: 
                l(1) =   0
                l(2) =   0
                l(3) =   1
                l(4) =   1
                l(5) =   2
                l(6) =   2

     atomic species   valence    mass     pseudopotential
        Li             3.00     6.94100     Li( 1.00)
        Si             4.00    28.08550     Si( 1.00)

     48 Sym. Ops., with inversion, found



   Cartesian axes

     site n.     atom                  positions (alat units)
         1           Li  tau(   1) = (   0.0000000   0.0000000   0.0000000  )
         2           Si  tau(   2) = (   0.0000000   0.4912302   0.4912302  )
         3           Si  tau(   3) = (   0.4912302   0.0000000   0.4912302  )
         4           Si  tau(   4) = (   0.4912302   0.4912302   0.0000000  )

     number of k points=    20  Marzari-Vanderbilt smearing, width (Ry)=  0.0200
                       cart. coord. in units 2pi/alat
        k(    1) = (   0.0000000   0.0000000   0.0000000), wk =   0.0058309
        k(    2) = (   0.0000000   0.0000000   0.1454075), wk =   0.0349854
        k(    3) = (   0.0000000   0.0000000   0.2908151), wk =   0.0349854
        k(    4) = (   0.0000000   0.0000000   0.4362226), wk =   0.0349854
        k(    5) = (   0.0000000   0.1454075   0.1454075), wk =   0.0699708
        k(    6) = (   0.0000000   0.1454075   0.2908151), wk =   0.1399417
        k(    7) = (   0.0000000   0.1454075   0.4362226), wk =   0.1399417
        k(    8) = (   0.0000000   0.2908151   0.2908151), wk =   0.0699708
        k(    9) = (   0.0000000   0.2908151   0.4362226), wk =   0.1399417
        k(   10) = (   0.0000000   0.4362226   0.4362226), wk =   0.0699708
        k(   11) = (   0.1454075   0.1454075   0.1454075), wk =   0.0466472
        k(   12) = (   0.1454075   0.1454075   0.2908151), wk =   0.1399417
        k(   13) = (   0.1454075   0.1454075   0.4362226), wk =   0.1399417
        k(   14) = (   0.1454075   0.2908151   0.2908151), wk =   0.1399417
        k(   15) = (   0.1454075   0.2908151   0.4362226), wk =   0.2798834
        k(   16) = (   0.1454075   0.4362226   0.4362226), wk =   0.1399417
        k(   17) = (   0.2908151   0.2908151   0.2908151), wk =   0.0466472
        k(   18) = (   0.2908151   0.2908151   0.4362226), wk =   0.1399417
        k(   19) = (   0.2908151   0.4362226   0.4362226), wk =   0.1399417
        k(   20) = (   0.4362226   0.4362226   0.4362226), wk =   0.0466472

     Dense  grid:    26145 G-vectors     FFT dimensions: (  40,  40,  40)

     Estimated max dynamical RAM per process >      15.85 MB

     Estimated total dynamical RAM >     126.78 MB

     Initial potential from superposition of free atoms

     starting charge      14.9936, renormalised to      15.0000
     Starting wfcs are   14 randomized atomic wfcs

     total cpu time spent up to now is       11.4 secs

     Self-consistent Calculation

     iteration #  1     ecut=    80.00 Ry     beta= 0.70
     Davidson diagonalization with overlap
     c_bands:  1 eigenvalues not converged
     c_bands:  1 eigenvalues not converged
     c_bands:  1 eigenvalues not converged
     c_bands:  1 eigenvalues not converged
     c_bands:  2 eigenvalues not converged
     c_bands:  1 eigenvalues not converged
     c_bands:  1 eigenvalues not converged
     c_bands:  2 eigenvalues not converged
     ethr =  1.00E-06,  avg # of iterations = 19.1

     total cpu time spent up to now is       12.1 secs

     total energy              =     -39.61058171 Ry
     estimated scf accuracy    <       0.01918565 Ry

     iteration #  2     ecut=    80.00 Ry     beta= 0.70
     Davidson diagonalization with overlap
     ethr =  1.28E-04,  avg # of iterations =  1.4

     total cpu time spent up to now is       12.3 secs

     total energy              =     -39.61048579 Ry
     estimated scf accuracy    <       0.00134764 Ry

     iteration #  3     ecut=    80.00 Ry     beta= 0.70
     Davidson diagonalization with overlap
     ethr =  8.98E-06,  avg # of iterations =  1.3

     total cpu time spent up to now is       12.4 secs

     total energy              =     -39.61054001 Ry
     estimated scf accuracy    <       0.00000622 Ry

     iteration #  4     ecut=    80.00 Ry     beta= 0.70
     Davidson diagonalization with overlap
     ethr =  4.15E-08,  avg # of iterations =  3.4

     total cpu time spent up to now is       12.6 secs

     total energy              =     -39.61054307 Ry
     estimated scf accuracy    <       0.00000068 Ry

     iteration #  5     ecut=    80.00 Ry     beta= 0.70
     Davidson diagonalization with overlap
     ethr =  4.53E-09,  avg # of iterations =  2.0

     total cpu time spent up to now is       12.8 secs

     total energy              =     -39.61054318 Ry
     estimated scf accuracy    <       0.00000003 Ry

     iteration #  6     ecut=    80.00 Ry     beta= 0.70
     Davidson diagonalization with overlap
     ethr =  2.07E-10,  avg # of iterations =  2.6

     total cpu time spent up to now is       13.0 secs

     total energy              =     -39.61054319 Ry
     estimated scf accuracy    <          1.4E-09 Ry

     iteration #  7     ecut=    80.00 Ry     beta= 0.70
     Davidson diagonalization with overlap
     ethr =  9.53E-12,  avg # of iterations =  2.9

     total cpu time spent up to now is       13.2 secs

     End of self-consistent calculation

          k = 0.0000 0.0000 0.0000 (  3239 PWs)   bands (ev):

   -32.9193  -2.5695   7.9207   7.9207   7.9207  10.0034  10.0034  12.8663
    19.0240  19.0240  19.0241  19.1698

          k = 0.0000 0.0000 0.1454 (  3263 PWs)   bands (ev):

   -32.9186  -2.3524   5.9841   8.1440   8.1440  10.2452  11.4612  13.8346
    16.4348  16.4348  17.8611  19.3852

          k = 0.0000 0.0000 0.2908 (  3250 PWs)   bands (ev):

   -32.9171  -1.7259   3.6484   8.8010   8.8010  10.9608  12.0171  13.9575
    13.9575  15.8075  17.0516  19.4905

          k = 0.0000 0.0000 0.4362 (  3290 PWs)   bands (ev):

   -32.9158  -0.8734   1.9106   9.7719   9.7719  12.0632  12.0632  12.0883
    12.1616  13.9100  18.8319  20.7265

          k = 0.0000 0.1454 0.1454 (  3263 PWs)   bands (ev):

   -32.9179  -2.1338   5.9157   6.5336   8.3671  10.9938  12.8342  14.1180
    14.7838  16.3772  17.0309  18.4825

          k = 0.0000 0.1454 0.2908 (  3269 PWs)   bands (ev):

   -32.9164  -1.5018   3.8295   6.9130   9.0237  11.1136  12.7951  13.8055
    14.1684  16.9961  17.2675  17.3612

          k = 0.0000 0.1454 0.4362 (  3291 PWs)   bands (ev):

   -32.9152  -0.6352   2.0907   7.7913   9.9937  10.0165  12.2823  12.8428
    14.1857  15.5970  18.1753  19.3897

          k = 0.0000 0.2908 0.2908 (  3265 PWs)   bands (ev):

   -32.9149  -0.8504   4.0299   4.9341   9.4910   9.6791  12.9059  14.5607
    15.0997  16.3151  17.4233  18.1116

          k = 0.0000 0.2908 0.4362 (  3292 PWs)   bands (ev):

   -32.9138   0.0657   2.5909   5.3489   7.9638  10.6488  12.9112  13.5510
    15.7007  15.7365  18.3448  18.6245

          k = 0.0000 0.4362 0.4362 (  3265 PWs)   bands (ev):

   -32.9126   1.1159   3.0590   3.5434   6.5410  11.6349  13.6521  13.8988
    14.5472  16.0494  16.7896  16.8257

          k = 0.1454 0.1454 0.1454 (  3266 PWs)   bands (ev):

   -32.9173  -1.9139   6.1530   6.1530   7.0848  12.9505  12.9505  14.2567
    14.5561  14.5561  16.2368  19.6415

          k = 0.1454 0.1454 0.2908 (  3281 PWs)   bands (ev):

   -32.9158  -1.2769   4.0215   6.8594   7.3877  11.7532  12.5159  14.0224
    14.7702  15.4004  17.7225  18.4923

          k = 0.1454 0.1454 0.4362 (  3278 PWs)   bands (ev):

   -32.9146  -0.3973   2.2770   7.9756   7.9890   9.8011  11.2453  15.0267
    15.0906  16.1935  16.6374  18.9235

          k = 0.1454 0.2908 0.2908 (  3281 PWs)   bands (ev):

   -32.9143  -0.6224   4.2720   5.0750   7.6871   9.9479  12.5055  13.5897
    14.9959  17.4628  18.1897  19.0374

          k = 0.1454 0.2908 0.4362 (  3275 PWs)   bands (ev):

   -32.9132   0.3032   2.7976   5.5651   7.8533   8.9129  11.3128  13.8312
    15.8098  17.1271  17.8186  19.1722

          k = 0.1454 0.4362 0.4362 (  3276 PWs)   bands (ev):

   -32.9121   1.3539   3.3029   3.7641   6.5759   9.7551  11.6112  12.1176
    15.8073  16.9130  18.4432  19.0623

          k = 0.2908 0.2908 0.2908 (  3269 PWs)   bands (ev):

   -32.9130   0.0436   4.9937   4.9937   5.9023  10.0347  10.0347  11.9708
    16.6651  18.2909  18.2909  19.8401

          k = 0.2908 0.2908 0.4362 (  3283 PWs)   bands (ev):

   -32.9119   1.0026   3.3858   6.1595   6.1901   7.9646   9.5863  11.5140
    15.5493  19.3872  19.5635  20.8445

          k = 0.2908 0.4362 0.4362 (  3271 PWs)   bands (ev):

   -32.9108   2.0565   4.0300   4.3983   6.5726   7.4384   9.1121   9.7885
    14.6105  20.4976  21.8639  22.4565

          k = 0.4362 0.4362 0.4362 (  3274 PWs)   bands (ev):

   -32.9098   3.1257   5.2051   5.2051   5.2593   7.0225   7.0225   7.9442
    13.8823  24.0169  24.0169  24.5908

     the Fermi energy is    13.7039 ev

!    total energy              =     -39.61054319 Ry
     estimated scf accuracy    <          5.6E-11 Ry
     smearing contrib. (-TS)   =      -0.00210808 Ry
     internal energy E=F+TS    =     -39.60843511 Ry

     The total energy is F=E-TS. E is the sum of the following terms:
     one-electron contribution =      11.11408748 Ry
     hartree contribution      =       2.90691553 Ry
     xc contribution           =     -13.52629895 Ry
     ewald contribution        =     -40.10313918 Ry

     convergence has been achieved in   7 iterations

     Forces acting on atoms (cartesian axes, Ry/au):

     atom    1 type  1   force =     0.00000000    0.00000000    0.00000000
     atom    2 type  2   force =     0.00000000    0.00000000    0.00000000
     atom    3 type  2   force =     0.00000000    0.00000000    0.00000000
     atom    4 type  2   force =     0.00000000    0.00000000    0.00000000
     The non-local contrib.  to forces
     atom    1 type  1   force =     0.00000000    0.00000000    0.00000000
     atom    2 type  2   force =     0.00000000    0.00000000    0.00000000
     atom    3 type  2   force =     0.00000000    0.00000000    0.00000000
     atom    4 type  2   force =     0.00000000    0.00000000    0.00000000
     The ionic contribution  to forces
     atom    1 type  1   force =    -0.00000000   -0.00000000   -0.00000000
     atom    2 type  2   force =    -0.00000000    0.00000000    0.00000000
     atom    3 type  2   force =     0.00000000   -0.00000000    0.00000000
     atom    4 type  2   force =     0.00000000    0.00000000   -0.00000000
     The local contribution  to forces
     atom    1 type  1   force =    -0.00000000    0.00000000    0.00000000
     atom    2 type  2   force =    -0.00000000   -0.00000000   -0.00000000
     atom    3 type  2   force =    -0.00000000   -0.00000000    0.00000000
     atom    4 type  2   force =     0.00000000   -0.00000000    0.00000000
     The core correction contribution to forces
     atom    1 type  1   force =     0.00000000    0.00000000    0.00000000
     atom    2 type  2   force =    -0.00000000   -0.00000000   -0.00000000
     atom    3 type  2   force =    -0.00000000    0.00000000   -0.00000000
     atom    4 type  2   force =    -0.00000000   -0.00000000    0.00000000
     The Hubbard contrib.    to forces
     atom    1 type  1   force =     0.00000000    0.00000000    0.00000000
     atom    2 type  2   force =     0.00000000    0.00000000    0.00000000
     atom    3 type  2   force =     0.00000000    0.00000000    0.00000000
     atom    4 type  2   force =     0.00000000    0.00000000    0.00000000
     The SCF correction term to forces
     atom    1 type  1   force =    -0.00000000   -0.00000000   -0.00000000
     atom    2 type  2   force =    -0.00000000   -0.00000000   -0.00000000
     atom    3 type  2   force =    -0.00000000   -0.00000000   -0.00000000
     atom    4 type  2   force =     0.00000000   -0.00000000    0.00000000

     Total force =     0.000000     Total SCF correction =     0.000000


     Computing stress (Cartesian axis) and pressure

          total   stress  (Ry/bohr**3)                   (kbar)     P=      499.97
   0.00339873   0.00000000   0.00000000          499.97        0.00        0.00
   0.00000000   0.00339873   0.00000000            0.00      499.97        0.00
   0.00000000   0.00000000   0.00339873            0.00        0.00      499.97


     Writing all to output data dir ./output/LiSi.save/

     init_run     :      0.82s CPU      0.99s WALL (       2 calls)
     electrons    :      6.80s CPU      7.90s WALL (       5 calls)
     update_pot   :      0.90s CPU      0.93s WALL (       3 calls)
     forces       :      0.87s CPU      0.94s WALL (       5 calls)
     stress       :      2.64s CPU      2.83s WALL (       5 calls)

     Called by init_run:
     wfcinit      :      0.14s CPU      0.15s WALL (       2 calls)
     potinit      :      0.26s CPU      0.34s WALL (       2 calls)
     hinit0       :      0.39s CPU      0.44s WALL (       2 calls)

     Called by electrons:
     c_bands      :      5.76s CPU      6.50s WALL (      35 calls)
     sum_band     :      0.76s CPU      0.82s WALL (      35 calls)
     v_of_rho     :      0.30s CPU      0.62s WALL (      37 calls)
     mix_rho      :      0.02s CPU      0.04s WALL (      35 calls)

     Called by c_bands:
     init_us_2    :      0.19s CPU      0.21s WALL (    1640 calls)
     init_us_2:cp :      0.19s CPU      0.21s WALL (    1640 calls)
     cegterg      :      5.23s CPU      5.42s WALL (     700 calls)

     Called by *egterg:
     cdiaghg      :      0.47s CPU      0.48s WALL (    2847 calls)
     h_psi        :      4.29s CPU      4.45s WALL (    3007 calls)
     g_psi        :      0.03s CPU      0.03s WALL (    2267 calls)

     Called by h_psi:
     h_psi:calbec :      0.37s CPU      0.38s WALL (    3007 calls)
     vloc_psi     :      3.62s CPU      3.77s WALL (    3007 calls)
     add_vuspsi   :      0.27s CPU      0.28s WALL (    3007 calls)

     General routines
     calbec       :      0.49s CPU      0.50s WALL (    3507 calls)
     fft          :      0.60s CPU      1.05s WALL (     496 calls)
     ffts         :      0.02s CPU      0.04s WALL (      35 calls)
     fftw         :      3.67s CPU      3.81s WALL (   58146 calls)

     Parallel routines

     PWSCF        :     12.23s CPU     14.04s WALL


   This run was terminated on:  11:52:41  29Dec2024            

=------------------------------------------------------------------------------=
   JOB DONE.
=------------------------------------------------------------------------------=
