
     Program PWSCF v.7.2 starts on 29Dec2024 at 19: 5:52 

     This program is part of the open-source Quantum ESPRESSO suite
     for quantum simulation of materials; please cite
         "P. Giannozzi et al., J. Phys.:Condens. Matter 21 395502 (2009);
         "P. Giannozzi et al., J. Phys.:Condens. Matter 29 465901 (2017);
         "P. Giannozzi et al., J. Chem. Phys. 152 154105 (2020);
          URL http://www.quantum-espresso.org", 
     in publications or presentations arising from this work. More details at
     http://www.quantum-espresso.org/quote

     Parallel version (MPI & OpenMP), running on       8 processor cores
     Number of MPI processes:                 8
     Threads/MPI process:                     1

     MPI processes distributed on     1 nodes
     482882 MiB available memory on the printing compute node when the environment starts

     Waiting for input...
     Reading input from standard input

     Current dimensions of program PWSCF are:
     Max number of different atomic species (ntypx) = 10
     Max number of k-points (npk) =  40000
     Max angular momentum in pseudopotentials (lmaxx) =  4

     R & G space division:  proc/nbgrp/npool/nimage =       8
     Subspace diagonalization in iterative solution of the eigenvalue problem:
     a serial algorithm will be used


     Parallelization info
     --------------------
     sticks:   dense  smooth     PW     G-vecs:    dense   smooth      PW
     Min         104     104     30                13272    13272    2036
     Max         106     106     31                13281    13281    2049
     Sum         835     835    241               106193   106193   16315

     Using Slab Decomposition



     bravais-lattice index     =            4
     lattice parameter (alat)  =       6.1325  a.u.
     unit-cell volume          =    1097.1743 (a.u.)^3
     number of atoms/cell      =            8
     number of atomic types    =            2
     number of electrons       =        26.00
     number of Kohn-Sham states=           17
     kinetic-energy cutoff     =      80.0000  Ry
     charge density cutoff     =     320.0000  Ry
     scf convergence threshold =      1.0E-08
     mixing beta               =       0.7000
     number of iterations used =            8  plain     mixing
     energy convergence thresh.=      1.0E-04
     force convergence thresh. =      1.0E-03
     press convergence thresh. =      1.0E+00
     Exchange-correlation= PBE
                           (   1   4   3   4   0   0   0)
     nstep                     =           50


     celldm(1)=   6.132546  celldm(2)=   0.000000  celldm(3)=   5.493164
     celldm(4)=   0.000000  celldm(5)=   0.000000  celldm(6)=   0.000000

     crystal axes: (cart. coord. in units of alat)
               a(1) = (   1.000000   0.000000   0.000000 )  
               a(2) = (  -0.500000   0.866025   0.000000 )  
               a(3) = (   0.000000   0.000000   5.493164 )  

     reciprocal axes: (cart. coord. in units 2 pi/alat)
               b(1) = (  1.000000  0.577350 -0.000000 )  
               b(2) = (  0.000000  1.154701  0.000000 )  
               b(3) = (  0.000000 -0.000000  0.182044 )  


     PseudoPot. # 1 for Li read from file:
     ../pseudo/Li_ONCV_PBE_sr.upf
     MD5 check sum: 50ff420e78310ffa21704f3361e624a4
     Pseudo is Norm-conserving, Zval =  3.0
     Generated using ONCVPSP code by D. R. Hamann
     Using radial grid of 1944 points,  4 beta functions with: 
                l(1) =   0
                l(2) =   0
                l(3) =   1
                l(4) =   1

     PseudoPot. # 2 for Si read from file:
     ../pseudo/Si_ONCV_PBE_sr.upf
     MD5 check sum: e543d271109d17c80368dfa7c482276d
     Pseudo is Norm-conserving + core correction, Zval =  4.0
     Generated using ONCVPSP code by D. R. Hamann
     Using radial grid of 1510 points,  6 beta functions with: 
                l(1) =   0
                l(2) =   0
                l(3) =   1
                l(4) =   1
                l(5) =   2
                l(6) =   2

     atomic species   valence    mass     pseudopotential
        Li             3.00     6.94100     Li( 1.00)
        Si             4.00    28.08550     Si( 1.00)

      6 Sym. Ops. (no inversion) found



   Cartesian axes

     site n.     atom                  positions (alat units)
         1           Li  tau(   1) = (   0.0000000   0.0000000   1.4443836  )
         2           Li  tau(   2) = (   0.0000000   0.0000000   4.4542256  )
         3           Li  tau(   3) = (  -0.0000000   0.5773503   3.6268123  )
         4           Li  tau(   4) = (  -0.0000000   0.5773503   5.2809194  )
         5           Li  tau(   5) = (   0.5000000   0.2886751   0.6148114  )
         6           Li  tau(   6) = (   0.5000000   0.2886751   2.5359852  )
         7           Si  tau(   7) = (   0.0000000   0.0000000   2.1524799  )
         8           Si  tau(   8) = (  -0.0000000   0.5773503   2.9182985  )

     number of k points=    28  Marzari-Vanderbilt smearing, width (Ry)=  0.0200
                       cart. coord. in units 2pi/alat
        k(    1) = (   0.0000000   0.0000000   0.0000000), wk =   0.0100000
        k(    2) = (   0.0000000   0.0000000  -0.0910222), wk =   0.0100000
        k(    3) = (   0.0000000   0.1154701   0.0000000), wk =   0.0600000
        k(    4) = (   0.0000000   0.1154701  -0.0910222), wk =   0.0600000
        k(    5) = (   0.0000000   0.2309401   0.0000000), wk =   0.0600000
        k(    6) = (   0.0000000   0.2309401  -0.0910222), wk =   0.0600000
        k(    7) = (   0.0000000   0.3464102   0.0000000), wk =   0.0600000
        k(    8) = (   0.0000000   0.3464102  -0.0910222), wk =   0.0600000
        k(    9) = (   0.0000000   0.4618802   0.0000000), wk =   0.0600000
        k(   10) = (   0.0000000   0.4618802  -0.0910222), wk =   0.0600000
        k(   11) = (   0.0000000  -0.5773503   0.0000000), wk =   0.0300000
        k(   12) = (   0.0000000  -0.5773503  -0.0910222), wk =   0.0300000
        k(   13) = (   0.1000000   0.1732051   0.0000000), wk =   0.0600000
        k(   14) = (   0.1000000   0.1732051  -0.0910222), wk =   0.0600000
        k(   15) = (   0.1000000   0.2886751   0.0000000), wk =   0.1200000
        k(   16) = (   0.1000000   0.2886751  -0.0910222), wk =   0.1200000
        k(   17) = (   0.1000000   0.4041452   0.0000000), wk =   0.1200000
        k(   18) = (   0.1000000   0.4041452  -0.0910222), wk =   0.1200000
        k(   19) = (   0.1000000   0.5196152   0.0000000), wk =   0.1200000
        k(   20) = (   0.1000000   0.5196152  -0.0910222), wk =   0.1200000
        k(   21) = (   0.2000000   0.3464102   0.0000000), wk =   0.0600000
        k(   22) = (   0.2000000   0.3464102  -0.0910222), wk =   0.0600000
        k(   23) = (   0.2000000   0.4618802   0.0000000), wk =   0.1200000
        k(   24) = (   0.2000000   0.4618802  -0.0910222), wk =   0.1200000
        k(   25) = (   0.2000000   0.5773503   0.0000000), wk =   0.0600000
        k(   26) = (   0.2000000   0.5773503  -0.0910222), wk =   0.0600000
        k(   27) = (   0.3000000   0.5196152   0.0000000), wk =   0.0600000
        k(   28) = (   0.3000000   0.5196152  -0.0910222), wk =   0.0600000

     Dense  grid:   106193 G-vectors     FFT dimensions: (  36,  36, 192)

     Estimated max dynamical RAM per process >      35.93 MB

     Estimated total dynamical RAM >     287.45 MB

     Initial potential from superposition of free atoms

     starting charge      25.9714, renormalised to      26.0000
     Starting wfcs are   20 randomized atomic wfcs

     total cpu time spent up to now is        3.3 secs

     Self-consistent Calculation

     iteration #  1     ecut=    80.00 Ry     beta= 0.70
     Davidson diagonalization with overlap
     ethr =  1.00E-02,  avg # of iterations =  4.1

     total cpu time spent up to now is        5.3 secs

     total energy              =    -100.03338610 Ry
     estimated scf accuracy    <       3.61878912 Ry

     iteration #  2     ecut=    80.00 Ry     beta= 0.70
     Davidson diagonalization with overlap
     ethr =  1.00E-02,  avg # of iterations = 10.4

     total cpu time spent up to now is        8.3 secs

     total energy              =     -97.33789693 Ry
     estimated scf accuracy    <     256.02818028 Ry

     iteration #  3     ecut=    80.00 Ry     beta= 0.70
     Davidson diagonalization with overlap
     ethr =  1.00E-02,  avg # of iterations =  7.6

     total cpu time spent up to now is       11.0 secs

     total energy              =    -102.16178994 Ry
     estimated scf accuracy    <      22.98787020 Ry

     iteration #  4     ecut=    80.00 Ry     beta= 0.70
     Davidson diagonalization with overlap
     ethr =  1.00E-02,  avg # of iterations =  3.4

     total cpu time spent up to now is       12.5 secs

     total energy              =    -102.99504060 Ry
     estimated scf accuracy    <       2.92486345 Ry

     iteration #  5     ecut=    80.00 Ry     beta= 0.70
     Davidson diagonalization with overlap
     ethr =  1.00E-02,  avg # of iterations =  1.5

     total cpu time spent up to now is       13.7 secs

     total energy              =    -103.09859400 Ry
     estimated scf accuracy    <       0.14162367 Ry

     iteration #  6     ecut=    80.00 Ry     beta= 0.70
     Davidson diagonalization with overlap
     ethr =  5.45E-04,  avg # of iterations =  5.7

     total cpu time spent up to now is       15.3 secs

     total energy              =    -103.13297323 Ry
     estimated scf accuracy    <       0.17678090 Ry

     iteration #  7     ecut=    80.00 Ry     beta= 0.70
     Davidson diagonalization with overlap
     ethr =  5.45E-04,  avg # of iterations =  1.4

     total cpu time spent up to now is       16.5 secs

     total energy              =    -103.13764172 Ry
     estimated scf accuracy    <       0.07007481 Ry

     iteration #  8     ecut=    80.00 Ry     beta= 0.70
     Davidson diagonalization with overlap
     ethr =  2.70E-04,  avg # of iterations =  1.0

     total cpu time spent up to now is       17.6 secs

     total energy              =    -103.13660243 Ry
     estimated scf accuracy    <       0.12366315 Ry

     iteration #  9     ecut=    80.00 Ry     beta= 0.70
     Davidson diagonalization with overlap
     ethr =  2.70E-04,  avg # of iterations =  1.0

     total cpu time spent up to now is       18.7 secs

     total energy              =    -103.13044846 Ry
     estimated scf accuracy    <       0.07630988 Ry

     iteration # 10     ecut=    80.00 Ry     beta= 0.70
     Davidson diagonalization with overlap
     ethr =  2.70E-04,  avg # of iterations =  1.0

     total cpu time spent up to now is       19.8 secs

     total energy              =    -103.13474785 Ry
     estimated scf accuracy    <       0.01385610 Ry

     iteration # 11     ecut=    80.00 Ry     beta= 0.70
     Davidson diagonalization with overlap
     ethr =  5.33E-05,  avg # of iterations =  1.6

     total cpu time spent up to now is       20.9 secs

     total energy              =    -103.13466321 Ry
     estimated scf accuracy    <       0.00364182 Ry

     iteration # 12     ecut=    80.00 Ry     beta= 0.70
     Davidson diagonalization with overlap
     ethr =  1.40E-05,  avg # of iterations =  2.2

     total cpu time spent up to now is       22.1 secs

     total energy              =    -103.13476915 Ry
     estimated scf accuracy    <       0.00008581 Ry

     iteration # 13     ecut=    80.00 Ry     beta= 0.70
     Davidson diagonalization with overlap
     ethr =  3.30E-07,  avg # of iterations =  5.6

     total cpu time spent up to now is       23.5 secs

     total energy              =    -103.13477328 Ry
     estimated scf accuracy    <       0.00001386 Ry

     iteration # 14     ecut=    80.00 Ry     beta= 0.70
     Davidson diagonalization with overlap
     ethr =  5.33E-08,  avg # of iterations =  2.5

     total cpu time spent up to now is       24.8 secs

     total energy              =    -103.13477519 Ry
     estimated scf accuracy    <       0.00000028 Ry

     iteration # 15     ecut=    80.00 Ry     beta= 0.70
     Davidson diagonalization with overlap
     ethr =  1.09E-09,  avg # of iterations =  4.7

     total cpu time spent up to now is       26.2 secs

     total energy              =    -103.13477527 Ry
     estimated scf accuracy    <       0.00000012 Ry

     iteration # 16     ecut=    80.00 Ry     beta= 0.70
     Davidson diagonalization with overlap
     ethr =  4.65E-10,  avg # of iterations =  1.9

     total cpu time spent up to now is       27.4 secs

     total energy              =    -103.13477528 Ry
     estimated scf accuracy    <       0.00000003 Ry

     iteration # 17     ecut=    80.00 Ry     beta= 0.70
     Davidson diagonalization with overlap
     ethr =  1.28E-10,  avg # of iterations =  2.0

     total cpu time spent up to now is       28.5 secs

     total energy              =    -103.13477528 Ry
     estimated scf accuracy    <       0.00000007 Ry

     iteration # 18     ecut=    80.00 Ry     beta= 0.70
     Davidson diagonalization with overlap
     ethr =  1.28E-10,  avg # of iterations =  1.0

     total cpu time spent up to now is       29.6 secs

     End of self-consistent calculation

          k = 0.0000 0.0000 0.0000 ( 13289 PWs)   bands (ev):

   -44.5037 -44.4981 -44.4740 -44.4416 -44.4373 -43.3426  -8.1589  -6.3394
    -1.5763  -0.7532  -0.4149   0.6537   1.1759   2.4959   4.8125   6.4425
     6.6450

          k = 0.0000 0.0000-0.0910 ( 13224 PWs)   bands (ev):

   -44.5037 -44.4981 -44.4740 -44.4416 -44.4373 -43.3426  -8.1589  -6.3394
    -1.5715  -0.8341  -0.1929   0.2857   1.6828   2.1106   5.3314   5.9477
     6.4425

          k = 0.0000 0.1155 0.0000 ( 13245 PWs)   bands (ev):

   -44.5032 -44.4975 -44.4735 -44.4410 -44.4368 -43.3416  -8.0118  -6.1696
    -1.4441  -0.6052  -0.2647   0.8053   1.3267   2.6512   4.6685   4.8854
     5.4044

          k = 0.0000 0.1155-0.0910 ( 13260 PWs)   bands (ev):

   -44.5032 -44.4975 -44.4735 -44.4410 -44.4368 -43.3416  -8.0118  -6.1696
    -1.4397  -0.6846  -0.0449   0.4370   1.8467   2.2487   4.6735   5.3855
     5.4044

          k = 0.0000 0.2309 0.0000 ( 13255 PWs)   bands (ev):

   -44.5017 -44.4960 -44.4721 -44.4396 -44.4353 -43.3389  -7.5749  -5.6673
    -1.0592  -0.1633   0.1813   1.2475   1.7351   2.4222   3.0943   4.3529
     4.4646

          k = 0.0000 0.2309-0.0910 ( 13262 PWs)   bands (ev):

   -44.5017 -44.4960 -44.4721 -44.4396 -44.4353 -43.3389  -7.5749  -5.6673
    -1.0558  -0.2373   0.3931   0.8777   2.2863   2.3623   2.7158   4.3529
     4.4903

          k = 0.0000 0.3464 0.0000 ( 13269 PWs)   bands (ev):

   -44.4998 -44.4942 -44.4704 -44.4378 -44.4335 -43.3355  -6.8692  -4.8671
    -0.6131   0.3550   0.5880   0.9813   1.8185   2.4190   2.5756   3.5582
     3.8008

          k = 0.0000 0.3464-0.0910 ( 13264 PWs)   bands (ev):

   -44.4998 -44.4942 -44.4704 -44.4378 -44.4335 -43.3355  -6.8692  -4.8671
    -0.6123   0.3526   0.5522   1.0958   1.6839   2.2278   3.1314   3.3986
     3.5582

          k = 0.0000 0.4619 0.0000 ( 13265 PWs)   bands (ev):

   -44.4984 -44.4927 -44.4690 -44.4363 -44.4321 -43.3328  -5.9806  -3.9502
    -1.5466   0.0620   0.8281   1.5954   1.9527   2.8577   3.0707   3.3929
     3.6924

          k = 0.0000 0.4619-0.0910 ( 13270 PWs)   bands (ev):

   -44.4984 -44.4927 -44.4690 -44.4363 -44.4321 -43.3328  -5.9806  -3.9502
    -1.5466   0.0620   0.8326   1.5310   2.1153   2.6429   3.0707   3.3757
     4.0714

          k = 0.0000-0.5774 0.0000 ( 13256 PWs)   bands (ev):

   -44.4978 -44.4921 -44.4685 -44.4358 -44.4315 -43.3318  -5.3937  -3.6864
    -1.4351  -1.3688   1.4392   2.4681   2.5396   2.9068   2.9301   3.2275
     3.6589

          k = 0.0000-0.5774-0.0910 ( 13304 PWs)   bands (ev):

   -44.4978 -44.4921 -44.4685 -44.4358 -44.4315 -43.3318  -5.3937  -3.6864
    -1.4351  -1.3688   1.4394   2.4187   2.6933   2.7564   2.9068   3.3326
     3.6585

          k = 0.1000 0.1732 0.0000 ( 13263 PWs)   bands (ev):

   -44.5021 -44.4965 -44.4726 -44.4400 -44.4358 -43.3397  -7.7195  -5.8334
    -1.1833  -0.3098   0.0340   1.1042   1.6171   2.9345   3.2360   4.0170
     4.9506

          k = 0.1000 0.1732-0.0910 ( 13260 PWs)   bands (ev):

   -44.5021 -44.4965 -44.4726 -44.4400 -44.4358 -43.3397  -7.7195  -5.8334
    -1.1795  -0.3860   0.2491   0.7350   2.1676   2.4978   3.2329   4.0173
     5.4167

          k = 0.1000 0.2887 0.0000 ( 13255 PWs)   bands (ev):

   -44.5005 -44.4948 -44.4710 -44.4384 -44.4342 -43.3367  -7.1450  -5.1792
    -0.6951   0.2756   0.5950   1.2025   1.6746   2.2731   2.8390   3.3850
     4.0321

          k = 0.1000 0.2887-0.0910 ( 13270 PWs)   bands (ev):

   -44.5005 -44.4948 -44.4710 -44.4384 -44.4342 -43.3367  -7.1450  -5.1792
    -0.6928   0.2053   0.8147   1.0595   1.5032   2.6975   2.8896   2.9950
     4.0216

          k = 0.1000 0.4041 0.0000 ( 13267 PWs)   bands (ev):

   -44.4988 -44.4931 -44.4695 -44.4368 -44.4325 -43.3337  -6.3272  -4.2875
    -0.8938   0.2571   1.0606   1.3183   1.5546   2.4551   2.6628   3.1366
     4.0062

          k = 0.1000 0.4041-0.0910 ( 13248 PWs)   bands (ev):

   -44.4988 -44.4931 -44.4695 -44.4368 -44.4325 -43.3337  -6.3272  -4.2875
    -0.8938   0.2586   1.0990   1.1814   1.7764   2.2537   2.5651   3.4691
     3.9037

          k = 0.1000 0.5196 0.0000 ( 13274 PWs)   bands (ev):

   -44.4978 -44.4921 -44.4685 -44.4358 -44.4315 -43.3318  -5.4580  -3.6544
    -1.6529  -0.6049   1.2018   2.0022   2.2478   2.5859   3.1385   3.5529
     3.8431

          k = 0.1000 0.5196-0.0910 ( 13268 PWs)   bands (ev):

   -44.4978 -44.4921 -44.4685 -44.4358 -44.4315 -43.3318  -5.4580  -3.6544
    -1.6529  -0.6049   1.2025   2.0008   2.2226   2.6472   3.1333   3.4470
     3.9031

          k = 0.2000 0.3464 0.0000 ( 13247 PWs)   bands (ev):

   -44.4990 -44.4933 -44.4696 -44.4369 -44.4327 -43.3340  -6.4470  -4.4186
    -0.1681  -0.1371   1.0021   1.4152   1.5238   2.2581   2.7783   3.2010
     3.3285

          k = 0.2000 0.3464-0.0910 ( 13246 PWs)   bands (ev):

   -44.4990 -44.4933 -44.4696 -44.4369 -44.4327 -43.3340  -6.4470  -4.4186
    -0.1684  -0.1361   0.9720   1.4635   1.5669   2.1325   2.8826   2.9504
     3.8716

          k = 0.2000 0.4619 0.0000 ( 13230 PWs)   bands (ev):

   -44.4978 -44.4921 -44.4685 -44.4358 -44.4315 -43.3318  -5.5488  -3.6550
    -1.3052   0.3964   0.4147   1.6575   2.0183   2.4160   2.6237   3.5540
     3.9060

          k = 0.2000 0.4619-0.0910 ( 13242 PWs)   bands (ev):

   -44.4978 -44.4921 -44.4685 -44.4358 -44.4315 -43.3318  -5.5488  -3.6550
    -1.3052   0.3965   0.4148   1.6631   1.9984   2.3499   2.9154   3.1154
     4.0104

          k = 0.2000 0.5774 0.0000 ( 13258 PWs)   bands (ev):

   -44.4973 -44.4916 -44.4681 -44.4353 -44.4311 -43.3309  -4.9032  -3.6462
    -1.0157  -0.8711   0.5326   1.5183   2.8299   3.0418   3.1067   3.4491
     3.7659

          k = 0.2000 0.5774-0.0910 ( 13242 PWs)   bands (ev):

   -44.4973 -44.4916 -44.4681 -44.4353 -44.4311 -43.3309  -4.9032  -3.6462
    -1.0157  -0.8711   0.5326   1.5183   2.8317   2.9951   3.2422   3.3062
     3.8358

          k = 0.3000 0.5196 0.0000 ( 13225 PWs)   bands (ev):

   -44.4972 -44.4915 -44.4679 -44.4352 -44.4309 -43.3306  -4.6342  -3.6960
    -0.9390  -0.2031   0.1069   0.7157   2.5093   3.2029   3.3244   3.6582
     4.2765

          k = 0.3000 0.5196-0.0910 ( 13224 PWs)   bands (ev):

   -44.4972 -44.4915 -44.4679 -44.4352 -44.4309 -43.3306  -4.6342  -3.6960
    -0.9390  -0.2031   0.1069   0.7157   2.5116   3.1370   3.4345   3.6374
     4.1853

     the Fermi energy is     2.3119 ev

!    total energy              =    -103.13477528 Ry
     estimated scf accuracy    <          8.2E-10 Ry
     smearing contrib. (-TS)   =      -0.00194303 Ry
     internal energy E=F+TS    =    -103.13283225 Ry

     The total energy is F=E-TS. E is the sum of the following terms:
     one-electron contribution =     -97.50561312 Ry
     hartree contribution      =      44.70635805 Ry
     xc contribution           =     -26.15880256 Ry
     ewald contribution        =     -24.17477462 Ry

     convergence has been achieved in  18 iterations

     Forces acting on atoms (cartesian axes, Ry/au):

     atom    1 type  1   force =     0.00000000    0.00000000   -0.03981101
     atom    2 type  1   force =     0.00000000    0.00000000    0.00082924
     atom    3 type  1   force =     0.00000000    0.00000000    0.03951935
     atom    4 type  1   force =     0.00000000    0.00000000    0.00002334
     atom    5 type  1   force =     0.00000000   -0.00000000   -0.00074144
     atom    6 type  1   force =     0.00000000    0.00000000   -0.00060172
     atom    7 type  2   force =     0.00000000    0.00000000   -0.00753336
     atom    8 type  2   force =     0.00000000    0.00000000    0.00831560
     The non-local contrib.  to forces
     atom    1 type  1   force =     0.00000000   -0.00000000   -0.04711846
     atom    2 type  1   force =     0.00000000   -0.00000000    0.00128121
     atom    3 type  1   force =     0.00000000    0.00000000    0.04669782
     atom    4 type  1   force =     0.00000000   -0.00000000    0.00007669
     atom    5 type  1   force =     0.00000000    0.00000000   -0.00092716
     atom    6 type  1   force =     0.00000000   -0.00000000   -0.00014544
     atom    7 type  2   force =     0.00000000    0.00000000    0.07493226
     atom    8 type  2   force =     0.00000000    0.00000000   -0.07349989
     The ionic contribution  to forces
     atom    1 type  1   force =     0.00000000   -0.00000000   -4.44155642
     atom    2 type  1   force =    -0.00000000    0.00000000    2.12254468
     atom    3 type  1   force =     0.00000000   -0.00000000    4.43213667
     atom    4 type  1   force =     0.00000000   -0.00000000    0.00940292
     atom    5 type  1   force =    -0.00000000    0.00000000   -2.10831307
     atom    6 type  1   force =    -0.00000003    0.00000002   -0.00349544
     atom    7 type  2   force =     0.00000001   -0.00000001   -4.27537914
     atom    8 type  2   force =     0.00000002   -0.00000001    4.26465980
     The local contribution  to forces
     atom    1 type  1   force =     0.00000000    0.00000000    4.44887369
     atom    2 type  1   force =     0.00000000   -0.00000000   -2.12301024
     atom    3 type  1   force =     0.00000062   -0.00000036   -4.43932340
     atom    4 type  1   force =     0.00000061   -0.00000035   -0.00945630
     atom    5 type  1   force =    -0.00000061    0.00000035    2.10852388
     atom    6 type  1   force =    -0.00000060    0.00000035    0.00302458
     atom    7 type  2   force =    -0.00000000    0.00000000    4.19651775
     atom    8 type  2   force =     0.00000001   -0.00000001   -4.18638993
     The core correction contribution to forces
     atom    1 type  1   force =     0.00000000    0.00000000    0.00000000
     atom    2 type  1   force =     0.00000000    0.00000000    0.00000000
     atom    3 type  1   force =     0.00000000    0.00000000    0.00000000
     atom    4 type  1   force =     0.00000000    0.00000000    0.00000000
     atom    5 type  1   force =     0.00000000    0.00000000    0.00000000
     atom    6 type  1   force =     0.00000000    0.00000000    0.00000000
     atom    7 type  2   force =     0.00000000    0.00000000   -0.00363901
     atom    8 type  2   force =    -0.00000000    0.00000000    0.00354867
     The Hubbard contrib.    to forces
     atom    1 type  1   force =     0.00000000    0.00000000    0.00000000
     atom    2 type  1   force =     0.00000000    0.00000000    0.00000000
     atom    3 type  1   force =     0.00000000    0.00000000    0.00000000
     atom    4 type  1   force =     0.00000000    0.00000000    0.00000000
     atom    5 type  1   force =     0.00000000    0.00000000    0.00000000
     atom    6 type  1   force =     0.00000000    0.00000000    0.00000000
     atom    7 type  2   force =     0.00000000    0.00000000    0.00000000
     atom    8 type  2   force =     0.00000000    0.00000000    0.00000000
     The SCF correction term to forces
     atom    1 type  1   force =     0.00000000   -0.00000000   -0.00001119
     atom    2 type  1   force =    -0.00000000    0.00000000    0.00001221
     atom    3 type  1   force =     0.00000000   -0.00000000    0.00000689
     atom    4 type  1   force =     0.00000000   -0.00000000   -0.00000134
     atom    5 type  1   force =    -0.00000000    0.00000000   -0.00002646
     atom    6 type  1   force =    -0.00000000    0.00000000    0.00001321
     atom    7 type  2   force =     0.00000000   -0.00000000    0.00003341
     atom    8 type  2   force =     0.00000000   -0.00000000   -0.00000443

     Total force =     0.057221     Total SCF correction =     0.000048


     Computing stress (Cartesian axis) and pressure

          total   stress  (Ry/bohr**3)                   (kbar)     P=       28.26
   0.00009455   0.00000000   0.00000000           13.91        0.00        0.00
   0.00000000   0.00009455   0.00000000            0.00       13.91        0.00
   0.00000000   0.00000000   0.00038724            0.00        0.00       56.97


     BFGS Geometry Optimization
     Energy error            =      0.0E+00 Ry
     Gradient error          =      4.0E-02 Ry/Bohr
     Cell gradient error     =      4.9E+02 kbar

     number of scf cycles    =   1
     number of bfgs steps    =   0

     enthalpy           new  =     -99.4055556825 Ry

     new trust radius        =       0.5000000000 bohr
ibrav =      4
 celldm(1) =      5.66969288
 celldm(3) =      5.53288628
Input lattice vectors:
     0.92452516     0.00000000     0.00000000
    -0.46226258     0.80066228     0.00000000
     0.00000000     0.00000000     5.11529258
New lattice vectors in INITIAL alat:
     0.92452516     0.00000000     0.00000000
    -0.46226258     0.80066228     0.00000000
     0.00000000     0.00000000     5.11529258
New lattice vectors in NEW alat (for information only):
     1.00000000     0.00000000     0.00000000
    -0.50000000     0.86602540     0.00000000
     0.00000000     0.00000000     5.53288628
Discrepancy in bohr =     0.000000    0.000000    0.000000
     new conv_thr            =       0.0000000100 Ry

     new unit-cell volume =    873.29501 a.u.^3 (   129.40897 Ang^3 )
     density =      1.25516 g/cm^3

CELL_PARAMETERS (alat=  6.13254579)
   0.924525160   0.000000000   0.000000000
  -0.462262580   0.800662275   0.000000000
   0.000000000   0.000000000   5.115292576

ATOMIC_POSITIONS (crystal)
Li            0.0000000000        0.0000000000        0.2618622788
Li            0.0000000000        0.0000000000        0.8108894899
Li            0.3333333300        0.6666666700        0.6613128112
Li            0.3333333300        0.6666666700        0.9613626329
Li            0.6666666700        0.3333333300        0.1119028914
Li            0.6666666700        0.3333333300        0.4616456806
Si            0.0000000000        0.0000000000        0.3916426865
Si            0.3333333300        0.6666666700        0.5314855287



     Writing config-only to output data dir ./output/LiSi.save/
     NEW-OLD atomic charge density approx. for the potential
     extrapolated charge   19.34193, renormalised to   26.00000

     total cpu time spent up to now is       35.2 secs

     Self-consistent Calculation

     iteration #  1     ecut=    80.00 Ry     beta= 0.70
     Davidson diagonalization with overlap
     c_bands:  3 eigenvalues not converged
     c_bands:  2 eigenvalues not converged
     c_bands:  3 eigenvalues not converged
     c_bands:  3 eigenvalues not converged
     c_bands:  3 eigenvalues not converged
     c_bands:  3 eigenvalues not converged
     c_bands:  1 eigenvalues not converged
     c_bands:  1 eigenvalues not converged
     c_bands:  1 eigenvalues not converged
     c_bands:  1 eigenvalues not converged
     c_bands:  1 eigenvalues not converged
     c_bands:  3 eigenvalues not converged
     c_bands:  2 eigenvalues not converged
     c_bands:  2 eigenvalues not converged
     c_bands:  1 eigenvalues not converged
     c_bands:  1 eigenvalues not converged
     c_bands:  1 eigenvalues not converged
     c_bands:  3 eigenvalues not converged
     c_bands:  1 eigenvalues not converged
     c_bands:  1 eigenvalues not converged
     c_bands:  1 eigenvalues not converged
     c_bands:  2 eigenvalues not converged
     c_bands:  2 eigenvalues not converged
     ethr =  1.00E-06,  avg # of iterations = 19.8

     total cpu time spent up to now is       40.9 secs

     total energy              =     -63.65512177 Ry
     estimated scf accuracy    <      41.41673917 Ry

     iteration #  2     ecut=    80.00 Ry     beta= 0.70
     Davidson diagonalization with overlap
     c_bands:  1 eigenvalues not converged
     c_bands:  1 eigenvalues not converged
     c_bands:  2 eigenvalues not converged
     c_bands:  2 eigenvalues not converged
     c_bands:  1 eigenvalues not converged
     c_bands:  2 eigenvalues not converged
     c_bands:  1 eigenvalues not converged
     ethr =  1.00E-02,  avg # of iterations = 17.4

     total cpu time spent up to now is       46.3 secs

     total energy              =     -82.81178335 Ry
     estimated scf accuracy    <     767.10888386 Ry

     iteration #  3     ecut=    80.00 Ry     beta= 0.70
     Davidson diagonalization with overlap
     ethr =  1.00E-02,  avg # of iterations =  8.8

     total cpu time spent up to now is       49.5 secs

     total energy              =    -102.25400038 Ry
     estimated scf accuracy    <     176.08507770 Ry

     iteration #  4     ecut=    80.00 Ry     beta= 0.70
     Davidson diagonalization with overlap
     ethr =  1.00E-02,  avg # of iterations =  7.1

     total cpu time spent up to now is       51.7 secs

     total energy              =    -104.71530987 Ry
     estimated scf accuracy    <      68.81265912 Ry

     iteration #  5     ecut=    80.00 Ry     beta= 0.70
     Davidson diagonalization with overlap
     ethr =  1.00E-02,  avg # of iterations =  3.1

     total cpu time spent up to now is       53.1 secs

     total energy              =    -103.87817916 Ry
     estimated scf accuracy    <      30.98596749 Ry

     iteration #  6     ecut=    80.00 Ry     beta= 0.70
     Davidson diagonalization with overlap
     ethr =  1.00E-02,  avg # of iterations =  2.0

     total cpu time spent up to now is       54.3 secs

     total energy              =    -103.55974889 Ry
     estimated scf accuracy    <      21.30323544 Ry

     iteration #  7     ecut=    80.00 Ry     beta= 0.70
     Davidson diagonalization with overlap
     ethr =  1.00E-02,  avg # of iterations =  1.2

     total cpu time spent up to now is       55.4 secs

     total energy              =    -103.04624376 Ry
     estimated scf accuracy    <      12.43330392 Ry

     iteration #  8     ecut=    80.00 Ry     beta= 0.70
     Davidson diagonalization with overlap
     ethr =  1.00E-02,  avg # of iterations =  1.7

     total cpu time spent up to now is       56.5 secs

     total energy              =    -103.21721546 Ry
     estimated scf accuracy    <       3.59938392 Ry

     iteration #  9     ecut=    80.00 Ry     beta= 0.70
     Davidson diagonalization with overlap
     ethr =  1.00E-02,  avg # of iterations =  1.0

     total cpu time spent up to now is       57.6 secs

     total energy              =    -102.74467532 Ry
     estimated scf accuracy    <       4.17834896 Ry

     iteration # 10     ecut=    80.00 Ry     beta= 0.70
     Davidson diagonalization with overlap
     ethr =  1.00E-02,  avg # of iterations =  2.2

     total cpu time spent up to now is       58.8 secs

     total energy              =    -103.04631447 Ry
     estimated scf accuracy    <       0.48465785 Ry

     iteration # 11     ecut=    80.00 Ry     beta= 0.70
     Davidson diagonalization with overlap
     ethr =  1.86E-03,  avg # of iterations =  2.6

     total cpu time spent up to now is       60.0 secs

     total energy              =    -102.98794973 Ry
     estimated scf accuracy    <       1.14260176 Ry

     iteration # 12     ecut=    80.00 Ry     beta= 0.70
     Davidson diagonalization with overlap
     ethr =  1.86E-03,  avg # of iterations =  1.0

     total cpu time spent up to now is       61.0 secs

     total energy              =    -103.03404027 Ry
     estimated scf accuracy    <       0.03537895 Ry

     iteration # 13     ecut=    80.00 Ry     beta= 0.70
     Davidson diagonalization with overlap
     ethr =  1.36E-04,  avg # of iterations =  2.9

     total cpu time spent up to now is       62.2 secs

     total energy              =    -103.03532382 Ry
     estimated scf accuracy    <       0.02359570 Ry

     iteration # 14     ecut=    80.00 Ry     beta= 0.70
     Davidson diagonalization with overlap
     ethr =  9.08E-05,  avg # of iterations =  1.0

     total cpu time spent up to now is       63.3 secs

     total energy              =    -103.03469373 Ry
     estimated scf accuracy    <       0.01047921 Ry

     iteration # 15     ecut=    80.00 Ry     beta= 0.70
     Davidson diagonalization with overlap
     ethr =  4.03E-05,  avg # of iterations =  1.2

     total cpu time spent up to now is       64.4 secs

     total energy              =    -103.03473793 Ry
     estimated scf accuracy    <       0.00518208 Ry

     iteration # 16     ecut=    80.00 Ry     beta= 0.70
     Davidson diagonalization with overlap
     ethr =  1.99E-05,  avg # of iterations =  1.5

     total cpu time spent up to now is       65.5 secs

     total energy              =    -103.03478276 Ry
     estimated scf accuracy    <       0.00104371 Ry

     iteration # 17     ecut=    80.00 Ry     beta= 0.70
     Davidson diagonalization with overlap
     ethr =  4.01E-06,  avg # of iterations =  4.5

     total cpu time spent up to now is       66.7 secs

     total energy              =    -103.03480419 Ry
     estimated scf accuracy    <       0.00011624 Ry

     iteration # 18     ecut=    80.00 Ry     beta= 0.70
     Davidson diagonalization with overlap
     ethr =  4.47E-07,  avg # of iterations =  2.7

     total cpu time spent up to now is       67.9 secs

     total energy              =    -103.03481301 Ry
     estimated scf accuracy    <       0.00002834 Ry

     iteration # 19     ecut=    80.00 Ry     beta= 0.70
     Davidson diagonalization with overlap
     ethr =  1.09E-07,  avg # of iterations =  1.1

     total cpu time spent up to now is       69.0 secs

     total energy              =    -103.03481270 Ry
     estimated scf accuracy    <       0.00001078 Ry

     iteration # 20     ecut=    80.00 Ry     beta= 0.70
     Davidson diagonalization with overlap
     ethr =  4.15E-08,  avg # of iterations =  1.1

     total cpu time spent up to now is       70.1 secs

     total energy              =    -103.03481311 Ry
     estimated scf accuracy    <       0.00000044 Ry

     iteration # 21     ecut=    80.00 Ry     beta= 0.70
     Davidson diagonalization with overlap
     ethr =  1.69E-09,  avg # of iterations =  3.5

     total cpu time spent up to now is       71.4 secs

     total energy              =    -103.03481322 Ry
     estimated scf accuracy    <       0.00000007 Ry

     iteration # 22     ecut=    80.00 Ry     beta= 0.70
     Davidson diagonalization with overlap
     ethr =  2.73E-10,  avg # of iterations =  2.0

     total cpu time spent up to now is       72.6 secs

     total energy              =    -103.03481322 Ry
     estimated scf accuracy    <       0.00000002 Ry

     iteration # 23     ecut=    80.00 Ry     beta= 0.70
     Davidson diagonalization with overlap
     ethr =  6.44E-11,  avg # of iterations =  2.0

     total cpu time spent up to now is       73.7 secs

     End of self-consistent calculation

          k = 0.0000 0.0000 0.0000 ( 13289 PWs)   bands (ev):

   -42.9030 -42.8996 -42.8555 -42.8510 -42.8256 -42.6849  -8.1553  -6.1478
    -1.0144   0.1862   0.5575   1.6888   2.2619   3.6142   6.6738   9.0201
     9.5473

          k = 0.0000 0.0000-0.0977 ( 13224 PWs)   bands (ev):

   -42.9030 -42.8996 -42.8555 -42.8510 -42.8256 -42.6849  -8.1553  -6.1478
    -1.0127   0.1136   0.7756   1.3094   2.7859   3.2417   7.2654   7.7898
     8.7872

          k = 0.0000 0.1249 0.0000 ( 13245 PWs)   bands (ev):

   -42.9015 -42.8981 -42.8540 -42.8496 -42.8243 -42.6822  -7.9886  -5.9405
    -0.8703   0.3499   0.7238   1.8616   2.4364   3.8030   6.4506   6.7732
     7.2958

          k = 0.0000 0.1249-0.0977 ( 13260 PWs)   bands (ev):

   -42.9015 -42.8981 -42.8540 -42.8496 -42.8243 -42.6822  -7.9886  -5.9405
    -0.8686   0.2778   0.9414   1.4796   2.9774   3.4095   6.4769   7.3087
     7.8835

          k = 0.0000 0.2498 0.0000 ( 13255 PWs)   bands (ev):

   -42.8975 -42.8942 -42.8502 -42.8458 -42.8209 -42.6751  -7.4927  -5.3219
    -0.4523   0.8394   1.2200   2.3648   2.9438   3.7868   4.3359   5.9806
     6.5207

          k = 0.0000 0.2498-0.0977 ( 13262 PWs)   bands (ev):

   -42.8975 -42.8942 -42.8502 -42.8458 -42.8209 -42.6751  -7.4927  -5.3219
    -0.4510   0.7704   1.4319   1.9831   3.5135   3.8042   3.8832   5.9806
     6.5291

          k = 0.0000 0.3747 0.0000 ( 13269 PWs)   bands (ev):

   -42.8927 -42.8893 -42.8454 -42.8411 -42.8168 -42.6663  -6.6874  -4.3071
     0.0027   1.4643   1.6951   2.0759   3.0875   3.6789   3.9819   5.3486
     6.8420

          k = 0.0000 0.3747-0.0977 ( 13264 PWs)   bands (ev):

   -42.8927 -42.8893 -42.8454 -42.8411 -42.8168 -42.6663  -6.6874  -4.3071
     0.0031   1.4727   1.6293   2.2437   2.8378   3.6445   4.4608   4.9075
     6.9761

          k = 0.0000 0.4996 0.0000 ( 13265 PWs)   bands (ev):

   -42.8887 -42.8853 -42.8415 -42.8373 -42.8134 -42.6591  -5.6628  -2.9803
    -1.1029   1.1785   1.7653   2.7756   3.1408   4.1662   4.7569   5.1641
     6.2698

          k = 0.0000 0.4996-0.0977 ( 13270 PWs)   bands (ev):

   -42.8887 -42.8853 -42.8415 -42.8373 -42.8134 -42.6591  -5.6628  -2.9803
    -1.1029   1.1786   1.7682   2.7032   3.3393   3.8773   4.8430   5.5381
     5.8529

          k = 0.0000-0.6245 0.0000 ( 13256 PWs)   bands (ev):

   -42.8872 -42.8838 -42.8401 -42.8358 -42.8122 -42.6564  -4.9757  -2.5249
    -0.8694  -0.7771   2.5480   3.6247   3.7152   4.2457   4.5730   5.0780
     5.7498

          k = 0.0000-0.6245-0.0977 ( 13304 PWs)   bands (ev):

   -42.8872 -42.8838 -42.8401 -42.8358 -42.8122 -42.6564  -4.9757  -2.5249
    -0.8694  -0.7771   2.5483   3.5566   3.9036   4.0308   4.7366   5.0187
     5.7246

          k = 0.1082 0.1873 0.0000 ( 13263 PWs)   bands (ev):

   -42.8988 -42.8954 -42.8514 -42.8470 -42.8220 -42.6773  -7.6569  -5.5275
    -0.5857   0.6770   1.0556   2.2022   2.7798   4.1654   4.7643   5.6323
     6.8274

          k = 0.1082 0.1873-0.0977 ( 13260 PWs)   bands (ev):

   -42.8988 -42.8954 -42.8514 -42.8470 -42.8220 -42.6773  -7.6569  -5.5275
    -0.5842   0.6065   1.2707   1.8175   3.3530   3.7328   4.7587   5.6403
     7.3084

          k = 0.1082 0.3122 0.0000 ( 13255 PWs)   bands (ev):

   -42.8944 -42.8910 -42.8470 -42.8428 -42.8182 -42.6693  -7.0023  -4.7097
    -0.0582   1.3265   1.7002   2.3981   2.8675   3.4601   4.3789   4.7297
     5.7115

          k = 0.1082 0.3122-0.0977 ( 13270 PWs)   bands (ev):

   -42.8944 -42.8910 -42.8470 -42.8428 -42.8182 -42.6693  -7.0023  -4.7097
    -0.0572   1.2614   1.9047   2.3082   2.6004   4.0440   4.2475   4.4180
     5.6742

          k = 0.1082 0.4371 0.0000 ( 13267 PWs)   bands (ev):

   -42.8899 -42.8865 -42.8427 -42.8385 -42.8145 -42.6613  -6.0622  -3.5207
    -0.2752   1.2196   2.2484   2.5772   2.7114   3.7056   3.9487   4.4475
     5.6153

          k = 0.1082 0.4371-0.0977 ( 13248 PWs)   bands (ev):

   -42.8899 -42.8865 -42.8427 -42.8385 -42.8145 -42.6613  -6.0622  -3.5207
    -0.2752   1.2210   2.2467   2.4501   2.9913   3.4762   3.8006   4.9080
     5.3947

          k = 0.1082 0.5620 0.0000 ( 13274 PWs)   bands (ev):

   -42.8872 -42.8838 -42.8401 -42.8358 -42.8122 -42.6564  -5.0455  -2.4323
    -1.3266   0.2830   2.1974   3.1428   3.4887   3.8278   4.4982   4.9089
     5.2787

          k = 0.1082 0.5620-0.0977 ( 13268 PWs)   bands (ev):

   -42.8872 -42.8838 -42.8401 -42.8358 -42.8122 -42.6564  -5.0455  -2.4323
    -1.3266   0.2830   2.1979   3.1394   3.4588   3.9256   4.3950   4.8950
     5.3323

          k = 0.2163 0.3747 0.0000 ( 13247 PWs)   bands (ev):

   -42.8904 -42.8870 -42.8432 -42.8389 -42.8149 -42.6622  -6.1987  -3.7117
     0.5482   0.7093   2.1362   2.5612   2.9909   3.5273   4.0349   4.5497
     4.8456

          k = 0.2163 0.3747-0.0977 ( 13246 PWs)   bands (ev):

   -42.8904 -42.8870 -42.8432 -42.8389 -42.8149 -42.6622  -6.1987  -3.7117
     0.5486   0.7092   2.0975   2.6779   2.9939   3.3352   4.1659   4.3861
     5.3630

          k = 0.2163 0.4996 0.0000 ( 13230 PWs)   bands (ev):

   -42.8872 -42.8838 -42.8401 -42.8358 -42.8122 -42.6564  -5.1442  -2.4904
    -0.9361   1.1588   1.7059   2.7842   3.2582   3.6667   3.9108   4.9536
     5.3397

          k = 0.2163 0.4996-0.0977 ( 13242 PWs)   bands (ev):

   -42.8872 -42.8838 -42.8401 -42.8358 -42.8122 -42.6564  -5.1442  -2.4904
    -0.9361   1.1589   1.7060   2.7881   3.2336   3.6114   4.2429   4.4126
     5.6108

          k = 0.2163 0.6245 0.0000 ( 13258 PWs)   bands (ev):

   -42.8860 -42.8826 -42.8389 -42.8347 -42.8111 -42.6542  -4.3596  -2.5371
    -0.2655  -0.2377   1.3540   2.7710   4.0305   4.3535   4.3921   4.8712
     5.2287

          k = 0.2163 0.6245-0.0977 ( 13242 PWs)   bands (ev):

   -42.8860 -42.8826 -42.8389 -42.8347 -42.8111 -42.6542  -4.3596  -2.5371
    -0.2655  -0.2377   1.3540   2.7710   4.0321   4.2707   4.5870   4.6910
     5.3286

          k = 0.3245 0.5620 0.0000 ( 13225 PWs)   bands (ev):

   -42.8855 -42.8821 -42.8385 -42.8342 -42.8107 -42.6534  -4.0105  -2.6312
    -0.3842   0.6390   1.3029   1.5237   3.6775   4.5722   4.6419   5.1478
     5.7539

          k = 0.3245 0.5620-0.0977 ( 13224 PWs)   bands (ev):

   -42.8855 -42.8821 -42.8385 -42.8342 -42.8107 -42.6534  -4.0105  -2.6312
    -0.3842   0.6390   1.3029   1.5237   3.6786   4.4753   4.8330   5.0469
     5.6851

     the Fermi energy is     3.5483 ev

!    total energy              =    -103.03481323 Ry
     estimated scf accuracy    <          2.9E-10 Ry
     smearing contrib. (-TS)   =      -0.00145932 Ry
     internal energy E=F+TS    =    -103.03335390 Ry

     The total energy is F=E-TS. E is the sum of the following terms:
     one-electron contribution =     -94.97346057 Ry
     hartree contribution      =      44.81960204 Ry
     xc contribution           =     -26.61657939 Ry
     ewald contribution        =     -26.26291599 Ry

     convergence has been achieved in  23 iterations

     Forces acting on atoms (cartesian axes, Ry/au):

     atom    1 type  1   force =     0.00000000    0.00000000   -0.07059176
     atom    2 type  1   force =     0.00000000    0.00000000    0.00123088
     atom    3 type  1   force =     0.00000000   -0.00000000    0.07025886
     atom    4 type  1   force =     0.00000000    0.00000000    0.00005176
     atom    5 type  1   force =     0.00000000   -0.00000000   -0.00108833
     atom    6 type  1   force =     0.00000000    0.00000000   -0.00065405
     atom    7 type  2   force =     0.00000000    0.00000000   -0.04304272
     atom    8 type  2   force =     0.00000000    0.00000000    0.04383536
     The non-local contrib.  to forces
     atom    1 type  1   force =     0.00000000    0.00000000   -0.04241718
     atom    2 type  1   force =     0.00000000   -0.00000000    0.00170935
     atom    3 type  1   force =     0.00000000   -0.00000000    0.04215904
     atom    4 type  1   force =     0.00000000    0.00000000    0.00003343
     atom    5 type  1   force =     0.00000000    0.00000000   -0.00132834
     atom    6 type  1   force =     0.00000000    0.00000000   -0.00007240
     atom    7 type  2   force =     0.00000000    0.00000000    0.05853055
     atom    8 type  2   force =     0.00000000    0.00000000   -0.05715081
     The ionic contribution  to forces
     atom    1 type  1   force =     0.00000000   -0.00000000   -5.10668272
     atom    2 type  1   force =    -0.00000000    0.00000000    2.48055331
     atom    3 type  1   force =     0.00000000   -0.00000000    5.09659759
     atom    4 type  1   force =     0.00000000   -0.00000000    0.01100531
     atom    5 type  1   force =    -0.00000000    0.00000000   -2.46394533
     atom    6 type  1   force =    -0.00000004    0.00000002   -0.00448003
     atom    7 type  2   force =     0.00000001   -0.00000001   -5.02045981
     atom    8 type  2   force =     0.00000003   -0.00000002    5.00741168
     The local contribution  to forces
     atom    1 type  1   force =     0.00000000    0.00000000    5.07850287
     atom    2 type  1   force =     0.00000000   -0.00000000   -2.48104102
     atom    3 type  1   force =     0.00000057   -0.00000033   -5.06850131
     atom    4 type  1   force =     0.00000056   -0.00000032   -0.01097940
     atom    5 type  1   force =    -0.00000056    0.00000032    2.46419935
     atom    6 type  1   force =    -0.00000055    0.00000032    0.00389202
     atom    7 type  2   force =     0.00000000    0.00000000    4.92071451
     atom    8 type  2   force =     0.00000000   -0.00000000   -4.90818197
     The core correction contribution to forces
     atom    1 type  1   force =     0.00000000    0.00000000    0.00000000
     atom    2 type  1   force =     0.00000000    0.00000000    0.00000000
     atom    3 type  1   force =     0.00000000    0.00000000    0.00000000
     atom    4 type  1   force =     0.00000000    0.00000000    0.00000000
     atom    5 type  1   force =     0.00000000    0.00000000    0.00000000
     atom    6 type  1   force =     0.00000000    0.00000000    0.00000000
     atom    7 type  2   force =     0.00000000   -0.00000000   -0.00184665
     atom    8 type  2   force =    -0.00000000    0.00000000    0.00176157
     The Hubbard contrib.    to forces
     atom    1 type  1   force =     0.00000000    0.00000000    0.00000000
     atom    2 type  1   force =     0.00000000    0.00000000    0.00000000
     atom    3 type  1   force =     0.00000000    0.00000000    0.00000000
     atom    4 type  1   force =     0.00000000    0.00000000    0.00000000
     atom    5 type  1   force =     0.00000000    0.00000000    0.00000000
     atom    6 type  1   force =     0.00000000    0.00000000    0.00000000
     atom    7 type  2   force =     0.00000000    0.00000000    0.00000000
     atom    8 type  2   force =     0.00000000    0.00000000    0.00000000
     The SCF correction term to forces
     atom    1 type  1   force =    -0.00000000    0.00000000    0.00000449
     atom    2 type  1   force =     0.00000000   -0.00000000    0.00000845
     atom    3 type  1   force =    -0.00000000    0.00000000    0.00000276
     atom    4 type  1   force =    -0.00000000    0.00000000   -0.00000836
     atom    5 type  1   force =     0.00000000   -0.00000000   -0.00001479
     atom    6 type  1   force =     0.00000000   -0.00000000    0.00000558
     atom    7 type  2   force =    -0.00000000    0.00000000    0.00001791
     atom    8 type  2   force =    -0.00000000    0.00000000   -0.00000590

     Total force =     0.117034     Total SCF correction =     0.000028


     Computing stress (Cartesian axis) and pressure

          total   stress  (Ry/bohr**3)                   (kbar)     P=      126.16
   0.00065261   0.00000000   0.00000000           96.00        0.00        0.00
  -0.00000000   0.00065261   0.00000000           -0.00       96.00        0.00
   0.00000000   0.00000000   0.00126772            0.00        0.00      186.49

     Energy error            =      6.6E-01 Ry
     Gradient error          =      7.1E-02 Ry/Bohr
     Cell gradient error     =      4.0E+02 kbar

     number of scf cycles    =   2
     number of bfgs steps    =   1

     enthalpy           old  =     -99.4055556825 Ry
     enthalpy           new  =    -100.0665438047 Ry

     CASE: enthalpy          _new < enthalpy          _old

     new trust radius        =       0.7237443873 bohr
ibrav =      4
 celldm(1) =      4.97541352
 celldm(3) =      5.71927126
Input lattice vectors:
     0.81131290    -0.00000000     0.00000000
    -0.40565645     0.70261758     0.00000000
     0.00000000     0.00000000     4.64011856
New lattice vectors in INITIAL alat:
     0.81131290     0.00000000     0.00000000
    -0.40565645     0.70261758     0.00000000
     0.00000000     0.00000000     4.64011856
New lattice vectors in NEW alat (for information only):
     1.00000000     0.00000000     0.00000000
    -0.50000000     0.86602540     0.00000000
     0.00000000     0.00000000     5.71927126
Discrepancy in bohr =     0.000000    0.000000    0.000000
     new conv_thr            =       0.0000000071 Ry

     new unit-cell volume =    610.04079 a.u.^3 (    90.39872 Ang^3 )
     density =      1.79681 g/cm^3

CELL_PARAMETERS (alat=  6.13254579)
   0.811312901   0.000000000   0.000000000
  -0.405656450   0.702617583   0.000000000
   0.000000000   0.000000000   4.640118557

ATOMIC_POSITIONS (crystal)
Li            0.0000000000        0.0000000000        0.2580290320
Li            0.0000000000        0.0000000000        0.8109560801
Li            0.3333333300        0.6666666700        0.6651281723
Li            0.3333333300        0.6666666700        0.9613654546
Li            0.6666666700        0.3333333300        0.1118440282
Li            0.6666666700        0.3333333300        0.4616105932
Si            0.0000000000        0.0000000000        0.3892745888
Si            0.3333333300        0.6666666700        0.5338960509



     Writing config-only to output data dir ./output/LiSi.save/
     NEW-OLD atomic charge density approx. for the potential

     negative rho (up, down):  2.396E-04 0.000E+00
     extrapolated charge   14.79242, renormalised to   26.00000

     total cpu time spent up to now is       79.2 secs

     Self-consistent Calculation

     iteration #  1     ecut=    80.00 Ry     beta= 0.70
     Davidson diagonalization with overlap
     c_bands:  4 eigenvalues not converged
     c_bands:  2 eigenvalues not converged
     c_bands:  2 eigenvalues not converged
     c_bands:  3 eigenvalues not converged
     c_bands:  1 eigenvalues not converged
     c_bands:  1 eigenvalues not converged
     c_bands:  1 eigenvalues not converged
     c_bands:  5 eigenvalues not converged
     c_bands:  5 eigenvalues not converged
     c_bands:  2 eigenvalues not converged
     c_bands:  3 eigenvalues not converged
     c_bands:  1 eigenvalues not converged
     c_bands:  1 eigenvalues not converged
     c_bands:  1 eigenvalues not converged
     c_bands:  1 eigenvalues not converged
     c_bands:  1 eigenvalues not converged
     c_bands:  1 eigenvalues not converged
     c_bands:  1 eigenvalues not converged
     c_bands:  1 eigenvalues not converged
     c_bands:  1 eigenvalues not converged
     c_bands:  1 eigenvalues not converged
     ethr =  1.00E-06,  avg # of iterations = 38.0

     total cpu time spent up to now is       89.0 secs

     total energy              =     181.51310598 Ry
     estimated scf accuracy    <     287.99000548 Ry

     iteration #  2     ecut=    80.00 Ry     beta= 0.70
     Davidson diagonalization with overlap
     c_bands:  2 eigenvalues not converged
     c_bands:  1 eigenvalues not converged
     c_bands:  1 eigenvalues not converged
     ethr =  1.00E-02,  avg # of iterations = 33.1

     total cpu time spent up to now is      100.1 secs

     total energy              =    -182.76838616 Ry
     estimated scf accuracy    <    1449.71462356 Ry

     iteration #  3     ecut=    80.00 Ry     beta= 0.70
     Davidson diagonalization with overlap
     ethr =  1.00E-02,  avg # of iterations = 14.2

     total cpu time spent up to now is      104.5 secs

     total energy              =    -160.77568559 Ry
     estimated scf accuracy    <     454.52974674 Ry

     iteration #  4     ecut=    80.00 Ry     beta= 0.70
     Davidson diagonalization with overlap
     ethr =  1.00E-02,  avg # of iterations =  6.6

     total cpu time spent up to now is      106.5 secs

     total energy              =     -89.06874486 Ry
     estimated scf accuracy    <     395.42658339 Ry

     iteration #  5     ecut=    80.00 Ry     beta= 0.70
     Davidson diagonalization with overlap
     ethr =  1.00E-02,  avg # of iterations =  7.9

     total cpu time spent up to now is      109.1 secs

     total energy              =    -112.13439386 Ry
     estimated scf accuracy    <      43.44124592 Ry

     iteration #  6     ecut=    80.00 Ry     beta= 0.70
     Davidson diagonalization with overlap
     ethr =  1.00E-02,  avg # of iterations = 10.2

     total cpu time spent up to now is      112.2 secs

     total energy              =    -146.30942993 Ry
     estimated scf accuracy    <     397.80590998 Ry

     iteration #  7     ecut=    80.00 Ry     beta= 0.70
     Davidson diagonalization with overlap
     ethr =  1.00E-02,  avg # of iterations =  3.8

     total cpu time spent up to now is      113.5 secs

     total energy              =    -126.07215047 Ry
     estimated scf accuracy    <     402.72769524 Ry

     iteration #  8     ecut=    80.00 Ry     beta= 0.70
     Davidson diagonalization with overlap
     ethr =  1.00E-02,  avg # of iterations =  2.0

     total cpu time spent up to now is      114.5 secs

     total energy              =     -97.44938961 Ry
     estimated scf accuracy    <     353.69104969 Ry

     iteration #  9     ecut=    80.00 Ry     beta= 0.70
     Davidson diagonalization with overlap
     ethr =  1.00E-02,  avg # of iterations =  6.3

     total cpu time spent up to now is      116.5 secs

     total energy              =    -111.98325058 Ry
     estimated scf accuracy    <      75.57081266 Ry

     iteration # 10     ecut=    80.00 Ry     beta= 0.70
     Davidson diagonalization with overlap
     ethr =  1.00E-02,  avg # of iterations =  3.2

     negative rho (up, down):  1.063E-01 0.000E+00

     total cpu time spent up to now is      117.7 secs

     total energy              =     -21.93422279 Ry
     estimated scf accuracy    <     204.84854128 Ry

     iteration # 11     ecut=    80.00 Ry     beta= 0.70
     Davidson diagonalization with overlap
     c_bands:  4 eigenvalues not converged
     c_bands:  2 eigenvalues not converged
     c_bands:  1 eigenvalues not converged
     c_bands:  1 eigenvalues not converged
     c_bands:  2 eigenvalues not converged
     ethr =  1.00E-02,  avg # of iterations = 18.0

     negative rho (up, down):  8.062E-06 0.000E+00

     total cpu time spent up to now is      123.5 secs

     total energy              =    -115.09426247 Ry
     estimated scf accuracy    <     726.19095549 Ry

     iteration # 12     ecut=    80.00 Ry     beta= 0.70
     Davidson diagonalization with overlap
     ethr =  1.00E-02,  avg # of iterations =  8.8

     total cpu time spent up to now is      125.9 secs

     total energy              =     -84.37973834 Ry
     estimated scf accuracy    <     347.64706575 Ry

     iteration # 13     ecut=    80.00 Ry     beta= 0.70
     Davidson diagonalization with overlap
     ethr =  1.00E-02,  avg # of iterations =  8.1

     total cpu time spent up to now is      128.5 secs

     total energy              =     -99.03927621 Ry
     estimated scf accuracy    <      59.67206015 Ry

     iteration # 14     ecut=    80.00 Ry     beta= 0.70
     Davidson diagonalization with overlap
     ethr =  1.00E-02,  avg # of iterations =  6.0

     total cpu time spent up to now is      130.2 secs

     total energy              =    -103.57573193 Ry
     estimated scf accuracy    <      13.33622019 Ry

     iteration # 15     ecut=    80.00 Ry     beta= 0.70
     Davidson diagonalization with overlap
     ethr =  1.00E-02,  avg # of iterations =  3.9

     total cpu time spent up to now is      131.6 secs

     total energy              =    -103.27372706 Ry
     estimated scf accuracy    <       9.41665969 Ry

     iteration # 16     ecut=    80.00 Ry     beta= 0.70
     Davidson diagonalization with overlap
     ethr =  1.00E-02,  avg # of iterations =  1.9

     total cpu time spent up to now is      132.8 secs

     total energy              =    -103.29088998 Ry
     estimated scf accuracy    <       7.01488291 Ry

     iteration # 17     ecut=    80.00 Ry     beta= 0.70
     Davidson diagonalization with overlap
     ethr =  1.00E-02,  avg # of iterations =  1.9

     total cpu time spent up to now is      133.9 secs

     total energy              =    -103.70629189 Ry
     estimated scf accuracy    <      14.67863319 Ry

     iteration # 18     ecut=    80.00 Ry     beta= 0.70
     Davidson diagonalization with overlap
     ethr =  1.00E-02,  avg # of iterations =  1.0

     total cpu time spent up to now is      134.9 secs

     total energy              =    -103.64584006 Ry
     estimated scf accuracy    <      16.34114894 Ry

     iteration # 19     ecut=    80.00 Ry     beta= 0.70
     Davidson diagonalization with overlap
     ethr =  1.00E-02,  avg # of iterations =  1.6

     total cpu time spent up to now is      136.0 secs

     total energy              =    -103.80989797 Ry
     estimated scf accuracy    <      20.74058345 Ry

     iteration # 20     ecut=    80.00 Ry     beta= 0.70
     Davidson diagonalization with overlap
     ethr =  1.00E-02,  avg # of iterations =  2.7

     total cpu time spent up to now is      137.1 secs

     total energy              =    -102.19702201 Ry
     estimated scf accuracy    <      17.44082500 Ry

     iteration # 21     ecut=    80.00 Ry     beta= 0.70
     Davidson diagonalization with overlap
     ethr =  1.00E-02,  avg # of iterations =  2.2

     total cpu time spent up to now is      138.3 secs

     total energy              =    -102.38393487 Ry
     estimated scf accuracy    <       1.52438558 Ry

     iteration # 22     ecut=    80.00 Ry     beta= 0.70
     Davidson diagonalization with overlap
     ethr =  5.86E-03,  avg # of iterations =  2.5

     total cpu time spent up to now is      139.5 secs

     total energy              =    -102.49547445 Ry
     estimated scf accuracy    <       2.96641676 Ry

     iteration # 23     ecut=    80.00 Ry     beta= 0.70
     Davidson diagonalization with overlap
     ethr =  5.86E-03,  avg # of iterations =  1.3

     total cpu time spent up to now is      140.5 secs

     total energy              =    -102.61103223 Ry
     estimated scf accuracy    <       0.22248297 Ry

     iteration # 24     ecut=    80.00 Ry     beta= 0.70
     Davidson diagonalization with overlap
     ethr =  8.56E-04,  avg # of iterations =  3.1

     total cpu time spent up to now is      141.6 secs

     total energy              =    -102.62683463 Ry
     estimated scf accuracy    <       0.01930432 Ry

     iteration # 25     ecut=    80.00 Ry     beta= 0.70
     Davidson diagonalization with overlap
     ethr =  7.42E-05,  avg # of iterations =  4.6

     total cpu time spent up to now is      142.8 secs

     total energy              =    -102.62826355 Ry
     estimated scf accuracy    <       0.00293044 Ry

     iteration # 26     ecut=    80.00 Ry     beta= 0.70
     Davidson diagonalization with overlap
     ethr =  1.13E-05,  avg # of iterations =  3.0

     total cpu time spent up to now is      144.0 secs

     total energy              =    -102.62836554 Ry
     estimated scf accuracy    <       0.00120963 Ry

     iteration # 27     ecut=    80.00 Ry     beta= 0.70
     Davidson diagonalization with overlap
     ethr =  4.65E-06,  avg # of iterations =  2.0

     total cpu time spent up to now is      145.0 secs

     total energy              =    -102.62843326 Ry
     estimated scf accuracy    <       0.00047405 Ry

     iteration # 28     ecut=    80.00 Ry     beta= 0.70
     Davidson diagonalization with overlap
     ethr =  1.82E-06,  avg # of iterations =  1.9

     total cpu time spent up to now is      146.1 secs

     total energy              =    -102.62846325 Ry
     estimated scf accuracy    <       0.00001442 Ry

     iteration # 29     ecut=    80.00 Ry     beta= 0.70
     Davidson diagonalization with overlap
     ethr =  5.55E-08,  avg # of iterations =  2.6

     total cpu time spent up to now is      147.2 secs

     total energy              =    -102.62846474 Ry
     estimated scf accuracy    <       0.00000305 Ry

     iteration # 30     ecut=    80.00 Ry     beta= 0.70
     Davidson diagonalization with overlap
     ethr =  1.17E-08,  avg # of iterations =  2.0

     total cpu time spent up to now is      148.3 secs

     total energy              =    -102.62846497 Ry
     estimated scf accuracy    <       0.00000479 Ry

     iteration # 31     ecut=    80.00 Ry     beta= 0.70
     Davidson diagonalization with overlap
     ethr =  1.17E-08,  avg # of iterations =  1.0

     total cpu time spent up to now is      149.3 secs

     total energy              =    -102.62846512 Ry
     estimated scf accuracy    <       0.00000005 Ry

     iteration # 32     ecut=    80.00 Ry     beta= 0.70
     Davidson diagonalization with overlap
     ethr =  1.78E-10,  avg # of iterations =  3.5

     total cpu time spent up to now is      150.6 secs

     End of self-consistent calculation

          k = 0.0000 0.0000 0.0000 ( 13289 PWs)   bands (ev):

   -41.7513 -40.0703 -40.0699 -39.9268 -39.8880 -39.8729  -7.5983  -5.8918
     0.2903   2.2165   2.6163   3.7811   4.2072   5.4418  10.1518  12.6431
    13.0259

          k = 0.0000 0.0000-0.1078 ( 13224 PWs)   bands (ev):

   -41.7513 -40.0703 -40.0699 -39.9268 -39.8880 -39.8729  -7.5982  -5.8918
     0.2905   2.1577   2.8265   3.3474   4.8620   5.0278  10.9541  10.9759
    13.2064

          k = 0.0000 0.1423 0.0000 ( 13245 PWs)   bands (ev):

   -41.7407 -40.0640 -40.0636 -39.9199 -39.8823 -39.8681  -7.4006  -5.6199
     0.4419   2.4008   2.8041   3.9907   4.4198   5.6996   9.9888  10.7736
    11.5558

          k = 0.0000 0.1423-0.1078 ( 13260 PWs)   bands (ev):

   -41.7407 -40.0640 -40.0636 -39.9199 -39.8823 -39.8681  -7.4006  -5.6199
     0.4421   2.3409   3.0182   3.5459   5.1100   5.2515  10.3114  10.9741
    11.4015

          k = 0.0000 0.2846 0.0000 ( 13255 PWs)   bands (ev):

   -41.7131 -40.0474 -40.0471 -39.9018 -39.8673 -39.8554  -6.8141  -4.8078
     0.8822   2.9547   3.3670   4.6014   5.0397   6.4094   7.2170   9.8435
    10.2502

          k = 0.0000 0.2846-0.1078 ( 13262 PWs)   bands (ev):

   -41.7131 -40.0474 -40.0471 -39.9018 -39.8673 -39.8554  -6.8141  -4.8078
     0.8824   2.8932   3.5871   4.1358   5.8135   5.8831   7.2084   9.8435
    10.5298

          k = 0.0000 0.4270 0.0000 ( 13269 PWs)   bands (ev):

   -41.6788 -40.0269 -40.0266 -39.8789 -39.8488 -39.8401  -5.8672  -3.4674
     1.3953   3.8490   4.2752   4.4021   5.5737   5.9466   6.8865   8.1963
     8.5988

          k = 0.0000 0.4270-0.1078 ( 13264 PWs)   bands (ev):

   -41.6788 -40.0269 -40.0266 -39.8789 -39.8488 -39.8401  -5.8672  -3.4674
     1.3954   3.8121   4.2487   4.6480   5.0825   6.3910   6.9621   7.7982
     8.5988

          k = 0.0000 0.5693 0.0000 ( 13265 PWs)   bands (ev):

   -41.6510 -40.0103 -40.0100 -39.8597 -39.8343 -39.8279  -4.6792  -1.6289
     0.5855   3.6032   3.9444   5.1452   5.4903   6.7360   7.1743   7.8485
     8.2249

          k = 0.0000 0.5693-0.1078 ( 13270 PWs)   bands (ev):

   -41.6510 -40.0103 -40.0100 -39.8597 -39.8343 -39.8279  -4.6792  -1.6289
     0.5855   3.6034   3.9465   5.0498   5.7798   6.2395   7.6982   7.8485
     8.1659

          k = 0.0000-0.7116 0.0000 ( 13256 PWs)   bands (ev):

   -41.6404 -40.0040 -40.0036 -39.8521 -39.8289 -39.8233  -3.9116  -0.4541
     0.3066   1.2821   4.9037   5.9024   6.0914   6.8567   7.1517   7.5980
     7.8144

          k = 0.0000-0.7116-0.1078 ( 13304 PWs)   bands (ev):

   -41.6404 -40.0040 -40.0036 -39.8521 -39.8289 -39.8233  -3.9116  -0.4541
     0.3066   1.2821   4.9047   5.8255   6.3212   6.5359   7.4716   7.5980
     7.6518

          k = 0.1233 0.2135 0.0000 ( 13263 PWs)   bands (ev):

   -41.7216 -40.0525 -40.0522 -39.9075 -39.8719 -39.8593  -7.0080  -5.0779
     0.7434   2.7707   3.1801   4.4036   4.8375   6.1984   8.5150   9.1214
    10.4888

          k = 0.1233 0.2135-0.1078 ( 13260 PWs)   bands (ev):

   -41.7216 -40.0525 -40.0522 -39.9075 -39.8719 -39.8593  -7.0080  -5.0779
     0.7437   2.7092   3.3999   3.9409   5.5968   5.6803   8.5080   9.1807
    10.9376

          k = 0.1233 0.3558 0.0000 ( 13255 PWs)   bands (ev):

   -41.6907 -40.0340 -40.0337 -39.8869 -39.8552 -39.8453  -6.2348  -4.0014
     1.3074   3.5117   3.9312   5.1388   5.4413   5.6991   7.1408   7.8552
     9.2357

          k = 0.1233 0.3558-0.1078 ( 13270 PWs)   bands (ev):

   -41.6907 -40.0340 -40.0337 -39.8869 -39.8552 -39.8453  -6.2348  -4.0014
     1.3076   3.4512   4.1458   4.7185   5.4134   6.5125   6.5299   7.8793
     9.1685

          k = 0.1233 0.4981 0.0000 ( 13267 PWs)   bands (ev):

   -41.6597 -40.0155 -40.0151 -39.8658 -39.8387 -39.8316  -5.1303  -2.4087
     1.4225   3.5278   4.6061   5.0289   5.2797   6.3698   6.8859   6.9506
     8.7093

          k = 0.1233 0.4981-0.1078 ( 13248 PWs)   bands (ev):

   -41.6597 -40.0155 -40.0151 -39.8658 -39.8387 -39.8316  -5.1303  -2.4087
     1.4225   3.5292   4.5587   5.0520   5.5117   5.8680   6.8874   7.6479
     8.0954

          k = 0.1233 0.6405 0.0000 ( 13274 PWs)   bands (ev):

   -41.6405 -40.0040 -40.0036 -39.8522 -39.8289 -39.8233  -3.9581  -0.4057
    -0.0250   2.4138   4.3794   5.7431   5.9463   6.4144   7.2191   7.5999
     8.1338

          k = 0.1233 0.6405-0.1078 ( 13268 PWs)   bands (ev):

   -41.6405 -40.0040 -40.0036 -39.8522 -39.8289 -39.8233  -3.9581  -0.4057
    -0.0250   2.4138   4.3798   5.6943   6.0119   6.4697   7.0024   7.7848
     8.1190

          k = 0.2465 0.4270 0.0000 ( 13247 PWs)   bands (ev):

   -41.6630 -40.0174 -40.0171 -39.8681 -39.8404 -39.8331  -5.2823  -2.6712
     1.9934   3.2457   4.4483   4.8768   5.9606   6.3969   6.4232   7.3448
     8.2339

          k = 0.2465 0.4270-0.1078 ( 13246 PWs)   bands (ev):

   -41.6630 -40.0174 -40.0171 -39.8681 -39.8404 -39.8331  -5.2823  -2.6712
     1.9935   3.2457   4.3967   5.0559   5.6646   6.2523   6.7666   7.4568
     8.4240

          k = 0.2465 0.5693 0.0000 ( 13230 PWs)   bands (ev):

   -41.6405 -40.0040 -40.0037 -39.8523 -39.8289 -39.8232  -4.0269  -0.8548
     0.8277   2.9480   4.3504   5.5688   5.8068   6.1535   6.7620   7.6671
     8.0330

          k = 0.2465 0.5693-0.1078 ( 13242 PWs)   bands (ev):

   -41.6405 -40.0040 -40.0037 -39.8523 -39.8289 -39.8232  -4.0269  -0.8548
     0.8277   2.9480   4.3507   5.5874   5.7173   6.2953   6.8882   7.1194
     8.6229

          k = 0.2465 0.7116 0.0000 ( 13258 PWs)   bands (ev):

   -41.6319 -39.9989 -39.9986 -39.8461 -39.8248 -39.8194  -3.1002  -0.5244
     1.0579   2.0577   3.4175   5.5990   6.6043   6.9453   7.0811   7.7469
     8.0636

          k = 0.2465 0.7116-0.1078 ( 13242 PWs)   bands (ev):

   -41.6319 -39.9989 -39.9986 -39.8461 -39.8248 -39.8194  -3.1002  -0.5244
     1.0579   2.0577   3.4175   5.5994   6.6003   6.8738   7.3139   7.4665
     8.2702

          k = 0.3698 0.6405 0.0000 ( 13225 PWs)   bands (ev):

   -41.6287 -39.9970 -39.9966 -39.8437 -39.8233 -39.8178  -2.6152  -0.7030
     1.1646   2.5892   3.6299   4.3300   6.1233   7.2741   7.3128   8.0889
     8.6497

          k = 0.3698 0.6405-0.1078 ( 13224 PWs)   bands (ev):

   -41.6287 -39.9970 -39.9966 -39.8437 -39.8233 -39.8178  -2.6152  -0.7030
     1.1646   2.5892   3.6299   4.3300   6.1234   7.1407   7.6274   7.8294
     8.5934

     the Fermi energy is     5.9571 ev

!    total energy              =    -102.62846513 Ry
     estimated scf accuracy    <          4.3E-09 Ry
     smearing contrib. (-TS)   =       0.00113893 Ry
     internal energy E=F+TS    =    -102.62960406 Ry

     The total energy is F=E-TS. E is the sum of the following terms:
     one-electron contribution =     -89.08380440 Ry
     hartree contribution      =      44.52340546 Ry
     xc contribution           =     -27.44763732 Ry
     ewald contribution        =     -30.62156780 Ry

     convergence has been achieved in  32 iterations

     Forces acting on atoms (cartesian axes, Ry/au):

     atom    1 type  1   force =     0.00000000    0.00000000   -0.12518762
     atom    2 type  1   force =     0.00000000    0.00000000    0.00456901
     atom    3 type  1   force =     0.00000000   -0.00000000    0.12494680
     atom    4 type  1   force =     0.00000000    0.00000000    0.00012121
     atom    5 type  1   force =     0.00000000    0.00000000   -0.00440336
     atom    6 type  1   force =     0.00000000    0.00000000   -0.00021979
     atom    7 type  2   force =     0.00000000    0.00000000   -0.16653230
     atom    8 type  2   force =     0.00000000    0.00000000    0.16670605
     The non-local contrib.  to forces
     atom    1 type  1   force =     0.00000000   -0.00000000   -0.02464059
     atom    2 type  1   force =     0.00000000    0.00000000    0.00557756
     atom    3 type  1   force =     0.00000000   -0.00000000    0.02447539
     atom    4 type  1   force =    -0.00000000   -0.00000000    0.00001105
     atom    5 type  1   force =     0.00000000    0.00000000   -0.00500898
     atom    6 type  1   force =     0.00000000    0.00000000    0.00021185
     atom    7 type  2   force =     0.00000000    0.00000000   -0.05589473
     atom    8 type  2   force =     0.00000000    0.00000000    0.05650008
     The ionic contribution  to forces
     atom    1 type  1   force =     0.00000000   -0.00000000   -6.23019270
     atom    2 type  1   force =    -0.00000000    0.00000000    3.21033742
     atom    3 type  1   force =     0.00000000   -0.00000000    6.21962151
     atom    4 type  1   force =     0.00000000   -0.00000000    0.01413275
     atom    5 type  1   force =    -0.00000000    0.00000000   -3.18913281
     atom    6 type  1   force =    -0.00000004    0.00000002   -0.00676044
     atom    7 type  2   force =     0.00000001   -0.00000001   -6.47251777
     atom    8 type  2   force =     0.00000003   -0.00000002    6.45451203
     The local contribution  to forces
     atom    1 type  1   force =     0.00000000    0.00000000    6.12963336
     atom    2 type  1   force =     0.00000000   -0.00000000   -3.21132196
     atom    3 type  1   force =     0.00000049   -0.00000028   -6.11912487
     atom    4 type  1   force =     0.00000049   -0.00000028   -0.01401189
     atom    5 type  1   force =    -0.00000049    0.00000028    3.18971436
     atom    6 type  1   force =    -0.00000048    0.00000027    0.00632136
     atom    7 type  2   force =     0.00000000    0.00000000    6.35553806
     atom    8 type  2   force =    -0.00000001    0.00000000   -6.33794831
     The core correction contribution to forces
     atom    1 type  1   force =     0.00000000    0.00000000    0.00000000
     atom    2 type  1   force =     0.00000000    0.00000000    0.00000000
     atom    3 type  1   force =     0.00000000    0.00000000    0.00000000
     atom    4 type  1   force =     0.00000000    0.00000000    0.00000000
     atom    5 type  1   force =     0.00000000    0.00000000    0.00000000
     atom    6 type  1   force =     0.00000000    0.00000000    0.00000000
     atom    7 type  2   force =     0.00000000   -0.00000000    0.00641966
     atom    8 type  2   force =    -0.00000000    0.00000000   -0.00645400
     The Hubbard contrib.    to forces
     atom    1 type  1   force =     0.00000000    0.00000000    0.00000000
     atom    2 type  1   force =     0.00000000    0.00000000    0.00000000
     atom    3 type  1   force =     0.00000000    0.00000000    0.00000000
     atom    4 type  1   force =     0.00000000    0.00000000    0.00000000
     atom    5 type  1   force =     0.00000000    0.00000000    0.00000000
     atom    6 type  1   force =     0.00000000    0.00000000    0.00000000
     atom    7 type  2   force =     0.00000000    0.00000000    0.00000000
     atom    8 type  2   force =     0.00000000    0.00000000    0.00000000
     The SCF correction term to forces
     atom    1 type  1   force =    -0.00000000    0.00000000    0.00001289
     atom    2 type  1   force =    -0.00000000    0.00000000   -0.00002344
     atom    3 type  1   force =     0.00000000   -0.00000000   -0.00002466
     atom    4 type  1   force =     0.00000000   -0.00000000   -0.00001014
     atom    5 type  1   force =    -0.00000000    0.00000000    0.00002463
     atom    6 type  1   force =     0.00000000   -0.00000000    0.00000800
     atom    7 type  2   force =    -0.00000000    0.00000000   -0.00007696
     atom    8 type  2   force =     0.00000000   -0.00000000    0.00009682

     Total force =     0.294700     Total SCF correction =     0.000132


     Computing stress (Cartesian axis) and pressure

          total   stress  (Ry/bohr**3)                   (kbar)     P=      454.53
   0.00248550   0.00000000   0.00000000          365.63        0.00        0.00
   0.00000000   0.00248550  -0.00000000            0.00      365.63       -0.00
   0.00000000   0.00000000   0.00429848            0.00        0.00      632.33

     Energy error            =      4.9E-01 Ry
     Gradient error          =      1.7E-01 Ry/Bohr
     Cell gradient error     =      1.3E+02 kbar

     number of scf cycles    =   3
     number of bfgs steps    =   2

     enthalpy           old  =    -100.0665438047 Ry
     enthalpy           new  =    -100.5549786368 Ry

     CASE: enthalpy          _new < enthalpy          _old

     new trust radius        =       0.2961097180 bohr
ibrav =      4
 celldm(1) =      4.67716904
 celldm(3) =      6.04497381
Input lattice vectors:
     0.76267984     0.00000000     0.00000000
    -0.38133992     0.66050012     0.00000000
     0.00000000    -0.00000000     4.61037965
New lattice vectors in INITIAL alat:
     0.76267984     0.00000000     0.00000000
    -0.38133992     0.66050012     0.00000000
     0.00000000     0.00000000     4.61037965
New lattice vectors in NEW alat (for information only):
     1.00000000     0.00000000     0.00000000
    -0.50000000     0.86602540     0.00000000
     0.00000000     0.00000000     6.04497381
Discrepancy in bohr =     0.000000    0.000000    0.000000
     new conv_thr            =       0.0000000100 Ry

     new unit-cell volume =    535.64154 a.u.^3 (    79.37389 Ang^3 )
     density =      2.04638 g/cm^3

CELL_PARAMETERS (alat=  6.13254579)
   0.762679839   0.000000000   0.000000000
  -0.381339920   0.660500116   0.000000000
   0.000000000   0.000000000   4.610379652

ATOMIC_POSITIONS (crystal)
Li            0.0000000000        0.0000000000        0.2533331650
Li            0.0000000000        0.0000000000        0.8111122511
Li            0.3333333300        0.6666666700        0.6698124234
Li            0.3333333300        0.6666666700        0.9613697922
Li            0.6666666700        0.3333333300        0.1116946618
Li            0.6666666700        0.3333333300        0.4615955361
Si            0.0000000000        0.0000000000        0.3836654843
Si            0.3333333300        0.6666666700        0.5395206860



     Writing config-only to output data dir ./output/LiSi.save/
     NEW-OLD atomic charge density approx. for the potential
     extrapolated charge   22.39264, renormalised to   26.00000

     total cpu time spent up to now is      155.5 secs

     Self-consistent Calculation

     iteration #  1     ecut=    80.00 Ry     beta= 0.70
     Davidson diagonalization with overlap
     c_bands:  3 eigenvalues not converged
     c_bands:  3 eigenvalues not converged
     c_bands:  2 eigenvalues not converged
     c_bands:  2 eigenvalues not converged
     c_bands:  1 eigenvalues not converged
     c_bands:  1 eigenvalues not converged
     c_bands:  1 eigenvalues not converged
     c_bands:  1 eigenvalues not converged
     c_bands:  1 eigenvalues not converged
     c_bands:  3 eigenvalues not converged
     c_bands:  2 eigenvalues not converged
     c_bands:  1 eigenvalues not converged
     c_bands:  1 eigenvalues not converged
     c_bands:  1 eigenvalues not converged
     c_bands:  1 eigenvalues not converged
     ethr =  1.00E-06,  avg # of iterations = 18.6

     total cpu time spent up to now is      160.0 secs

     total energy              =     -60.70569420 Ry
     estimated scf accuracy    <      44.99479045 Ry

     iteration #  2     ecut=    80.00 Ry     beta= 0.70
     Davidson diagonalization with overlap
     c_bands:  1 eigenvalues not converged
     c_bands:  1 eigenvalues not converged
     c_bands:  1 eigenvalues not converged
     c_bands:  3 eigenvalues not converged
     c_bands:  2 eigenvalues not converged
     c_bands:  2 eigenvalues not converged
     ethr =  1.00E-02,  avg # of iterations = 17.6

     total cpu time spent up to now is      165.1 secs

     total energy              =     -81.13885507 Ry
     estimated scf accuracy    <     965.83783848 Ry

     iteration #  3     ecut=    80.00 Ry     beta= 0.70
     Davidson diagonalization with overlap
     ethr =  1.00E-02,  avg # of iterations =  7.9

     total cpu time spent up to now is      167.7 secs

     total energy              =    -101.36259013 Ry
     estimated scf accuracy    <     229.76483170 Ry

     iteration #  4     ecut=    80.00 Ry     beta= 0.70
     Davidson diagonalization with overlap
     ethr =  1.00E-02,  avg # of iterations =  6.4

     total cpu time spent up to now is      169.6 secs

     total energy              =    -103.36950336 Ry
     estimated scf accuracy    <     106.46251666 Ry

     iteration #  5     ecut=    80.00 Ry     beta= 0.70
     Davidson diagonalization with overlap
     ethr =  1.00E-02,  avg # of iterations =  3.2

     total cpu time spent up to now is      170.9 secs

     total energy              =    -103.53757262 Ry
     estimated scf accuracy    <      39.98261771 Ry

     iteration #  6     ecut=    80.00 Ry     beta= 0.70
     Davidson diagonalization with overlap
     ethr =  1.00E-02,  avg # of iterations =  2.1

     total cpu time spent up to now is      172.0 secs

     total energy              =    -103.78142883 Ry
     estimated scf accuracy    <      28.93336550 Ry

     iteration #  7     ecut=    80.00 Ry     beta= 0.70
     Davidson diagonalization with overlap
     ethr =  1.00E-02,  avg # of iterations =  1.0

     total cpu time spent up to now is      173.0 secs

     total energy              =    -103.00045687 Ry
     estimated scf accuracy    <      29.68164117 Ry

     iteration #  8     ecut=    80.00 Ry     beta= 0.70
     Davidson diagonalization with overlap
     ethr =  1.00E-02,  avg # of iterations =  1.1

     total cpu time spent up to now is      174.0 secs

     total energy              =    -102.65734158 Ry
     estimated scf accuracy    <      15.17734803 Ry

     iteration #  9     ecut=    80.00 Ry     beta= 0.70
     Davidson diagonalization with overlap
     ethr =  1.00E-02,  avg # of iterations =  1.1

     total cpu time spent up to now is      175.0 secs

     total energy              =    -102.42737243 Ry
     estimated scf accuracy    <       5.58694832 Ry

     iteration # 10     ecut=    80.00 Ry     beta= 0.70
     Davidson diagonalization with overlap
     ethr =  1.00E-02,  avg # of iterations =  1.4

     total cpu time spent up to now is      176.0 secs

     total energy              =    -102.32750432 Ry
     estimated scf accuracy    <       0.89555995 Ry

     iteration # 11     ecut=    80.00 Ry     beta= 0.70
     Davidson diagonalization with overlap
     ethr =  3.44E-03,  avg # of iterations =  4.0

     total cpu time spent up to now is      177.2 secs

[...]
     ethr =  1.00E-06,  avg # of iterations = 17.2

     total cpu time spent up to now is      633.8 secs

     total energy              =     -98.45492303 Ry
     estimated scf accuracy    <       5.15117479 Ry

     iteration #  2     ecut=    80.00 Ry     beta= 0.70
     Davidson diagonalization with overlap
     ethr =  1.00E-02,  avg # of iterations = 10.2

     total cpu time spent up to now is      634.8 secs

     total energy              =     -79.11105851 Ry
     estimated scf accuracy    <     377.09430003 Ry

     iteration #  3     ecut=    80.00 Ry     beta= 0.70
     Davidson diagonalization with overlap
     ethr =  1.00E-02,  avg # of iterations =  6.2

     total cpu time spent up to now is      635.7 secs

     total energy              =    -102.50516668 Ry
     estimated scf accuracy    <      14.76051913 Ry

     iteration #  4     ecut=    80.00 Ry     beta= 0.70
     Davidson diagonalization with overlap
     ethr =  1.00E-02,  avg # of iterations =  2.4

     total cpu time spent up to now is      636.1 secs

     total energy              =    -102.80504709 Ry
     estimated scf accuracy    <       7.73132046 Ry

     iteration #  5     ecut=    80.00 Ry     beta= 0.70
     Davidson diagonalization with overlap
     ethr =  1.00E-02,  avg # of iterations =  1.6

     total cpu time spent up to now is      636.6 secs

     total energy              =    -102.70643225 Ry
     estimated scf accuracy    <       7.19999593 Ry

     iteration #  6     ecut=    80.00 Ry     beta= 0.70
     Davidson diagonalization with overlap
     ethr =  1.00E-02,  avg # of iterations =  1.6

     total cpu time spent up to now is      637.0 secs

     total energy              =    -102.86778404 Ry
     estimated scf accuracy    <       0.16912865 Ry

     iteration #  7     ecut=    80.00 Ry     beta= 0.70
     Davidson diagonalization with overlap
     ethr =  6.50E-04,  avg # of iterations =  4.0

     total cpu time spent up to now is      637.5 secs

     total energy              =    -102.87874739 Ry
     estimated scf accuracy    <       0.05431191 Ry

     iteration #  8     ecut=    80.00 Ry     beta= 0.70
     Davidson diagonalization with overlap
     ethr =  2.09E-04,  avg # of iterations =  1.8

     total cpu time spent up to now is      637.9 secs

     total energy              =    -102.88085594 Ry
     estimated scf accuracy    <       0.01709911 Ry

     iteration #  9     ecut=    80.00 Ry     beta= 0.70
     Davidson diagonalization with overlap
     ethr =  6.58E-05,  avg # of iterations =  2.6

     total cpu time spent up to now is      638.4 secs

     total energy              =    -102.87979595 Ry
     estimated scf accuracy    <       0.02174342 Ry

     iteration # 10     ecut=    80.00 Ry     beta= 0.70
     Davidson diagonalization with overlap
     ethr =  6.58E-05,  avg # of iterations =  1.4

     total cpu time spent up to now is      638.8 secs

     total energy              =    -102.88041844 Ry
     estimated scf accuracy    <       0.00132744 Ry

     iteration # 11     ecut=    80.00 Ry     beta= 0.70
     Davidson diagonalization with overlap
     ethr =  5.11E-06,  avg # of iterations =  5.4

     total cpu time spent up to now is      639.3 secs

     total energy              =    -102.88043861 Ry
     estimated scf accuracy    <       0.00043065 Ry

     iteration # 12     ecut=    80.00 Ry     beta= 0.70
     Davidson diagonalization with overlap
     ethr =  1.66E-06,  avg # of iterations =  2.0

     total cpu time spent up to now is      639.7 secs

     total energy              =    -102.88046400 Ry
     estimated scf accuracy    <       0.00001152 Ry

     iteration # 13     ecut=    80.00 Ry     beta= 0.70
     Davidson diagonalization with overlap
     ethr =  4.43E-08,  avg # of iterations =  2.6

     total cpu time spent up to now is      640.2 secs

     total energy              =    -102.88046527 Ry
     estimated scf accuracy    <       0.00000132 Ry

     iteration # 14     ecut=    80.00 Ry     beta= 0.70
     Davidson diagonalization with overlap
     ethr =  5.09E-09,  avg # of iterations =  2.0

     total cpu time spent up to now is      640.7 secs

     total energy              =    -102.88046540 Ry
     estimated scf accuracy    <       0.00000041 Ry

     iteration # 15     ecut=    80.00 Ry     beta= 0.70
     Davidson diagonalization with overlap
     ethr =  1.59E-09,  avg # of iterations =  1.5

     total cpu time spent up to now is      641.1 secs

     total energy              =    -102.88046539 Ry
     estimated scf accuracy    <       0.00000026 Ry

     iteration # 16     ecut=    80.00 Ry     beta= 0.70
     Davidson diagonalization with overlap
     ethr =  9.96E-10,  avg # of iterations =  1.9

     total cpu time spent up to now is      641.5 secs

     total energy              =    -102.88046541 Ry
     estimated scf accuracy    <       0.00000012 Ry

     iteration # 17     ecut=    80.00 Ry     beta= 0.70
     Davidson diagonalization with overlap
     ethr =  4.59E-10,  avg # of iterations =  1.0

     total cpu time spent up to now is      641.9 secs

     total energy              =    -102.88046542 Ry
     estimated scf accuracy    <          2.5E-09 Ry

     iteration # 18     ecut=    80.00 Ry     beta= 0.70
     Davidson diagonalization with overlap
     ethr =  9.67E-12,  avg # of iterations =  3.0

     total cpu time spent up to now is      642.4 secs

     total energy              =    -102.88046542 Ry
     estimated scf accuracy    <          1.6E-09 Ry

     iteration # 19     ecut=    80.00 Ry     beta= 0.70
     Davidson diagonalization with overlap
     ethr =  6.13E-12,  avg # of iterations =  1.0

     total cpu time spent up to now is      642.8 secs

     End of self-consistent calculation

          k = 0.0000 0.0000 0.0000 (  6047 PWs)   bands (ev):

   -38.2743 -38.2670 -38.1329 -37.8227 -37.6511 -37.5260  -6.6746  -6.6610
     1.0441   1.5934   4.0536   4.6286   5.5717   7.0371   9.1663  11.3133
    15.6737

          k = 0.0000 0.0000-0.1052 (  6034 PWs)   bands (ev):

   -38.2743 -38.2670 -38.1329 -37.8227 -37.6511 -37.5260  -6.6746  -6.6610
     1.0441   1.5934   4.0638   4.5967   5.6258   6.9675   9.2721  11.1829
    16.5717

          k = 0.0000 0.1595 0.0000 (  6013 PWs)   bands (ev):

   -38.2551 -38.2478 -38.1137 -37.7986 -37.6340 -37.5150  -6.3387  -6.3155
     1.3100   1.9032   4.2106   4.8140   5.7831   7.3187   9.3181  11.5562
    15.5013

          k = 0.0000 0.1595-0.1052 (  6024 PWs)   bands (ev):

   -38.2551 -38.2478 -38.1137 -37.7986 -37.6340 -37.5150  -6.3387  -6.3155
     1.3100   1.9031   4.2226   4.7763   5.8476   7.2307   9.4505  11.3924
    16.3745

          k = 0.0000 0.3191 0.0000 (  6019 PWs)   bands (ev):

   -38.2049 -38.1976 -38.0633 -37.7337 -37.5891 -37.4875  -5.3373  -5.2849
     2.1021   2.8247   4.6953   5.3777   6.4021   8.1338   9.6818  12.1348
    14.1065

          k = 0.0000 0.3191-0.1052 (  6010 PWs)   bands (ev):

   -38.2049 -38.1976 -38.0633 -37.7337 -37.5891 -37.4875  -5.3373  -5.2849
     2.1021   2.8244   4.7146   5.3186   6.5045   7.9656   9.9157  11.8713
    14.0932

          k = 0.0000 0.4786 0.0000 (  6021 PWs)   bands (ev):

   -38.1427 -38.1352 -38.0007 -37.6483 -37.5332 -37.4579  -3.6885  -3.5888
     3.3851   4.3240   5.5304   6.3269   7.3448   8.7738   9.2909   9.5798
    11.2865

          k = 0.0000 0.4786-0.1052 (  6012 PWs)   bands (ev):

   -38.1427 -38.1352 -38.0007 -37.6483 -37.5332 -37.4579  -3.6885  -3.5888
     3.3852   4.3215   5.5716   6.2142   7.5419   8.5736   9.2924   9.5440
    11.8841

          k = 0.0000 0.6381 0.0000 (  6015 PWs)   bands (ev):

   -38.0922 -38.0846 -37.9498 -37.5709 -37.4878 -37.4415  -1.4323  -1.2754
     4.4573   5.4704   5.8156   6.2815   6.6935   7.5979   8.4419  10.0751
    10.8716

          k = 0.0000 0.6381-0.1052 (  6028 PWs)   bands (ev):

   -38.0922 -38.0846 -37.9498 -37.5709 -37.4878 -37.4415  -1.4323  -1.2754
     4.4572   5.4712   5.8193   6.2454   6.7926   7.4192   8.7162   9.6918
    11.1966

          k = 0.0000-0.7977 0.0000 (  6032 PWs)   bands (ev):

   -38.0728 -38.0653 -37.9303 -37.5364 -37.4706 -37.4399   0.8474   1.0487
     2.0194   2.6701   6.8567   7.3611   7.6998   8.2788   9.0030   9.4295
     9.7798

          k = 0.0000-0.7977-0.1052 (  6012 PWs)   bands (ev):

   -38.0728 -38.0653 -37.9303 -37.5364 -37.4706 -37.4399   0.8474   1.0487
     2.0194   2.6701   6.8707   7.2915   7.8056   8.2254   8.9959   9.4096
     9.8181

          k = 0.1382 0.2393 0.0000 (  6049 PWs)   bands (ev):

   -38.2205 -38.2131 -38.0789 -37.7541 -37.6030 -37.4957  -5.6701  -5.6274
     1.8397   2.5191   4.5329   5.1898   6.2002   7.8690   9.5963  12.0051
    15.0935

          k = 0.1382 0.2393-0.1052 (  6040 PWs)   bands (ev):

   -38.2205 -38.2131 -38.0789 -37.7541 -37.6030 -37.4957  -5.6701  -5.6274
     1.8397   2.5189   4.5494   5.1387   6.2886   7.7330   9.7942  11.7620
    15.8147

          k = 0.1382 0.3988 0.0000 (  6018 PWs)   bands (ev):

   -38.1642 -38.1568 -38.0224 -37.6788 -37.5525 -37.4673  -4.3446  -4.2636
     2.8862   3.7331   5.2055   5.9591   7.0035   8.9023   9.8442  11.6930
    12.2187

          k = 0.1382 0.3988-0.1052 (  6022 PWs)   bands (ev):

   -38.1642 -38.1568 -38.0224 -37.6788 -37.5525 -37.4673  -4.3446  -4.2636
     2.8863   3.7321   5.2361   5.8710   7.1556   8.6025  10.1702  11.6676
    12.2947

          k = 0.1382 0.5584 0.0000 (  6021 PWs)   bands (ev):

   -38.1079 -38.1004 -37.9656 -37.5965 -37.5018 -37.4450  -2.3881  -2.2540
     4.3535   5.4784   6.2376   7.0821   7.2639   7.6648   8.1669  10.1305
    11.1665

          k = 0.1382 0.5584-0.1052 (  6014 PWs)   bands (ev):

   -38.1079 -38.1004 -37.9656 -37.5965 -37.5018 -37.4450  -2.3881  -2.2540
     4.3537   5.4675   6.3151   6.9011   7.3020   7.6505   8.4094   9.6849
    12.0538

          k = 0.1382 0.7179 0.0000 (  6013 PWs)   bands (ev):

   -38.0730 -38.0654 -37.9304 -37.5373 -37.4706 -37.4391   0.1163   0.2921
     3.4004   3.9593   6.5549   7.3140   7.6038   8.3277   9.0693   9.7679
    10.5950

          k = 0.1382 0.7179-0.1052 (  5992 PWs)   bands (ev):

   -38.0730 -38.0654 -37.9304 -37.5373 -37.4706 -37.4391   0.1163   0.2921
     3.4004   3.9594   6.5585   7.2611   7.7102   8.2393   9.0505   9.9749
    10.3899

          k = 0.2763 0.4786 0.0000 (  6018 PWs)   bands (ev):

   -38.1139 -38.1064 -37.9717 -37.6061 -37.5072 -37.4466  -2.7095  -2.5842
     4.1703   5.2097   6.1138   6.9729   7.9611   9.4336   9.5994  10.0814
    10.2960

          k = 0.2763 0.4786-0.1052 (  6020 PWs)   bands (ev):

   -38.1139 -38.1064 -37.9717 -37.6061 -37.5072 -37.4466  -2.7095  -2.5842
     4.1705   5.2023   6.1795   6.8139   8.2318   9.1573   9.6093   9.9015
    10.5760

          k = 0.2763 0.6381 0.0000 (  5994 PWs)   bands (ev):

   -38.0732 -38.0656 -37.9305 -37.5388 -37.4705 -37.4379  -0.4708  -0.2969
     5.3810   6.2627   6.5115   7.1613   7.4365   8.4041   9.1427   9.3946
     9.7232

          k = 0.2763 0.6381-0.1052 (  6008 PWs)   bands (ev):

   -38.0732 -38.0656 -37.9305 -37.5388 -37.4705 -37.4379  -0.4708  -0.2969
     5.3810   6.2629   6.5138   7.0918   7.6253   8.1272   9.3181   9.5867
     9.6472

          k = 0.2763 0.7977 0.0000 (  5982 PWs)   bands (ev):

   -38.0576 -38.0500 -37.9148 -37.5069 -37.4567 -37.4403   1.8185   1.9888
     2.9397   3.5423   7.7160   8.3622   8.5369   8.9593   9.2778   9.5191
     9.9224

          k = 0.2763 0.7977-0.1052 (  5992 PWs)   bands (ev):

   -38.0576 -38.0500 -37.9148 -37.5069 -37.4567 -37.4403   1.8185   1.9888
     2.9397   3.5423   7.7202   8.2927   8.7146   8.8112   9.3275   9.5373
     9.8941

          k = 0.4145 0.7179 0.0000 (  5962 PWs)   bands (ev):

   -38.0518 -38.0442 -37.9089 -37.4933 -37.4517 -37.4426   1.9836   2.1531
     4.7334   4.7740   6.5079   6.5593   8.4512   9.0163   9.1628   9.9614
    10.4021

          k = 0.4145 0.7179-0.1052 (  5952 PWs)   bands (ev):

   -38.0518 -38.0442 -37.9089 -37.4933 -37.4517 -37.4426   1.9836   2.1531
     4.7335   4.7739   6.5079   6.5592   8.4511   8.9307   9.5153   9.5529
    10.3718

     the Fermi energy is     7.8245 ev

!    total energy              =    -102.88046542 Ry
     estimated scf accuracy    <          8.1E-11 Ry
     smearing contrib. (-TS)   =       0.00104373 Ry
     internal energy E=F+TS    =    -102.88150915 Ry

     The total energy is F=E-TS. E is the sum of the following terms:
     one-electron contribution =     -32.24040691 Ry
     hartree contribution      =      18.17320002 Ry
     xc contribution           =     -27.61591973 Ry
     ewald contribution        =     -61.19838252 Ry

     convergence has been achieved in  19 iterations

     Forces acting on atoms (cartesian axes, Ry/au):

     atom    1 type  1   force =     0.00000000   -0.00000000    0.00045763
     atom    2 type  1   force =     0.00000000    0.00000000    0.00044377
     atom    3 type  1   force =     0.00000000    0.00000000   -0.00051535
     atom    4 type  1   force =     0.00000000    0.00000000    0.00009181
     atom    5 type  1   force =     0.00000000    0.00000000   -0.00031479
     atom    6 type  1   force =     0.00000000   -0.00000000   -0.00001380
     atom    7 type  2   force =     0.00000000    0.00000000   -0.00059484
     atom    8 type  2   force =     0.00000000    0.00000000    0.00044557
     The non-local contrib.  to forces
     atom    1 type  1   force =     0.00000000   -0.00000000    0.04676210
     atom    2 type  1   force =     0.00000000   -0.00000000    0.01889134
     atom    3 type  1   force =     0.00000000   -0.00000000   -0.04680066
     atom    4 type  1   force =     0.00000000   -0.00000000   -0.00003173
     atom    5 type  1   force =     0.00000000    0.00000000   -0.01867355
     atom    6 type  1   force =     0.00000000   -0.00000000    0.00032749
     atom    7 type  2   force =     0.00000000    0.00000000   -0.02571970
     atom    8 type  2   force =     0.00000000   -0.00000000    0.02541956
     The ionic contribution  to forces
     atom    1 type  1   force =     0.00000000   -0.00000000   -0.79280005
     atom    2 type  1   force =    -0.00000000    0.00000000    0.15142443
     atom    3 type  1   force =     0.00000000   -0.00000000    0.80515464
     atom    4 type  1   force =     0.00000000   -0.00000000   -0.02041269
     atom    5 type  1   force =    -0.00000000    0.00000000   -0.16487068
     atom    6 type  1   force =    -0.00000000    0.00000000    0.00594465
     atom    7 type  2   force =     0.00000000   -0.00000000   -1.53323192
     atom    8 type  2   force =     0.00000000   -0.00000000    1.54879161
     The local contribution  to forces
     atom    1 type  1   force =     0.00000000    0.00000000    0.74649552
     atom    2 type  1   force =     0.00000000   -0.00000000   -0.16986673
     atom    3 type  1   force =     0.00000043   -0.00000025   -0.75887082
     atom    4 type  1   force =     0.00000043   -0.00000025    0.02054532
     atom    5 type  1   force =    -0.00000043    0.00000025    0.18323420
     atom    6 type  1   force =    -0.00000043    0.00000025   -0.00628942
     atom    7 type  2   force =     0.00000000    0.00000000    1.55637400
     atom    8 type  2   force =    -0.00000001    0.00000001   -1.57181550
     The core correction contribution to forces
     atom    1 type  1   force =     0.00000000    0.00000000    0.00000000
     atom    2 type  1   force =     0.00000000    0.00000000    0.00000000
     atom    3 type  1   force =     0.00000000    0.00000000    0.00000000
     atom    4 type  1   force =     0.00000000    0.00000000    0.00000000
     atom    5 type  1   force =     0.00000000    0.00000000    0.00000000
     atom    6 type  1   force =     0.00000000    0.00000000    0.00000000
     atom    7 type  2   force =     0.00000000    0.00000000    0.00198883
     atom    8 type  2   force =    -0.00000000    0.00000000   -0.00196996
     The Hubbard contrib.    to forces
     atom    1 type  1   force =     0.00000000    0.00000000    0.00000000
     atom    2 type  1   force =     0.00000000    0.00000000    0.00000000
     atom    3 type  1   force =     0.00000000    0.00000000    0.00000000
     atom    4 type  1   force =     0.00000000    0.00000000    0.00000000
     atom    5 type  1   force =     0.00000000    0.00000000    0.00000000
     atom    6 type  1   force =     0.00000000    0.00000000    0.00000000
     atom    7 type  2   force =     0.00000000    0.00000000    0.00000000
     atom    8 type  2   force =     0.00000000    0.00000000    0.00000000
     The SCF correction term to forces
     atom    1 type  1   force =     0.00000000   -0.00000000    0.00000022
     atom    2 type  1   force =    -0.00000000    0.00000000   -0.00000512
     atom    3 type  1   force =     0.00000000   -0.00000000    0.00000163
     atom    4 type  1   force =     0.00000000   -0.00000000   -0.00000894
     atom    5 type  1   force =    -0.00000000    0.00000000   -0.00000461
     atom    6 type  1   force =    -0.00000000    0.00000000    0.00000363
     atom    7 type  2   force =     0.00000000   -0.00000000   -0.00000591
     atom    8 type  2   force =     0.00000000   -0.00000000    0.00002000

     Total force =     0.001154     Total SCF correction =     0.000024


     Computing stress (Cartesian axis) and pressure

          total   stress  (Ry/bohr**3)                   (kbar)     P=      500.41
   0.00340358   0.00000000   0.00000000          500.68        0.00        0.00
   0.00000000   0.00340358  -0.00000000            0.00      500.68       -0.00
   0.00000000   0.00000000   0.00339794            0.00        0.00      499.85


     Writing all to output data dir ./output/LiSi.save/

     init_run     :      2.60s CPU      3.78s WALL (       2 calls)
     electrons    :    492.17s CPU    549.08s WALL (      20 calls)
     update_pot   :     18.49s CPU     18.67s WALL (      18 calls)
     forces       :     12.78s CPU     12.95s WALL (      20 calls)
     stress       :     56.39s CPU     58.82s WALL (      20 calls)

     Called by init_run:
     wfcinit      :      0.84s CPU      1.49s WALL (       2 calls)
     potinit      :      0.71s CPU      0.83s WALL (       2 calls)
     hinit0       :      0.90s CPU      1.18s WALL (       2 calls)

     Called by electrons:
     c_bands      :    430.33s CPU    478.39s WALL (     418 calls)
     sum_band     :     54.58s CPU     61.87s WALL (     418 calls)
     v_of_rho     :      6.51s CPU      7.59s WALL (     437 calls)
     mix_rho      :      0.86s CPU      0.98s WALL (     418 calls)

     Called by c_bands:
     init_us_2    :     10.82s CPU     12.34s WALL (   24584 calls)
     init_us_2:cp :     10.78s CPU     12.32s WALL (   24584 calls)
     cegterg      :    402.06s CPU    445.56s WALL (   11786 calls)

     Called by *egterg:
     cdiaghg      :     15.86s CPU     16.49s WALL (   50392 calls)
     h_psi        :    334.47s CPU    376.98s WALL (   51006 calls)
     g_psi        :      2.02s CPU      2.07s WALL (   39164 calls)

     Called by h_psi:
     h_psi:calbec :     31.53s CPU     33.95s WALL (   51006 calls)
     vloc_psi     :    275.12s CPU    314.50s WALL (   51006 calls)
     add_vuspsi   :     26.51s CPU     27.17s WALL (   51006 calls)

     General routines
     calbec       :     34.91s CPU     37.39s WALL (   53806 calls)
     fft          :      3.11s CPU      4.48s WALL (    4869 calls)
     ffts         :      0.17s CPU      0.23s WALL (     418 calls)
     fftw         :    282.48s CPU    322.81s WALL ( 1352426 calls)

     Parallel routines

     PWSCF        :   9m42.87s CPU  10m44.64s WALL


   This run was terminated on:  19:16:37  29Dec2024            

=------------------------------------------------------------------------------=
   JOB DONE.
=------------------------------------------------------------------------------=
