
     Program PWSCF v.7.2 starts on 17Jan2025 at 16:53:36 

     This program is part of the open-source Quantum ESPRESSO suite
     for quantum simulation of materials; please cite
         "P. Giannozzi et al., J. Phys.:Condens. Matter 21 395502 (2009);
         "P. Giannozzi et al., J. Phys.:Condens. Matter 29 465901 (2017);
         "P. Giannozzi et al., J. Chem. Phys. 152 154105 (2020);
          URL http://www.quantum-espresso.org", 
     in publications or presentations arising from this work. More details at
     http://www.quantum-espresso.org/quote

     Parallel version (MPI & OpenMP), running on       8 processor cores
     Number of MPI processes:                 8
     Threads/MPI process:                     1

     MPI processes distributed on     1 nodes
     481800 MiB available memory on the printing compute node when the environment starts

     Waiting for input...
     Reading input from standard input

     Current dimensions of program PWSCF are:
     Max number of different atomic species (ntypx) = 10
     Max number of k-points (npk) =  40000
     Max angular momentum in pseudopotentials (lmaxx) =  4

     R & G space division:  proc/nbgrp/npool/nimage =       8
     Subspace diagonalization in iterative solution of the eigenvalue problem:
     a serial algorithm will be used


     Parallelization info
     --------------------
     sticks:   dense  smooth     PW     G-vecs:    dense   smooth      PW
     Min         185     185     54                 4662     4662     744
     Max         186     186     55                 4665     4665     747
     Sum        1483    1483    433                37309    37309    5961

     Using Slab Decomposition



     bravais-lattice index     =            5
     lattice parameter (alat)  =       9.4265  a.u.
     unit-cell volume          =     592.2862 (a.u.)^3
     number of atoms/cell      =            8
     number of atomic types    =            2
     number of electrons       =        30.00
     number of Kohn-Sham states=           19
     kinetic-energy cutoff     =      60.0000  Ry
     charge density cutoff     =     240.0000  Ry
     scf convergence threshold =      1.0E-08
     mixing beta               =       0.8000
     number of iterations used =            8  plain     mixing
     energy convergence thresh.=      1.0E-03
     force convergence thresh. =      5.0E-03
     press convergence thresh. =      2.0E+00
     Exchange-correlation= PBE
                           (   1   4   3   4   0   0   0)
     nstep                     =           50


     celldm(1)=   9.426460  celldm(2)=   0.000000  celldm(3)=   0.000000
     celldm(4)=   0.499999  celldm(5)=   0.000000  celldm(6)=   0.000000

     crystal axes: (cart. coord. in units of alat)
               a(1) = (   0.500001  -0.288675   0.816496 )  
               a(2) = (   0.000000   0.577351   0.816496 )  
               a(3) = (  -0.500001  -0.288675   0.816496 )  

     reciprocal axes: (cart. coord. in units 2 pi/alat)
               b(1) = (  0.999999 -0.577350  0.408249 )  
               b(2) = (  0.000000  1.154699  0.408249 )  
               b(3) = ( -0.999999 -0.577350  0.408249 )  


     PseudoPot. # 1 for Li read from file:
     ../pseudo/Li_ONCV_PBE_sr.upf
     MD5 check sum: 50ff420e78310ffa21704f3361e624a4
     Pseudo is Norm-conserving, Zval =  3.0
     Generated using ONCVPSP code by D. R. Hamann
     Using radial grid of 1944 points,  4 beta functions with: 
                l(1) =   0
                l(2) =   0
                l(3) =   1
                l(4) =   1

     PseudoPot. # 2 for Si read from file:
     ../pseudo/Si_ONCV_PBE_sr.upf
     MD5 check sum: e543d271109d17c80368dfa7c482276d
     Pseudo is Norm-conserving + core correction, Zval =  4.0
     Generated using ONCVPSP code by D. R. Hamann
     Using radial grid of 1510 points,  6 beta functions with: 
                l(1) =   0
                l(2) =   0
                l(3) =   1
                l(4) =   1
                l(5) =   2
                l(6) =   2

     atomic species   valence    mass     pseudopotential
        Li             3.00     6.94100     Li( 1.00)
        Si             4.00    28.08550     Si( 1.00)

      6 Sym. Ops., with inversion, found



   Cartesian axes

     site n.     atom                  positions (alat units)
         1           Li  tau(   1) = (  -0.0000000  -0.0000000   0.1278935  )
         2           Li  tau(   2) = (   0.0000000  -0.0000000   2.3215949  )
         3           Si  tau(   3) = (   0.3334319  -0.5836513   1.0267194  )
         4           Si  tau(   4) = (  -0.8334324  -0.2823751   1.4227690  )
         5           Si  tau(   5) = (  -0.1612597  -0.2854403   1.0267194  )
         6           Si  tau(   6) = (  -0.3387409  -0.5805861   1.4227690  )
         7           Si  tau(   7) = (  -0.1721722  -0.8629612   1.0267194  )
         8           Si  tau(   8) = (  -0.3278284  -0.0030652   1.4227690  )

     number of k points=    23  Marzari-Vanderbilt smearing, width (Ry)=  0.0200
                       cart. coord. in units 2pi/alat
        k(    1) = (   0.0000000   0.0000000   0.0000000), wk =   0.0160000
        k(    2) = (  -0.1999998  -0.1154699   0.0816497), wk =   0.0960000
        k(    3) = (  -0.3999996  -0.2309399   0.1632994), wk =   0.0960000
        k(    4) = (  -0.1999998   0.1154699   0.1632994), wk =   0.0960000
        k(    5) = (  -0.3999996   0.0000000   0.2449491), wk =   0.0960000
        k(    6) = (   0.3999996   0.4618797  -0.0816497), wk =   0.0960000
        k(    7) = (   0.1999998   0.3464098   0.0000000), wk =   0.0960000
        k(    8) = (  -0.3999996   0.2309399   0.3265988), wk =   0.0960000
        k(    9) = (   0.3999996   0.6928196   0.0000000), wk =   0.0960000
        k(   10) = (  -0.0000000   0.0000000   0.2449491), wk =   0.0320000
        k(   11) = (  -0.1999998  -0.1154699   0.3265988), wk =   0.0960000
        k(   12) = (   0.5999993   0.3464098   0.0000000), wk =   0.0960000
        k(   13) = (   0.3999996   0.2309399   0.0816497), wk =   0.0960000
        k(   14) = (  -0.1999998   0.1154699   0.4082485), wk =   0.0960000
        k(   15) = (   0.5999993   0.5773496   0.0816497), wk =   0.0960000
        k(   16) = (   0.3999996   0.4618797   0.1632994), wk =   0.0960000
        k(   17) = (   0.5999993  -0.3464098  -0.2449491), wk =   0.0960000
        k(   18) = (  -0.0000000   0.0000000   0.4898982), wk =   0.0320000
        k(   19) = (   0.7999991   0.4618797   0.1632994), wk =   0.0960000
        k(   20) = (  -0.3999996  -0.0000000  -0.2449491), wk =   0.0960000
        k(   21) = (   0.3999996  -0.4618797   0.0816497), wk =   0.0960000
        k(   22) = (   0.5999993  -0.5773496  -0.0816497), wk =   0.0960000
        k(   23) = (   0.3999996  -0.4618797  -0.1632994), wk =   0.0960000

     Dense  grid:    37309 G-vectors     FFT dimensions: (  48,  48,  48)

     Estimated max dynamical RAM per process >      18.90 MB

     Estimated total dynamical RAM >     151.21 MB

     Initial potential from superposition of free atoms

     starting charge      29.9872, renormalised to      30.0000
     Starting wfcs are   28 randomized atomic wfcs

     total cpu time spent up to now is        1.5 secs

     Self-consistent Calculation

     iteration #  1     ecut=    60.00 Ry     beta= 0.80
     Davidson diagonalization with overlap
     ethr =  1.00E-02,  avg # of iterations =  3.9

     total cpu time spent up to now is        2.4 secs

     total energy              =     -77.90751802 Ry
     estimated scf accuracy    <       0.77820418 Ry

     iteration #  2     ecut=    60.00 Ry     beta= 0.80
     Davidson diagonalization with overlap
     ethr =  2.59E-03,  avg # of iterations =  3.2

     total cpu time spent up to now is        3.5 secs

     total energy              =     -78.11531986 Ry
     estimated scf accuracy    <       0.90357013 Ry

     iteration #  3     ecut=    60.00 Ry     beta= 0.80
     Davidson diagonalization with overlap
     ethr =  2.59E-03,  avg # of iterations =  2.0

     total cpu time spent up to now is        4.2 secs

     total energy              =     -78.28383713 Ry
     estimated scf accuracy    <       0.00288356 Ry

     iteration #  4     ecut=    60.00 Ry     beta= 0.80
     Davidson diagonalization with overlap
     c_bands:  1 eigenvalues not converged
     c_bands:  1 eigenvalues not converged
     ethr =  9.61E-06,  avg # of iterations = 10.5

     total cpu time spent up to now is        5.6 secs

     total energy              =     -78.28940248 Ry
     estimated scf accuracy    <       0.00269230 Ry

     iteration #  5     ecut=    60.00 Ry     beta= 0.80
     Davidson diagonalization with overlap
     ethr =  8.97E-06,  avg # of iterations =  2.1

     total cpu time spent up to now is        6.2 secs

     total energy              =     -78.28969309 Ry
     estimated scf accuracy    <       0.00014145 Ry

     iteration #  6     ecut=    60.00 Ry     beta= 0.80
     Davidson diagonalization with overlap
     ethr =  4.72E-07,  avg # of iterations =  4.7

     total cpu time spent up to now is        7.0 secs

     total energy              =     -78.28974573 Ry
     estimated scf accuracy    <       0.00000294 Ry

     iteration #  7     ecut=    60.00 Ry     beta= 0.80
     Davidson diagonalization with overlap
     ethr =  9.81E-09,  avg # of iterations =  4.8

     total cpu time spent up to now is        7.8 secs

     total energy              =     -78.28974655 Ry
     estimated scf accuracy    <       0.00000372 Ry

     iteration #  8     ecut=    60.00 Ry     beta= 0.80
     Davidson diagonalization with overlap
     ethr =  9.81E-09,  avg # of iterations =  2.0

     total cpu time spent up to now is        8.4 secs

     total energy              =     -78.28974716 Ry
     estimated scf accuracy    <       0.00000004 Ry

     iteration #  9     ecut=    60.00 Ry     beta= 0.80
     Davidson diagonalization with overlap
     ethr =  1.42E-10,  avg # of iterations =  4.6

     total cpu time spent up to now is        9.2 secs

     End of self-consistent calculation

          k = 0.0000 0.0000 0.0000 (  4645 PWs)   bands (ev):

   -38.5709 -35.9942  -2.4424   3.9911   3.9911   5.1386   5.1386   5.1918
     6.4552   7.0795   7.4480   7.4480   7.6678   7.6678   7.7345  10.0411
    11.2967  16.7478  16.7478

          k =-0.2000-0.1155 0.0816 (  4675 PWs)   bands (ev):

   -38.5713 -35.9944  -2.1445   2.3616   3.6598   4.9074   5.2961   5.4229
     6.1479   6.5462   6.8815   7.4719   8.5356   9.6948   9.9936  11.0941
    11.8742  14.1576  14.8630

          k =-0.4000-0.2309 0.1633 (  4663 PWs)   bands (ev):

   -38.5712 -35.9941  -1.2888   0.4113   3.5566   4.3302   4.8097   5.2237
     5.5541   6.5367   8.3471   9.1681   9.4065  11.0020  11.7106  11.8847
    13.0882  13.3357  13.7808

          k =-0.2000 0.1155 0.1633 (  4641 PWs)   bands (ev):

   -38.5710 -35.9938  -2.0323   2.7273   3.5063   3.8533   4.2737   4.6206
     7.0156   7.9505   8.2522   8.3860   8.5057   8.9113   9.5640  10.6009
    13.0539  14.2715  14.4501

          k =-0.4000 0.0000 0.2449 (  4641 PWs)   bands (ev):

   -38.5708 -35.9939  -1.3354   1.1487   2.7658   3.3415   3.8491   5.4475
     7.1830   7.4895   8.0547   9.6871   9.9925  11.1487  11.2776  11.8284
    12.2023  12.6527  14.2786

          k = 0.4000 0.4619-0.0816 (  4638 PWs)   bands (ev):

   -38.5709 -35.9937  -0.6964   0.1851   2.0948   3.6838   4.0225   6.4503
     6.5885   7.8171   8.0095   8.9306   9.3556  11.3778  12.2929  12.4846
    13.1245  13.7945  14.7418

          k = 0.2000 0.3464 0.0000 (  4670 PWs)   bands (ev):

   -38.5713 -35.9942  -1.6632   1.8053   2.0831   4.5789   4.6945   6.0291
     6.0608   6.9334   7.2999   9.1012   9.4465   9.8983  10.9770  11.8342
    13.2580  13.4236  14.0250

          k =-0.4000 0.2309 0.3266 (  4648 PWs)   bands (ev):

   -38.5708 -35.9940  -0.8135   1.2879   1.8592   2.9483   3.1734   4.2212
     8.7076   9.2965   9.7783  10.7445  10.8903  11.0013  11.5003  11.6175
    11.7276  12.2367  13.2635

          k = 0.4000 0.6928 0.0000 (  4664 PWs)   bands (ev):

   -38.5711 -35.9941   0.1176   0.2949   0.9952   3.0685   3.4449   5.2601
     8.4373   8.4655   9.1644   9.5596  10.9868  11.4238  12.2885  12.6532
    13.3353  13.4773  13.7742

          k =-0.0000 0.0000 0.2449 (  4675 PWs)   bands (ev):

   -38.5713 -35.9945  -2.1102   2.8788   3.5776   3.5776   5.7182   5.7182
     6.1980   6.1980   6.5869   8.0460   9.3585   9.7990  10.0049  10.0049
    12.7501  14.3462  14.3462

          k =-0.2000-0.1155 0.3266 (  4670 PWs)   bands (ev):

   -38.5712 -35.9945  -1.5949   1.7336   2.4296   3.6200   5.2040   5.3950
     6.1326   6.7689   8.0723   8.8665   9.5275  10.6893  11.2713  11.6617
    12.5940  14.0413  14.6846

          k = 0.6000 0.3464 0.0000 (  4638 PWs)   bands (ev):

   -38.5707 -35.9939  -0.6391   0.1759   2.4040   2.7452   4.8830   5.5511
     7.3239   7.6400   8.0593   8.8283   9.4737  11.6549  11.8469  12.7188
    13.2529  14.1031  15.0424

          k = 0.4000 0.2309 0.0816 (  4641 PWs)   bands (ev):

   -38.5709 -35.9938  -1.3699   1.3691   2.4181   2.9869   4.5149   5.8284
     6.3108   8.0315   8.3772   9.3234   9.9437  10.6825  11.0643  11.2934
    12.4761  13.3259  14.9120

          k =-0.2000 0.1155 0.4082 (  4641 PWs)   bands (ev):

   -38.5706 -35.9943  -1.2659   1.5169   2.3924   2.7636   4.1816   5.4224
     6.4864   8.2073   8.6217   9.0793  10.4166  11.0167  11.4950  11.6912
    12.4707  12.8724  14.8507

          k = 0.6000 0.5773 0.0816 (  4631 PWs)   bands (ev):

   -38.5705 -35.9939  -0.3758   0.9361   1.2261   2.0207   5.0589   5.5536
     6.5894   7.9739   9.6506   9.9218  10.5172  10.6143  12.1045  12.6135
    13.7227  13.7607  14.4684

          k = 0.4000 0.4619 0.1633 (  4631 PWs)   bands (ev):

   -38.5706 -35.9937  -0.5073   0.9257   1.3022   2.1134   5.3281   5.6624
     6.3285   8.0089   9.4840  10.0330  10.1381  10.8763  11.9771  12.4020
    12.8528  13.8749  14.0194

          k = 0.6000-0.3464-0.2449 (  4664 PWs)   bands (ev):

   -38.5710 -35.9943   0.0891   0.4121   1.3328   1.9702   4.1706   5.2978
     7.6721   8.7495   9.1421  10.1275  11.1790  11.6746  11.8557  12.8861
    13.2546  13.3855  13.5808

          k =-0.0000 0.0000 0.4899 (  4663 PWs)   bands (ev):

   -38.5707 -35.9949  -1.1474   0.6554   3.3410   3.3410   4.6734   4.6734
     6.2678   7.6893   8.2350   8.2350  10.8487  10.8487  11.2116  12.6886
    13.2708  13.2708  13.9914

          k = 0.8000 0.4619 0.1633 (  4638 PWs)   bands (ev):

   -38.5705 -35.9942  -0.4861   0.3252   1.9894   2.7072   4.4789   5.6895
     7.3575   7.9362   7.9898   8.7696   9.8883  11.5503  12.1753  13.0627
    13.4582  14.3471  14.3991

          k =-0.4000-0.0000-0.2449 (  4641 PWs)   bands (ev):

   -38.5708 -35.9939  -1.3343   1.1446   2.7543   3.3527   3.8552   5.4658
     7.1502   7.4790   8.0632   9.6921  10.0116  11.0125  11.4392  11.7001
    12.3058  12.7536  14.2877

          k = 0.4000-0.4619 0.0816 (  4638 PWs)   bands (ev):

   -38.5709 -35.9937  -0.6966   0.1881   2.0801   3.7005   4.0274   6.4616
     6.5750   7.7780   8.0042   8.9681   9.3426  11.6189  12.0550  12.5754
    12.8711  13.8060  14.9352

          k = 0.6000-0.5773-0.0816 (  4631 PWs)   bands (ev):

   -38.5705 -35.9939  -0.3733   0.9328   1.2229   2.0201   5.1118   5.5186
     6.5572   8.0016   9.6336   9.9181  10.4755  10.6358  12.1814  12.6831
    13.6403  13.9037  14.2352

          k = 0.4000-0.4619-0.1633 (  4631 PWs)   bands (ev):

   -38.5706 -35.9937  -0.5057   0.9254   1.2993   2.1083   5.4076   5.6466
     6.2519   8.0252   9.4355  10.0071  10.2032  10.9089  12.0388  12.4447
    12.8383  13.7170  14.0139

     the Fermi energy is    11.8313 ev

!    total energy              =     -78.28974719 Ry
     estimated scf accuracy    <          5.4E-09 Ry
     smearing contrib. (-TS)   =      -0.00076390 Ry
     internal energy E=F+TS    =     -78.28898329 Ry

     The total energy is F=E-TS. E is the sum of the following terms:
     one-electron contribution =       9.81917800 Ry
     hartree contribution      =      10.38673714 Ry
     xc contribution           =     -26.61079122 Ry
     ewald contribution        =     -71.88410721 Ry

     convergence has been achieved in   9 iterations

     Forces acting on atoms (cartesian axes, Ry/au):

     atom    1 type  1   force =    -0.00000000    0.00000000    0.07231315
     atom    2 type  1   force =     0.00000000   -0.00000000   -0.07231315
     atom    3 type  2   force =    -0.13488015   -0.24373213    0.06281619
     atom    4 type  2   force =     0.13488015    0.24373213   -0.06281619
     atom    5 type  2   force =     0.27851829    0.00505643    0.06281619
     atom    6 type  2   force =    -0.27851829   -0.00505643   -0.06281619
     atom    7 type  2   force =    -0.14363814    0.23867570    0.06281619
     atom    8 type  2   force =     0.14363814   -0.23867570   -0.06281619
     The non-local contrib.  to forces
     atom    1 type  1   force =    -0.00000000   -0.00000000   -0.22715984
     atom    2 type  1   force =     0.00000000   -0.00000000    0.22715984
     atom    3 type  2   force =    -0.12403012   -0.20792535    0.05926710
     atom    4 type  2   force =     0.12403012    0.20792535   -0.05926710
     atom    5 type  2   force =     0.24208370   -0.00345056    0.05926710
     atom    6 type  2   force =    -0.24208370    0.00345056   -0.05926710
     atom    7 type  2   force =    -0.11805357    0.21137591    0.05926710
     atom    8 type  2   force =     0.11805357   -0.21137591   -0.05926710
     The ionic contribution  to forces
     atom    1 type  1   force =     0.00000000   -0.00000000    2.29218054
     atom    2 type  1   force =    -0.00000000    0.00000000   -2.29218054
     atom    3 type  2   force =    -0.81585418   -1.66357970    0.48312899
     atom    4 type  2   force =     0.81585418    1.66357970   -0.48312899
     atom    5 type  2   force =     1.84862937    0.12523940    0.48312899
     atom    6 type  2   force =    -1.84862937   -0.12523940   -0.48312899
     atom    7 type  2   force =    -1.03277519    1.53834030    0.48312899
     atom    8 type  2   force =     1.03277519   -1.53834030   -0.48312899
     The local contribution  to forces
     atom    1 type  1   force =    -0.00000000    0.00000000   -1.99272335
     atom    2 type  1   force =     0.00000000   -0.00000000    1.99272335
     atom    3 type  2   force =     0.79666553    1.61413255   -0.47600107
     atom    4 type  2   force =    -0.79666553   -1.61413255    0.47600107
     atom    5 type  2   force =    -1.79621256   -0.11713369   -0.47600107
     atom    6 type  2   force =     1.79621256    0.11713369    0.47600107
     atom    7 type  2   force =     0.99954703   -1.49699886   -0.47600107
     atom    8 type  2   force =    -0.99954703    1.49699886    0.47600107
     The core correction contribution to forces
     atom    1 type  1   force =     0.00000000    0.00000000    0.00000000
     atom    2 type  1   force =     0.00000000    0.00000000    0.00000000
     atom    3 type  2   force =     0.00834407    0.01367497   -0.00358855
     atom    4 type  2   force =    -0.00834407   -0.01367497    0.00358855
     atom    5 type  2   force =    -0.01601490    0.00038869   -0.00358855
     atom    6 type  2   force =     0.01601490   -0.00038869    0.00358855
     atom    7 type  2   force =     0.00767083   -0.01406366   -0.00358855
     atom    8 type  2   force =    -0.00767083    0.01406366    0.00358855
     The Hubbard contrib.    to forces
     atom    1 type  1   force =     0.00000000    0.00000000    0.00000000
     atom    2 type  1   force =     0.00000000    0.00000000    0.00000000
     atom    3 type  2   force =     0.00000000    0.00000000    0.00000000
     atom    4 type  2   force =     0.00000000    0.00000000    0.00000000
     atom    5 type  2   force =     0.00000000    0.00000000    0.00000000
     atom    6 type  2   force =     0.00000000    0.00000000    0.00000000
     atom    7 type  2   force =     0.00000000    0.00000000    0.00000000
     atom    8 type  2   force =     0.00000000    0.00000000    0.00000000
     The SCF correction term to forces
     atom    1 type  1   force =     0.00000000    0.00000000    0.00001580
     atom    2 type  1   force =    -0.00000000   -0.00000000   -0.00001580
     atom    3 type  2   force =    -0.00000545   -0.00003459    0.00000972
     atom    4 type  2   force =     0.00000545    0.00003459   -0.00000972
     atom    5 type  2   force =     0.00003268    0.00001258    0.00000972
     atom    6 type  2   force =    -0.00003268   -0.00001258   -0.00000972
     atom    7 type  2   force =    -0.00002723    0.00002201    0.00000972
     atom    8 type  2   force =     0.00002723   -0.00002201   -0.00000972

     Total force =     0.706910     Total SCF correction =     0.000092


     Computing stress (Cartesian axis) and pressure

          total   stress  (Ry/bohr**3)                   (kbar)     P=      546.45
   0.00477291  -0.00000000  -0.00000000          702.12       -0.00       -0.00
   0.00000000   0.00477291   0.00000000            0.00      702.12        0.00
  -0.00000000   0.00000000   0.00159817           -0.00        0.00      235.10


     BFGS Geometry Optimization
     Energy error            =      0.0E+00 Ry
     Gradient error          =      2.8E-01 Ry/Bohr
     Cell gradient error     =      2.6E+02 kbar

     number of scf cycles    =   1
     number of bfgs steps    =   0

     enthalpy           new  =     -76.2766073303 Ry

     new trust radius        =       0.2855588878 bohr
ibrav =      5
 celldm(1) =      9.25819865
 celldm(4) =      0.44543844
Input lattice vectors:
     0.51717527    -0.29859128     0.77973830
    -0.00000000     0.59718256     0.77973830
    -0.51717527    -0.29859128     0.77973830
New lattice vectors in INITIAL alat:
     0.51717527    -0.29859128     0.77973830
     0.00000000     0.59718256     0.77973830
    -0.51717527    -0.29859128     0.77973830
New lattice vectors in NEW alat (for information only):
     0.52657457    -0.30401797     0.79390950
     0.00000000     0.60803594     0.79390950
    -0.52657457    -0.30401797     0.79390950
Discrepancy in bohr =     0.000000    0.000000    0.000000
     new conv_thr            =       0.0000000100 Ry

     new unit-cell volume =    605.14698 a.u.^3 (    89.67353 Ang^3 )
     density =      3.37752 g/cm^3

CELL_PARAMETERS (alat=  9.42645998)
   0.517175270  -0.298591281   0.779738298
   0.000000000   0.597182563   0.779738298
  -0.517175270  -0.298591281   0.779738298

ATOMIC_POSITIONS (crystal)
Li            0.0553441245        0.0553441245        0.0553441245
Li            0.9446558755        0.9446558755        0.9446558755
Si            1.0928988925       -0.2819206041        0.4546532005
Si           -0.0928988925        0.2819206041        1.5453467995
Si            0.4546532005        0.0928988925        0.7180793959
Si            0.5453467995       -0.0928988925        1.2819206041
Si            0.7180793959       -0.5453467995        1.0928988925
Si            0.2819206041        0.5453467995        0.9071011075



     Writing config-only to output data dir ./output/LiSi.save/
     NEW-OLD atomic charge density approx. for the potential
     extrapolated charge   30.63730, renormalised to   30.00000

     total cpu time spent up to now is       11.7 secs

     Self-consistent Calculation

     iteration #  1     ecut=    60.00 Ry     beta= 0.80
     Davidson diagonalization with overlap
     c_bands:  1 eigenvalues not converged
     c_bands:  1 eigenvalues not converged
     c_bands:  1 eigenvalues not converged
     c_bands:  1 eigenvalues not converged
     c_bands:  1 eigenvalues not converged
     c_bands:  1 eigenvalues not converged
     ethr =  1.00E-06,  avg # of iterations = 17.3

     total cpu time spent up to now is       14.2 secs

     total energy              =     -78.73585326 Ry
     estimated scf accuracy    <       0.09494204 Ry

     iteration #  2     ecut=    60.00 Ry     beta= 0.80
     Davidson diagonalization with overlap
     ethr =  3.16E-04,  avg # of iterations =  3.0

     total cpu time spent up to now is       14.9 secs

     total energy              =     -78.76816705 Ry
     estimated scf accuracy    <       0.15928859 Ry

     iteration #  3     ecut=    60.00 Ry     beta= 0.80
     Davidson diagonalization with overlap
     ethr =  3.16E-04,  avg # of iterations =  2.0

     total cpu time spent up to now is       15.5 secs

     total energy              =     -78.79076380 Ry
     estimated scf accuracy    <       0.00339666 Ry

     iteration #  4     ecut=    60.00 Ry     beta= 0.80
     Davidson diagonalization with overlap
     ethr =  1.13E-05,  avg # of iterations =  4.9

     total cpu time spent up to now is       16.3 secs

     total energy              =     -78.79269891 Ry
     estimated scf accuracy    <       0.00030881 Ry

     iteration #  5     ecut=    60.00 Ry     beta= 0.80
     Davidson diagonalization with overlap
     ethr =  1.03E-06,  avg # of iterations =  3.6

     total cpu time spent up to now is       16.9 secs

     total energy              =     -78.79268671 Ry
     estimated scf accuracy    <       0.00012444 Ry

     iteration #  6     ecut=    60.00 Ry     beta= 0.80
     Davidson diagonalization with overlap
     ethr =  4.15E-07,  avg # of iterations =  2.0

     total cpu time spent up to now is       17.4 secs

     total energy              =     -78.79270636 Ry
     estimated scf accuracy    <       0.00000288 Ry

     iteration #  7     ecut=    60.00 Ry     beta= 0.80
     Davidson diagonalization with overlap
     ethr =  9.61E-09,  avg # of iterations =  4.3

     total cpu time spent up to now is       18.2 secs

     total energy              =     -78.79270858 Ry
     estimated scf accuracy    <       0.00000070 Ry

     iteration #  8     ecut=    60.00 Ry     beta= 0.80
     Davidson diagonalization with overlap
     ethr =  2.32E-09,  avg # of iterations =  1.9

     total cpu time spent up to now is       18.7 secs

     total energy              =     -78.79270855 Ry
     estimated scf accuracy    <       0.00000015 Ry

     iteration #  9     ecut=    60.00 Ry     beta= 0.80
     Davidson diagonalization with overlap
     ethr =  5.05E-10,  avg # of iterations =  3.0

     total cpu time spent up to now is       19.4 secs

     End of self-consistent calculation

          k = 0.0000 0.0000 0.0000 (  4645 PWs)   bands (ev):

   -37.6444 -35.2027  -2.8448   3.9082   3.9082   4.4695   4.4695   5.5816
     6.2534   6.7525   7.1054   7.2131   7.2131   7.2730   7.2730  10.2322
    11.2356  15.5626  15.5626

          k =-0.1934-0.1116 0.0855 (  4675 PWs)   bands (ev):

   -37.6451 -35.2030  -2.5568   1.9823   3.4771   4.8066   5.1835   5.3956
     5.5173   6.1949   6.5330   7.8837   8.2107   8.7849   9.6613  10.8294
    11.7388  13.1507  14.0977

          k =-0.3867-0.2233 0.1710 (  4663 PWs)   bands (ev):

   -37.6448 -35.2024  -1.7501   0.0545   3.4445   4.1308   4.5859   4.9367
     5.7288   6.4681   7.3933   8.9714   9.8765  10.0809  10.9263  11.9290
    12.7256  13.1070  13.1627

          k =-0.1934 0.1116 0.1710 (  4641 PWs)   bands (ev):

   -37.6445 -35.2021  -2.4334   2.3909   3.2038   3.6336   3.9235   4.7266
     6.8093   7.4583   7.5355   7.8910   8.2247   8.9127   9.7362  10.4254
    12.5980  13.4010  14.2734

          k =-0.3867 0.0000 0.2565 (  4641 PWs)   bands (ev):

   -37.6444 -35.2022  -1.7529   0.7352   2.3749   3.3239   3.9695   5.0314
     6.7419   7.2268   7.8829   9.0799  10.1768  10.7020  10.9656  11.4287
    11.9518  12.7994  13.3522

          k = 0.3867 0.4465-0.0855 (  4638 PWs)   bands (ev):

   -37.6444 -35.2016  -1.2232  -0.1091   1.7470   3.6758   4.0483   6.1295
     6.7236   7.1496   7.6615   8.6061   9.6388  10.6061  11.6249  12.2841
    12.8137  13.7709  14.3643

          k = 0.1934 0.3349 0.0000 (  4670 PWs)   bands (ev):

   -37.6449 -35.2027  -2.1058   1.4777   1.7065   4.5714   4.6170   5.5598
     6.1876   6.5933   7.8814   8.8559   8.9862   9.3878  10.0079  10.7582
    12.5815  13.1596  13.2207

          k =-0.3867 0.2233 0.3420 (  4648 PWs)   bands (ev):

   -37.6445 -35.2022  -1.2038   0.8235   1.4977   2.8227   3.0785   4.0594
     8.3996   9.1913   9.6990   9.8711   9.9715  10.7504  10.9047  11.3776
    12.2999  12.5115  12.6565

          k = 0.3867 0.6698 0.0000 (  4664 PWs)   bands (ev):

   -37.6448 -35.2023  -0.3599  -0.1341   0.7013   3.1496   3.3802   4.8327
     7.9247   8.3678   8.6973  10.1273  10.4948  11.0211  11.6273  12.1919
    12.2889  13.0975  13.9258

          k =-0.0000-0.0000 0.2565 (  4675 PWs)   bands (ev):

   -37.6447 -35.2032  -2.4822   3.0299   3.2989   3.2989   5.1132   5.1132
     5.6112   5.8846   5.8846   7.5399   9.6106   9.9024   9.9024  10.2810
    12.9519  14.8081  14.8081

          k =-0.1934-0.1116 0.3420 (  4670 PWs)   bands (ev):

   -37.6449 -35.2032  -1.9611   1.3518   2.3882   3.5049   4.7422   4.9220
     5.5249   6.3916   7.3183   8.8670   9.2575  10.7377  11.6695  12.1854
    12.6384  13.5101  13.9018

          k = 0.5801 0.3349 0.0000 (  4638 PWs)   bands (ev):

   -37.6442 -35.2022  -1.1158  -0.1276   2.2516   2.4926   4.4931   5.5524
     7.0498   7.1654   7.8036   8.9961   9.5239  10.5202  11.1782  12.2256
    13.4063  14.0932  14.4362

          k = 0.3867 0.2233 0.0855 (  4641 PWs)   bands (ev):

   -37.6444 -35.2019  -1.8202   1.0553   2.1189   2.6780   4.2162   6.1802
     6.4183   7.8590   8.4004   9.0684   9.5892   9.7634  10.4137  10.7080
    11.2346  12.5454  14.9153

          k =-0.1934 0.1116 0.4275 (  4641 PWs)   bands (ev):

   -37.6441 -35.2030  -1.6011   1.4491   2.0230   2.3474   3.7261   5.3543
     5.8672   6.9837   8.3768   8.8439  10.4085  10.7873  11.8249  12.2738
    12.8759  13.7504  13.8521

          k = 0.5801 0.5582 0.0855 (  4631 PWs)   bands (ev):

   -37.6441 -35.2024  -0.7407   0.5422   0.8820   1.9109   4.7935   5.3385
     5.9363   8.2230   8.9248   9.3522  10.1492  11.0526  11.3992  12.5459
    13.1288  13.9839  14.4597

          k = 0.3867 0.4465 0.1710 (  4631 PWs)   bands (ev):

   -37.6441 -35.2016  -0.9981   0.5787   0.9259   2.0824   4.9912   5.9369
     6.2898   7.3510   9.0314   9.5130  10.2724  11.0174  11.3022  11.7518
    12.7235  13.1630  13.7287

          k = 0.5801-0.3349-0.2565 (  4664 PWs)   bands (ev):

   -37.6448 -35.2027  -0.3158   0.0139   1.2057   1.6234   3.7031   5.5119
     7.3089   8.3792   8.7409   9.9476  10.2373  11.5213  12.2529  12.4311
    12.7576  13.1067  13.5208

          k =-0.0000-0.0000 0.5130 (  4663 PWs)   bands (ev):

   -37.6445 -35.2037  -1.4420   0.6002   3.1903   3.1903   3.8111   3.8111
     5.1694   7.4893   8.0758   8.0758  10.9222  10.9222  11.0041  13.5514
    13.6664  13.6664  14.7725

          k = 0.7734 0.4465 0.1710 (  4638 PWs)   bands (ev):

   -37.6442 -35.2029  -0.7975   0.2311   1.5232   2.3982   3.9706   4.9768
     6.7162   7.6259   7.9153   8.4463   9.7923  11.5142  12.5696  13.3396
    13.4295  14.4168  15.2666

          k =-0.3867 0.0000-0.2565 (  4641 PWs)   bands (ev):

   -37.6444 -35.2022  -1.7519   0.7301   2.3726   3.3243   3.9839   5.0460
     6.7257   7.2351   7.8511   9.0424  10.0058  10.7975  11.0476  11.5405
    12.1777  12.6952  13.4167

          k = 0.3867-0.4465 0.0855 (  4638 PWs)   bands (ev):

   -37.6444 -35.2016  -1.2233  -0.1063   1.7327   3.6933   4.0589   6.1398
     6.7653   7.0742   7.5982   8.5810   9.6661  11.1277  11.3737  12.0948
    12.6894  13.5160  14.4400

          k = 0.5801-0.5582-0.0855 (  4631 PWs)   bands (ev):

   -37.6441 -35.2024  -0.7385   0.5404   0.8765   1.9126   4.7857   5.4677
     5.8090   8.2368   8.9240   9.4259   9.8130  11.1536  11.8085  12.6137
    13.1756  13.7448  13.9660

          k = 0.3867-0.4465-0.1710 (  4631 PWs)   bands (ev):

   -37.6441 -35.2016  -0.9967   0.5743   0.9279   2.0755   5.0738   5.9118
     6.2169   7.3476   8.8675   9.7904  10.2402  10.9394  11.4362  11.7414
    12.5808  13.4122  13.5764

     the Fermi energy is    11.5285 ev

!    total energy              =     -78.79270860 Ry
     estimated scf accuracy    <          9.7E-09 Ry
     smearing contrib. (-TS)   =       0.00008588 Ry
     internal energy E=F+TS    =     -78.79279448 Ry

     The total energy is F=E-TS. E is the sum of the following terms:
     one-electron contribution =      13.14992111 Ry
     hartree contribution      =       8.46660735 Ry
     xc contribution           =     -26.45160542 Ry
     ewald contribution        =     -73.95771751 Ry

     convergence has been achieved in   9 iterations

     Forces acting on atoms (cartesian axes, Ry/au):

     atom    1 type  1   force =    -0.00000000    0.00000000    0.14678753
     atom    2 type  1   force =     0.00000000    0.00000000   -0.14678753
     atom    3 type  2   force =    -0.07569051   -0.11474698    0.01273620
     atom    4 type  2   force =     0.07569051    0.11474698   -0.01273620
     atom    5 type  2   force =     0.13721905   -0.00817642    0.01273620
     atom    6 type  2   force =    -0.13721905    0.00817642   -0.01273620
     atom    7 type  2   force =    -0.06152854    0.12292340    0.01273620
     atom    8 type  2   force =     0.06152854   -0.12292340   -0.01273620
     The non-local contrib.  to forces
     atom    1 type  1   force =     0.00000000   -0.00000000   -0.26714633
     atom    2 type  1   force =    -0.00000000    0.00000000    0.26714633
     atom    3 type  2   force =    -0.09848209   -0.13376123    0.02617928
     atom    4 type  2   force =     0.09848209    0.13376123   -0.02617928
     atom    5 type  2   force =     0.16508166   -0.01840738    0.02617928
     atom    6 type  2   force =    -0.16508166    0.01840738   -0.02617928
     atom    7 type  2   force =    -0.06659958    0.15216860    0.02617928
     atom    8 type  2   force =     0.06659958   -0.15216860   -0.02617928
     The ionic contribution  to forces
     atom    1 type  1   force =     0.00000000   -0.00000000    2.18148896
     atom    2 type  1   force =    -0.00000000    0.00000000   -2.18148896
     atom    3 type  2   force =    -0.48428019   -0.84109644    0.01963276
     atom    4 type  2   force =     0.48428019    0.84109644   -0.01963276
     atom    5 type  2   force =     0.97055098    0.00114928    0.01963276
     atom    6 type  2   force =    -0.97055098   -0.00114928   -0.01963276
     atom    7 type  2   force =    -0.48627080    0.83994717    0.01963276
     atom    8 type  2   force =     0.48627080   -0.83994717   -0.01963276
     The local contribution  to forces
     atom    1 type  1   force =    -0.00000000    0.00000000   -1.76752197
     atom    2 type  1   force =     0.00000000    0.00000000    1.76752197
     atom    3 type  2   force =     0.50052209    0.85220213   -0.03231715
     atom    4 type  2   force =    -0.50052209   -0.85220213    0.03231715
     atom    5 type  2   force =    -0.98828974    0.00736378   -0.03231715
     atom    6 type  2   force =     0.98828974   -0.00736378    0.03231715
     atom    7 type  2   force =     0.48776765   -0.85956591   -0.03231715
     atom    8 type  2   force =    -0.48776765    0.85956591    0.03231715
     The core correction contribution to forces
     atom    1 type  1   force =     0.00000000    0.00000000    0.00000000
     atom    2 type  1   force =     0.00000000    0.00000000    0.00000000
     atom    3 type  2   force =     0.00655450    0.00786562   -0.00073739
     atom    4 type  2   force =    -0.00655450   -0.00786562    0.00073739
     atom    5 type  2   force =    -0.01008908    0.00174355   -0.00073739
     atom    6 type  2   force =     0.01008908   -0.00174355    0.00073739
     atom    7 type  2   force =     0.00353458   -0.00960917   -0.00073739
     atom    8 type  2   force =    -0.00353458    0.00960917    0.00073739
     The Hubbard contrib.    to forces
     atom    1 type  1   force =     0.00000000    0.00000000    0.00000000
     atom    2 type  1   force =     0.00000000    0.00000000    0.00000000
     atom    3 type  2   force =     0.00000000    0.00000000    0.00000000
     atom    4 type  2   force =     0.00000000    0.00000000    0.00000000
     atom    5 type  2   force =     0.00000000    0.00000000    0.00000000
     atom    6 type  2   force =     0.00000000    0.00000000    0.00000000
     atom    7 type  2   force =     0.00000000    0.00000000    0.00000000
     atom    8 type  2   force =     0.00000000    0.00000000    0.00000000
     The SCF correction term to forces
     atom    1 type  1   force =     0.00000000   -0.00000000   -0.00003313
     atom    2 type  1   force =    -0.00000000    0.00000000    0.00003313
     atom    3 type  2   force =    -0.00000482    0.00004294   -0.00002130
     atom    4 type  2   force =     0.00000482   -0.00004294    0.00002130
     atom    5 type  2   force =    -0.00003477   -0.00002564   -0.00002130
     atom    6 type  2   force =     0.00003477    0.00002564    0.00002130
     atom    7 type  2   force =     0.00003960   -0.00001729   -0.00002130
     atom    8 type  2   force =    -0.00003960    0.00001729    0.00002130

     Total force =     0.396790     Total SCF correction =     0.000127


     Computing stress (Cartesian axis) and pressure

          total   stress  (Ry/bohr**3)                   (kbar)     P=      386.06
   0.00318996   0.00000000  -0.00000000          469.26        0.00       -0.00
  -0.00000000   0.00318996   0.00000000           -0.00      469.26        0.00
  -0.00000000   0.00000000   0.00149318           -0.00        0.00      219.65

     Energy error            =      4.6E-01 Ry
     Gradient error          =      1.5E-01 Ry/Bohr
     Cell gradient error     =      2.8E+02 kbar

     number of scf cycles    =   2
     number of bfgs steps    =   1

     enthalpy           old  =     -76.2766073303 Ry
     enthalpy           new  =     -76.7358558049 Ry

     CASE: enthalpy          _new < enthalpy          _old

     new trust radius        =       0.3237422442 bohr
ibrav =      5
 celldm(1) =      8.88853349
 celldm(4) =      0.39516668
Input lattice vectors:
     0.51854248    -0.29938064     0.72842998
     0.00000000     0.59876128     0.72842998
    -0.51854248    -0.29938064     0.72842998
New lattice vectors in INITIAL alat:
     0.51854248    -0.29938064     0.72842998
     0.00000000     0.59876128     0.72842998
    -0.51854248    -0.29938064     0.72842998
New lattice vectors in NEW alat (for information only):
     0.54992423    -0.31749890     0.77251394
     0.00000000     0.63499781     0.77251394
    -0.54992423    -0.31749890     0.77251394
Discrepancy in bohr =     0.000000    0.000000    0.000000
     new conv_thr            =       0.0000000029 Ry

     new unit-cell volume =    568.32008 a.u.^3 (    84.21635 Ang^3 )
     density =      3.59638 g/cm^3

CELL_PARAMETERS (alat=  9.42645998)
   0.518542481  -0.299380641   0.728429977
   0.000000000   0.598761282   0.728429977
  -0.518542481  -0.299380641   0.728429977

ATOMIC_POSITIONS (crystal)
Li            0.0623070664        0.0623070664        0.0623070664
Li            0.9376929336        0.9376929336        0.9376929336
Si            1.0931571217       -0.3026455377        0.4786498752
Si           -0.0931571217        0.3026455377        1.5213501248
Si            0.4786498752        0.0931571217        0.6973544623
Si            0.5213501248       -0.0931571217        1.3026455377
Si            0.6973544623       -0.5213501248        1.0931571217
Si            0.3026455377        0.5213501248        0.9068428783



     Writing config-only to output data dir ./output/LiSi.save/
     NEW-OLD atomic charge density approx. for the potential
     extrapolated charge   28.05684, renormalised to   30.00000

     total cpu time spent up to now is       21.6 secs

     Self-consistent Calculation

     iteration #  1     ecut=    60.00 Ry     beta= 0.80
     Davidson diagonalization with overlap
     c_bands:  1 eigenvalues not converged
     c_bands:  1 eigenvalues not converged
     c_bands:  1 eigenvalues not converged
     c_bands:  1 eigenvalues not converged
     c_bands:  1 eigenvalues not converged
     c_bands:  2 eigenvalues not converged
     c_bands:  1 eigenvalues not converged
     c_bands:  1 eigenvalues not converged
     ethr =  1.00E-06,  avg # of iterations = 15.9

     total cpu time spent up to now is       23.8 secs

     total energy              =     -78.88105444 Ry
     estimated scf accuracy    <       0.01425132 Ry

     iteration #  2     ecut=    60.00 Ry     beta= 0.80
     Davidson diagonalization with overlap
     ethr =  4.75E-05,  avg # of iterations =  3.0

     total cpu time spent up to now is       24.5 secs

     total energy              =     -78.89188056 Ry
     estimated scf accuracy    <       0.01627176 Ry

     iteration #  3     ecut=    60.00 Ry     beta= 0.80
     Davidson diagonalization with overlap
     ethr =  4.75E-05,  avg # of iterations =  2.0

     total cpu time spent up to now is       25.1 secs

     total energy              =     -78.89317838 Ry
     estimated scf accuracy    <       0.00131967 Ry

     iteration #  4     ecut=    60.00 Ry     beta= 0.80
     Davidson diagonalization with overlap
     ethr =  4.40E-06,  avg # of iterations =  2.3

     total cpu time spent up to now is       25.6 secs

     total energy              =     -78.89327004 Ry
     estimated scf accuracy    <       0.00029820 Ry

     iteration #  5     ecut=    60.00 Ry     beta= 0.80
     Davidson diagonalization with overlap
     ethr =  9.94E-07,  avg # of iterations =  3.7

     total cpu time spent up to now is       26.3 secs

     total energy              =     -78.89337684 Ry
     estimated scf accuracy    <       0.00001934 Ry

     iteration #  6     ecut=    60.00 Ry     beta= 0.80
     Davidson diagonalization with overlap
     ethr =  6.45E-08,  avg # of iterations =  2.4

     total cpu time spent up to now is       26.9 secs

     total energy              =     -78.89338116 Ry
     estimated scf accuracy    <       0.00000061 Ry

     iteration #  7     ecut=    60.00 Ry     beta= 0.80
     Davidson diagonalization with overlap
     ethr =  2.05E-09,  avg # of iterations =  4.0

     total cpu time spent up to now is       27.6 secs

     total energy              =     -78.89338146 Ry
     estimated scf accuracy    <       0.00000006 Ry

     iteration #  8     ecut=    60.00 Ry     beta= 0.80
     Davidson diagonalization with overlap
     ethr =  2.15E-10,  avg # of iterations =  3.0

     total cpu time spent up to now is       28.3 secs

     total energy              =     -78.89338148 Ry
     estimated scf accuracy    <       0.00000001 Ry

     iteration #  9     ecut=    60.00 Ry     beta= 0.80
     Davidson diagonalization with overlap
     ethr =  4.67E-11,  avg # of iterations =  2.1

     total cpu time spent up to now is       28.8 secs

     End of self-consistent calculation

          k = 0.0000 0.0000 0.0000 (  4645 PWs)   bands (ev):

   -35.9990 -34.0922  -2.6935   4.3853   4.3853   4.7303   4.7303   6.3650
     6.5510   7.0673   7.8791   7.8791   8.3852   8.3852   8.6861  11.6417
    12.2425  16.1446  16.1446

          k =-0.1928-0.1113 0.0915 (  4675 PWs)   bands (ev):

   -35.9992 -34.0927  -2.4054   2.2973   3.9425   5.1058   5.6348   6.1220
     6.3564   6.9419   7.2293   8.5106   9.1979   9.8787  10.6153  11.7859
    12.7326  13.6957  14.6218

          k =-0.3857-0.2227 0.1830 (  4663 PWs)   bands (ev):

   -35.9985 -34.0926  -1.6191   0.3572   3.9323   4.8477   4.9494   5.6856
     6.7793   7.2667   7.6920   9.5026  10.1612  11.3774  11.9117  12.5235
    13.6785  13.9696  15.1119

          k =-0.1928 0.1113 0.1830 (  4641 PWs)   bands (ev):

   -35.9984 -34.0924  -2.2646   2.7059   3.5939   3.8011   4.7987   5.7342
     7.1895   7.6316   8.0713   8.6169   9.1342  10.1419  11.2582  11.5352
    13.2162  14.1063  15.0249

          k =-0.3857 0.0000 0.2746 (  4641 PWs)   bands (ev):

   -35.9980 -34.0926  -1.5764   0.9816   2.8027   3.9450   4.7135   5.6159
     7.1911   7.8782   8.7440   9.6524  10.5155  11.3857  11.9615  12.7542
    13.3420  13.8058  14.8189

          k = 0.3857 0.4454-0.0915 (  4638 PWs)   bands (ev):

   -35.9981 -34.0919  -1.1275   0.2359   2.1581   4.3910   4.7756   6.6368
     7.4644   7.7171   8.1898   9.3236  11.1126  11.4310  12.1040  12.9674
    13.3642  14.8798  15.7265

          k = 0.1928 0.3340 0.0000 (  4670 PWs)   bands (ev):

   -35.9986 -34.0929  -1.9708   1.8102   2.1007   5.1772   5.2017   6.1739
     6.8627   7.5478   9.3152   9.4056   9.6006  10.1847  10.6503  11.2423
    13.2564  13.7943  14.2494

          k =-0.3857 0.2227 0.3661 (  4648 PWs)   bands (ev):

   -35.9981 -34.0927  -0.9845   1.1053   1.7708   3.1909   3.8792   4.8550
     8.8448   9.8989  10.0141  10.2482  10.9176  11.6146  11.8310  11.9361
    12.9071  14.2600  14.6404

          k = 0.3857 0.6680 0.0000 (  4664 PWs)   bands (ev):

   -35.9982 -34.0928  -0.2743   0.1980   1.1006   3.9255   3.9631   5.3647
     8.3203   8.7788   9.6627  11.2917  11.6536  11.9158  12.0134  12.3959
    13.0171  14.3429  14.8965

          k =-0.0000 0.0000 0.2746 (  4675 PWs)   bands (ev):

   -35.9984 -34.0933  -2.2806   3.5546   3.5546   3.8702   5.6160   5.6882
     5.6882   6.4889   6.4889   8.0542  10.6067  11.1146  11.1146  12.1166
    14.3366  16.1357  16.1357

          k =-0.1928-0.1113 0.3661 (  4670 PWs)   bands (ev):

   -35.9985 -34.0936  -1.7311   1.5874   3.0689   3.8799   5.2372   5.4001
     6.1235   6.7076   7.7339   9.6185  10.5491  11.4775  13.3335  13.8142
    13.9439  14.4742  14.7747

          k = 0.5785 0.3340 0.0000 (  4638 PWs)   bands (ev):

   -35.9978 -34.0928  -0.9714   0.2237   2.7728   2.8902   5.0999   6.4115
     7.2883   7.6487   8.6632   9.8131  10.6843  11.4016  11.9331  12.7931
    14.2037  15.0099  15.3869

          k = 0.3857 0.2227 0.0915 (  4641 PWs)   bands (ev):

   -35.9981 -34.0923  -1.6835   1.4771   2.4777   3.0187   4.9115   7.2294
     7.3069   8.6903   8.8317   9.8985  10.2034  10.7733  11.0717  11.2100
    11.7958  13.2306  16.0254

          k =-0.1928 0.1113 0.4576 (  4641 PWs)   bands (ev):

   -35.9977 -34.0936  -1.3167   1.9613   2.2774   2.6332   4.2430   6.1681
     6.2918   6.9586   9.0956   9.4401  11.7414  11.8625  13.0448  13.8965
    14.3747  14.5855  15.2607

          k = 0.5785 0.5567 0.0915 (  4631 PWs)   bands (ev):

   -35.9975 -34.0932  -0.4630   0.7577   1.2729   2.4535   5.1745   6.0188
     6.4942   8.9475   9.3078   9.9583  11.2119  11.8174  12.9568  13.6800
    13.9968  14.8409  15.1154

          k = 0.3857 0.4454 0.1830 (  4631 PWs)   bands (ev):

   -35.9977 -34.0919  -0.8735   0.8496   1.4119   2.6248   5.4688   6.9362
     7.1009   7.8122   9.5351  10.2216  11.2315  11.6824  11.9503  13.0416
    13.3742  13.8492  14.7869

          k = 0.5785-0.3340-0.2746 (  4664 PWs)   bands (ev):

   -35.9982 -34.0932  -0.1556   0.4359   1.6579   1.9111   4.1772   6.5154
     7.6921   9.0362   9.3372  10.3983  11.2112  12.2090  12.9665  13.1272
    14.0041  14.1302  14.8152

          k =-0.0000 0.0000 0.5491 (  4663 PWs)   bands (ev):

   -35.9981 -34.0944  -1.0846   1.1401   3.3330   3.3330   4.3255   4.3255
     5.0946   8.2459   8.8659   8.8659  11.9722  12.3021  12.3021  14.8518
    15.4338  15.4338  16.5211

          k = 0.7714 0.4454 0.1830 (  4638 PWs)   bands (ev):

   -35.9977 -34.0939  -0.3841   0.6630   1.7205   2.6868   4.4018   5.3271
     6.7146   8.5611   8.8305   9.1601  10.9611  12.7707  13.8885  14.5001
    15.0328  15.2865  15.9700

          k =-0.3857-0.0000-0.2746 (  4641 PWs)   bands (ev):

   -35.9980 -34.0926  -1.5759   0.9786   2.8057   3.9354   4.7325   5.6100
     7.2274   7.8147   8.8353   9.5475  10.3626  11.4171  12.2165  12.8401
    13.4018  13.9373  14.6776

          k = 0.3857-0.4454 0.0915 (  4638 PWs)   bands (ev):

   -35.9981 -34.0919  -1.1275   0.2370   2.1534   4.3863   4.7836   6.7110
     7.4707   7.6718   8.0703   9.3267  11.3987  11.5523  11.9004  12.9166
    13.2008  15.0276  15.3370

          k = 0.5785-0.5567-0.0915 (  4631 PWs)   bands (ev):

   -35.9975 -34.0932  -0.4617   0.7568   1.2677   2.4612   5.1655   5.9616
     6.5891   9.0007   9.2922   9.8496  10.8374  12.4266  13.0016  13.7070
    14.1182  14.6134  14.9458

          k = 0.3857-0.4454-0.1830 (  4631 PWs)   bands (ev):

   -35.9977 -34.0919  -0.8728   0.8477   1.4122   2.6223   5.4896   6.9345
     7.1342   7.7399   9.3639  10.5640  11.1368  11.6006  12.1515  13.0087
    13.1001  13.9001  15.0059

     the Fermi energy is    12.4046 ev

!    total energy              =     -78.89338148 Ry
     estimated scf accuracy    <          5.6E-11 Ry
     smearing contrib. (-TS)   =       0.00249142 Ry
     internal energy E=F+TS    =     -78.89587290 Ry

     The total energy is F=E-TS. E is the sum of the following terms:
     one-electron contribution =      17.41492252 Ry
     hartree contribution      =       7.33347922 Ry
     xc contribution           =     -26.79958159 Ry
     ewald contribution        =     -76.84469304 Ry

     convergence has been achieved in   9 iterations

     Forces acting on atoms (cartesian axes, Ry/au):

     atom    1 type  1   force =     0.00000000   -0.00000000    0.14305980
     atom    2 type  1   force =    -0.00000000    0.00000000   -0.14305980
     atom    3 type  2   force =    -0.04446302   -0.03800918   -0.00292057
     atom    4 type  2   force =     0.04446302    0.03800918    0.00292057
     atom    5 type  2   force =     0.05514843   -0.01950152   -0.00292057
     atom    6 type  2   force =    -0.05514843    0.01950152    0.00292057
     atom    7 type  2   force =    -0.01068540    0.05751070   -0.00292057
     atom    8 type  2   force =     0.01068540   -0.05751070    0.00292057
     The non-local contrib.  to forces
     atom    1 type  1   force =    -0.00000000    0.00000000   -0.23386976
     atom    2 type  1   force =     0.00000000   -0.00000000    0.23386976
     atom    3 type  2   force =    -0.07854273   -0.04403476    0.00886860
     atom    4 type  2   force =     0.07854273    0.04403476   -0.00886860
     atom    5 type  2   force =     0.07740658   -0.04600262    0.00886860
     atom    6 type  2   force =    -0.07740658    0.04600262   -0.00886860
     atom    7 type  2   force =     0.00113615    0.09003738    0.00886860
     atom    8 type  2   force =    -0.00113615   -0.09003738   -0.00886860
     The ionic contribution  to forces
     atom    1 type  1   force =     0.00000000   -0.00000000    1.71704390
     atom    2 type  1   force =    -0.00000000    0.00000000   -1.71704390
     atom    3 type  2   force =    -0.31482497   -0.37314439   -0.17785274
     atom    4 type  2   force =     0.31482497    0.37314439    0.17785274
     atom    5 type  2   force =     0.48056500   -0.08607423   -0.17785274
     atom    6 type  2   force =    -0.48056500    0.08607423    0.17785274
     atom    7 type  2   force =    -0.16574003    0.45921862   -0.17785274
     atom    8 type  2   force =     0.16574003   -0.45921862    0.17785274
     The local contribution  to forces
     atom    1 type  1   force =    -0.00000000   -0.00000000   -1.34010866
     atom    2 type  1   force =     0.00000000    0.00000000    1.34010866
     atom    3 type  2   force =     0.34361131    0.37785525    0.16559343
     atom    4 type  2   force =    -0.34361131   -0.37785525   -0.16559343
     atom    5 type  2   force =    -0.49903790    0.10864850    0.16559343
     atom    6 type  2   force =     0.49903790   -0.10864850   -0.16559343
     atom    7 type  2   force =     0.15542659   -0.48650374    0.16559343
     atom    8 type  2   force =    -0.15542659    0.48650374   -0.16559343
     The core correction contribution to forces
     atom    1 type  1   force =     0.00000000    0.00000000    0.00000000
     atom    2 type  1   force =     0.00000000    0.00000000    0.00000000
     atom    3 type  2   force =     0.00529226    0.00131497    0.00047295
     atom    4 type  2   force =    -0.00529226   -0.00131497   -0.00047295
     atom    5 type  2   force =    -0.00378493    0.00392575    0.00047295
     atom    6 type  2   force =     0.00378493   -0.00392575   -0.00047295
     atom    7 type  2   force =    -0.00150733   -0.00524072    0.00047295
     atom    8 type  2   force =     0.00150733    0.00524072   -0.00047295
     The Hubbard contrib.    to forces
     atom    1 type  1   force =     0.00000000    0.00000000    0.00000000
     atom    2 type  1   force =     0.00000000    0.00000000    0.00000000
     atom    3 type  2   force =     0.00000000    0.00000000    0.00000000
     atom    4 type  2   force =     0.00000000    0.00000000    0.00000000
     atom    5 type  2   force =     0.00000000    0.00000000    0.00000000
     atom    6 type  2   force =     0.00000000    0.00000000    0.00000000
     atom    7 type  2   force =     0.00000000    0.00000000    0.00000000
     atom    8 type  2   force =     0.00000000    0.00000000    0.00000000
     The SCF correction term to forces
     atom    1 type  1   force =     0.00000000    0.00000000   -0.00000567
     atom    2 type  1   force =    -0.00000000   -0.00000000    0.00000567
     atom    3 type  2   force =     0.00000111   -0.00000025   -0.00000282
     atom    4 type  2   force =    -0.00000111    0.00000025    0.00000282
     atom    5 type  2   force =    -0.00000034    0.00000109   -0.00000282
     atom    6 type  2   force =     0.00000034   -0.00000109    0.00000282
     atom    7 type  2   force =    -0.00000078   -0.00000084   -0.00000282
     atom    8 type  2   force =     0.00000078    0.00000084    0.00000282

     Total force =     0.248019     Total SCF correction =     0.000011


     Computing stress (Cartesian axis) and pressure

          total   stress  (Ry/bohr**3)                   (kbar)     P=      498.26
   0.00352944  -0.00000000  -0.00000000          519.20       -0.00       -0.00
   0.00000000   0.00352944   0.00000000            0.00      519.20        0.00
   0.00000000   0.00000000   0.00310245            0.00        0.00      456.39

     Energy error            =      2.3E-01 Ry
     Gradient error          =      1.4E-01 Ry/Bohr
     Cell gradient error     =      4.4E+01 kbar

     number of scf cycles    =   3
     number of bfgs steps    =   2

     enthalpy           old  =     -76.7358558049 Ry
     enthalpy           new  =     -76.9617007957 Ry

     CASE: enthalpy          _new < enthalpy          _old

     new trust radius        =       0.2310558488 bohr
ibrav =      5
 celldm(1) =      8.73966516
 celldm(4) =      0.36027181
Input lattice vectors:
     0.52435923    -0.30273894     0.70213138
    -0.00000000     0.60547788     0.70213138
    -0.52435923    -0.30273894     0.70213138
New lattice vectors in INITIAL alat:
     0.52435923    -0.30273894     0.70213138
     0.00000000     0.60547788     0.70213138
    -0.52435923    -0.30273894     0.70213138
New lattice vectors in NEW alat (for information only):
     0.56556529    -0.32652927     0.75730743
     0.00000000     0.65305854     0.75730743
    -0.56556529    -0.32652927     0.75730743
Discrepancy in bohr =     0.000000    0.000000    0.000000
     new conv_thr            =       0.0000000029 Ry

     new unit-cell volume =    560.16080 a.u.^3 (    83.00727 Ang^3 )
     density =      3.64877 g/cm^3

CELL_PARAMETERS (alat=  9.42645998)
   0.524359225  -0.302738940   0.702131377
   0.000000000   0.605477879   0.702131377
  -0.524359225  -0.302738940   0.702131377

ATOMIC_POSITIONS (crystal)
Li            0.0735236158        0.0735236158        0.0735236158
Li            0.9264763842        0.9264763842        0.9264763842
Si            1.0893372036       -0.3193789432        0.5006446146
Si           -0.0893372036        0.3193789432        1.4993553854
Si            0.5006446146        0.0893372036        0.6806210568
Si            0.4993553854       -0.0893372036        1.3193789432
Si            0.6806210568       -0.4993553854        1.0893372036
Si            0.3193789432        0.4993553854        0.9106627964



     Writing config-only to output data dir ./output/LiSi.save/
     NEW-OLD atomic charge density approx. for the potential
     extrapolated charge   29.56321, renormalised to   30.00000

     total cpu time spent up to now is       31.1 secs

     Self-consistent Calculation

     iteration #  1     ecut=    60.00 Ry     beta= 0.80
     Davidson diagonalization with overlap
     c_bands:  1 eigenvalues not converged
     c_bands:  1 eigenvalues not converged
     c_bands:  1 eigenvalues not converged
     c_bands:  1 eigenvalues not converged
     c_bands:  1 eigenvalues not converged
     ethr =  1.00E-06,  avg # of iterations = 15.4

     total cpu time spent up to now is       33.2 secs

     total energy              =     -78.92496856 Ry
     estimated scf accuracy    <       0.02271729 Ry

     iteration #  2     ecut=    60.00 Ry     beta= 0.80
     Davidson diagonalization with overlap
     ethr =  7.57E-05,  avg # of iterations =  2.1

     total cpu time spent up to now is       33.8 secs

     total energy              =     -78.92966477 Ry
     estimated scf accuracy    <       0.00748405 Ry

     iteration #  3     ecut=    60.00 Ry     beta= 0.80
     Davidson diagonalization with overlap
     ethr =  2.49E-05,  avg # of iterations =  2.0

     total cpu time spent up to now is       34.4 secs

     total energy              =     -78.93133630 Ry
     estimated scf accuracy    <       0.00027982 Ry

     iteration #  4     ecut=    60.00 Ry     beta= 0.80
     Davidson diagonalization with overlap
     ethr =  9.33E-07,  avg # of iterations =  3.2

     total cpu time spent up to now is       35.1 secs

     total energy              =     -78.93140963 Ry
     estimated scf accuracy    <       0.00001933 Ry

     iteration #  5     ecut=    60.00 Ry     beta= 0.80
     Davidson diagonalization with overlap
     ethr =  6.44E-08,  avg # of iterations =  2.3

     total cpu time spent up to now is       35.7 secs

     total energy              =     -78.93141438 Ry
     estimated scf accuracy    <       0.00000031 Ry

     iteration #  6     ecut=    60.00 Ry     beta= 0.80
     Davidson diagonalization with overlap
     ethr =  1.03E-09,  avg # of iterations =  4.9

     total cpu time spent up to now is       36.4 secs

     total energy              =     -78.93141469 Ry
     estimated scf accuracy    <       0.00000005 Ry

     iteration #  7     ecut=    60.00 Ry     beta= 0.80
     Davidson diagonalization with overlap
     ethr =  1.67E-10,  avg # of iterations =  2.0

     total cpu time spent up to now is       37.0 secs

     total energy              =     -78.93141471 Ry
     estimated scf accuracy    <          4.9E-09 Ry

     iteration #  8     ecut=    60.00 Ry     beta= 0.80
     Davidson diagonalization with overlap
     ethr =  1.64E-11,  avg # of iterations =  2.7

     total cpu time spent up to now is       37.6 secs

     End of self-consistent calculation

          k = 0.0000 0.0000 0.0000 (  4645 PWs)   bands (ev):

   -34.5888 -33.6405  -2.7673   4.4225   4.4225   4.4810   4.4810   6.0260
     6.7717   7.2430   7.8871   7.8871   9.0240   9.0240   9.3070  12.3138
    12.5028  16.2009  16.2009

          k =-0.1907-0.1101 0.0949 (  4675 PWs)   bands (ev):

   -34.5886 -33.6416  -2.4841   2.2140   3.9330   4.9879   5.3444   6.3805
     6.6877   6.9060   7.4757   8.5541   9.3624  10.5025  10.9815  12.1529
    12.9217  13.8330  14.5434

          k =-0.3814-0.2202 0.1899 (  4663 PWs)   bands (ev):

   -34.5872 -33.6419  -1.7219   0.3077   3.9496   4.8703   4.9607   5.8327
     7.1454   7.3595   7.6510   9.5267   9.9786  11.4119  12.3321  12.7316
    13.9308  14.2760  15.4580

          k =-0.1907 0.1101 0.1899 (  4641 PWs)   bands (ev):

   -34.5874 -33.6415  -2.3338   2.6056   3.4629   3.6981   5.0933   6.0789
     7.0694   7.3135   8.0454   8.5872   9.8274  10.5959  11.4848  12.3246
    13.1720  14.1350  15.2429

          k =-0.3814 0.0000 0.2848 (  4641 PWs)   bands (ev):

   -34.5865 -33.6420  -1.6522   0.8825   2.8266   3.9333   4.8505   5.8303
     7.2160   7.7932   8.7322   9.8926  10.4328  11.4009  12.2678  13.0723
    13.7268  14.1374  15.4590

          k = 0.3814 0.4404-0.0949 (  4638 PWs)   bands (ev):

   -34.5865 -33.6414  -1.2556   0.2092   2.1798   4.4969   4.8791   6.7201
     7.4073   7.8999   8.2029   9.3850  11.2091  11.9873  12.1311  13.0202
    13.3765  14.5648  15.6849

          k = 0.1907 0.3303 0.0000 (  4670 PWs)   bands (ev):

   -34.5873 -33.6423  -2.0681   1.7264   2.1273   5.1485   5.1565   6.4140
     7.0148   7.8303   9.2622   9.3727   9.8394  10.2083  11.2473  11.3574
    13.2748  13.8808  14.5829

          k =-0.3814 0.2202 0.3798 (  4648 PWs)   bands (ev):

   -34.5861 -33.6427  -1.0431   1.0478   1.6630   3.0943   4.1586   5.1257
     8.7532   9.5647   9.7700  10.2069  11.2295  11.8117  12.0900  12.3410
    12.7100  15.0216  15.3758

          k = 0.3814 0.6606 0.0000 (  4664 PWs)   bands (ev):

   -34.5863 -33.6425  -0.4039   0.1532   1.1191   3.8473   4.2297   5.5226
     8.2420   8.6662   9.7931  11.3362  11.5657  12.0163  12.1409  12.4109
    13.5845  14.6549  15.0614

          k = 0.0000 0.0000 0.2848 (  4675 PWs)   bands (ev):

   -34.5877 -33.6420  -2.3264   3.3695   3.3695   4.1143   5.3442   5.7383
     5.7383   6.5824   6.5824   8.1262  11.0335  11.6598  11.6598  12.6953
    14.9298  16.3401  16.3401

          k =-0.1907-0.1101 0.3798 (  4670 PWs)   bands (ev):

   -34.5874 -33.6429  -1.7664   1.4549   3.2303   3.7308   5.2418   5.4090
     6.2526   6.5997   7.7051   9.7073  11.0939  11.7854  13.6204  14.0904
    14.5586  14.7108  15.2117

          k = 0.5721 0.3303 0.0000 (  4638 PWs)   bands (ev):

   -34.5862 -33.6424  -1.0719   0.2051   2.8246   2.8416   5.2336   6.5569
     7.1717   7.6054   8.7307  10.1139  10.6111  11.6382  12.5500  12.8464
    14.3793  14.6040  15.7104

          k = 0.3814 0.2202 0.0949 (  4641 PWs)   bands (ev):

   -34.5866 -33.6416  -1.7844   1.4944   2.4178   2.9406   5.1221   7.3521
     7.5681   8.8217   8.9251   9.6672  10.3253  10.7276  11.0650  11.4560
    12.3392  13.4004  16.4120

          k =-0.1907 0.1101 0.4747 (  4641 PWs)   bands (ev):

   -34.5861 -33.6431  -1.3199   1.9604   2.1348   2.5592   4.3472   6.1994
     6.4235   6.6618   9.2501   9.3688  12.0845  12.6167  13.3996  14.0653
    14.7040  14.9382  15.7729

          k = 0.5721 0.5505 0.0949 (  4631 PWs)   bands (ev):

   -34.5856 -33.6430  -0.4881   0.6415   1.2878   2.4873   5.1200   6.0028
     6.7414   8.5935   9.4955  10.0618  11.5621  11.7576  13.7920  13.9286
    14.4072  14.8629  15.0899

          k = 0.3814 0.4404 0.1899 (  4631 PWs)   bands (ev):

   -34.5857 -33.6416  -0.9929   0.7646   1.5215   2.6360   5.4725   7.1300
     7.2681   7.9180   9.5131  10.2082  11.2997  11.6307  11.9425  13.2174
    13.7440  14.1349  14.9979

          k = 0.5721-0.3303-0.2848 (  4664 PWs)   bands (ev):

   -34.5862 -33.6432  -0.2577   0.4889   1.6450   1.8083   4.2546   6.8307
     7.5791   8.7982   9.4926  10.3671  11.4785  12.3965  13.0017  13.1738
    13.7093  14.3752  15.5405

          k = 0.0000 0.0000 0.5697 (  4663 PWs)   bands (ev):

   -34.5863 -33.6444  -1.0331   1.2259   3.0436   3.0436   4.4463   4.4463
     4.7910   8.4938   8.9502   8.9502  12.2670  12.9804  12.9804  15.1307
    16.1184  16.1184  16.9915

          k = 0.7628 0.4404 0.1899 (  4638 PWs)   bands (ev):

   -34.5858 -33.6439  -0.2850   0.6627   1.5578   2.5426   4.4314   5.2776
     6.3973   8.8763   9.0067   9.2351  11.3959  13.3395  14.3429  14.7176
    15.3515  15.7632  15.9468

          k =-0.3814-0.0000-0.2848 (  4641 PWs)   bands (ev):

   -34.5865 -33.6420  -1.6518   0.8800   2.8325   3.9175   4.8862   5.8033
     7.2701   7.6906   8.8727   9.6867  10.4556  11.3446  12.6284  13.1077
    13.7814  14.2525  14.9392

          k = 0.3814-0.4404 0.0949 (  4638 PWs)   bands (ev):

   -34.5865 -33.6414  -1.2556   0.2095   2.1785   4.4772   4.9023   6.7717
     7.4792   7.7444   8.1358   9.4579  11.4390  11.9136  12.0543  12.7995
    13.5223  14.8039  15.5317

          k = 0.5721-0.5505-0.0949 (  4631 PWs)   bands (ev):

   -34.5856 -33.6430  -0.4870   0.6405   1.2816   2.5000   5.1127   5.9314
     6.8443   8.6667   9.5018   9.8383  11.1810  12.4784  13.7323  13.8111
    14.6196  14.8449  15.2953

          k = 0.3814-0.4404-0.1899 (  4631 PWs)   bands (ev):

   -34.5857 -33.6416  -0.9925   0.7638   1.5196   2.6374   5.4952   7.0176
     7.3881   7.8742   9.3717  10.4389  11.2944  11.5459  12.2117  13.0313
    13.4257  14.1096  15.4863

     the Fermi energy is    12.6649 ev

!    total energy              =     -78.93141471 Ry
     estimated scf accuracy    <          4.5E-10 Ry
     smearing contrib. (-TS)   =       0.00141990 Ry
     internal energy E=F+TS    =     -78.93283461 Ry

     The total energy is F=E-TS. E is the sum of the following terms:
     one-electron contribution =      19.27468292 Ry
     hartree contribution      =       6.69088231 Ry
     xc contribution           =     -26.94155092 Ry
     ewald contribution        =     -77.95684892 Ry

     convergence has been achieved in   8 iterations

     Forces acting on atoms (cartesian axes, Ry/au):

     atom    1 type  1   force =    -0.00000000   -0.00000000    0.08325362
     atom    2 type  1   force =     0.00000000    0.00000000   -0.08325362
     atom    3 type  2   force =    -0.01376132    0.02577328    0.02696026
     atom    4 type  2   force =     0.01376132   -0.02577328   -0.02696026
     atom    5 type  2   force =    -0.01543966   -0.02480430    0.02696026
     atom    6 type  2   force =     0.01543966    0.02480430   -0.02696026
     atom    7 type  2   force =     0.02920098   -0.00096899    0.02696026
     atom    8 type  2   force =    -0.02920098    0.00096899   -0.02696026
     The non-local contrib.  to forces
     atom    1 type  1   force =     0.00000000    0.00000000   -0.13972275
     atom    2 type  1   force =    -0.00000000    0.00000000    0.13972275
     atom    3 type  2   force =    -0.04221250    0.02037460    0.03907996
     atom    4 type  2   force =     0.04221250   -0.02037460   -0.03907996
     atom    5 type  2   force =     0.00346133   -0.04674440    0.03907996
     atom    6 type  2   force =    -0.00346133    0.04674440   -0.03907996
     atom    7 type  2   force =     0.03875117    0.02636980    0.03907996
     atom    8 type  2   force =    -0.03875117   -0.02636980   -0.03907996
     The ionic contribution  to forces
     atom    1 type  1   force =    -0.00000000   -0.00000000    0.82231328
     atom    2 type  1   force =     0.00000000    0.00000000   -0.82231328
     atom    3 type  2   force =    -0.12628115   -0.06914363   -0.23441278
     atom    4 type  2   force =     0.12628115    0.06914363    0.23441278
     atom    5 type  2   force =     0.12302072   -0.07479087   -0.23441278
     atom    6 type  2   force =    -0.12302072    0.07479087    0.23441278
     atom    7 type  2   force =     0.00326044    0.14393450   -0.23441278
     atom    8 type  2   force =    -0.00326044   -0.14393450    0.23441278
     The local contribution  to forces
     atom    1 type  1   force =    -0.00000000   -0.00000000   -0.59932457
     atom    2 type  1   force =     0.00000000    0.00000000    0.59932457
     atom    3 type  2   force =     0.15184412    0.07779869    0.22403299
     atom    4 type  2   force =    -0.15184412   -0.07779869   -0.22403299
     atom    5 type  2   force =    -0.14329771    0.09260152    0.22403299
     atom    6 type  2   force =     0.14329771   -0.09260152   -0.22403299
     atom    7 type  2   force =    -0.00854642   -0.17040021    0.22403299
     atom    8 type  2   force =     0.00854642    0.17040021   -0.22403299
     The core correction contribution to forces
     atom    1 type  1   force =     0.00000000    0.00000000    0.00000000
     atom    2 type  1   force =     0.00000000    0.00000000    0.00000000
     atom    3 type  2   force =     0.00288230   -0.00325282   -0.00174268
     atom    4 type  2   force =    -0.00288230    0.00325282    0.00174268
     atom    5 type  2   force =     0.00137588    0.00412256   -0.00174268
     atom    6 type  2   force =    -0.00137588   -0.00412256    0.00174268
     atom    7 type  2   force =    -0.00425818   -0.00086973   -0.00174268
     atom    8 type  2   force =     0.00425818    0.00086973    0.00174268
     The Hubbard contrib.    to forces
     atom    1 type  1   force =     0.00000000    0.00000000    0.00000000
     atom    2 type  1   force =     0.00000000    0.00000000    0.00000000
     atom    3 type  2   force =     0.00000000    0.00000000    0.00000000
     atom    4 type  2   force =     0.00000000    0.00000000    0.00000000
     atom    5 type  2   force =     0.00000000    0.00000000    0.00000000
     atom    6 type  2   force =     0.00000000    0.00000000    0.00000000
     atom    7 type  2   force =     0.00000000    0.00000000    0.00000000
     atom    8 type  2   force =     0.00000000    0.00000000    0.00000000
     The SCF correction term to forces
     atom    1 type  1   force =    -0.00000000   -0.00000000   -0.00001234
     atom    2 type  1   force =     0.00000000    0.00000000    0.00001234
     atom    3 type  2   force =     0.00000591   -0.00000355    0.00000276
     atom    4 type  2   force =    -0.00000591    0.00000355   -0.00000276
     atom    5 type  2   force =     0.00000012    0.00000690    0.00000276
     atom    6 type  2   force =    -0.00000012   -0.00000690   -0.00000276
     atom    7 type  2   force =    -0.00000603   -0.00000334    0.00000276
     atom    8 type  2   force =     0.00000603    0.00000334   -0.00000276

     Total force =     0.152792     Total SCF correction =     0.000025


     Computing stress (Cartesian axis) and pressure

          total   stress  (Ry/bohr**3)                   (kbar)     P=      566.97
   0.00325364  -0.00000000   0.00000000          478.63       -0.00        0.00
   0.00000000   0.00325364   0.00000000            0.00      478.63        0.00
   0.00000000   0.00000000   0.00505525            0.00        0.00      743.65

     Energy error            =      6.6E-02 Ry
     Gradient error          =      8.3E-02 Ry/Bohr
     Cell gradient error     =      2.4E+02 kbar

     number of scf cycles    =   4
     number of bfgs steps    =   3

     enthalpy           old  =     -76.9617007957 Ry
     enthalpy           new  =     -77.0274668379 Ry

     CASE: enthalpy          _new < enthalpy          _old

     new trust radius        =       0.1624766471 bohr
ibrav =      5
 celldm(1) =      8.90721142
 celldm(4) =      0.38604424
Input lattice vectors:
     0.52353615    -0.30226374     0.72623171
    -0.00000000     0.60452747     0.72623171
    -0.52353615    -0.30226374     0.72623171
New lattice vectors in INITIAL alat:
     0.52353615    -0.30226374     0.72623171
     0.00000000     0.60452747     0.72623171
    -0.52353615    -0.30226374     0.72623171
New lattice vectors in NEW alat (for information only):
     0.55405585    -0.31988429     0.76856760
     0.00000000     0.63976858     0.76856760
    -0.55405585    -0.31988429     0.76856760
Discrepancy in bohr =     0.000000    0.000000    0.000000
     new conv_thr            =       0.0000000017 Ry

     new unit-cell volume =    577.57058 a.u.^3 (    85.58713 Ang^3 )
     density =      3.53878 g/cm^3

CELL_PARAMETERS (alat=  9.42645998)
   0.523536151  -0.302263737   0.726231707
   0.000000000   0.604527475   0.726231707
  -0.523536151  -0.302263737   0.726231707

ATOMIC_POSITIONS (crystal)
Li            0.0795451164        0.0795451164        0.0795451164
Li            0.9204548836        0.9204548836        0.9204548836
Si            1.0863894954       -0.3204183142        0.5078598654
Si           -0.0863894954        0.3204183142        1.4921401346
Si            0.5078598654        0.0863894954        0.6795816858
Si            0.4921401346       -0.0863894954        1.3204183142
Si            0.6795816858       -0.4921401346        1.0863894954
Si            0.3204183142        0.4921401346        0.9136105046



     Writing config-only to output data dir ./output/LiSi.save/
     NEW-OLD atomic charge density approx. for the potential
     extrapolated charge   30.90391, renormalised to   30.00000

     total cpu time spent up to now is       39.9 secs

     Self-consistent Calculation

     iteration #  1     ecut=    60.00 Ry     beta= 0.80
     Davidson diagonalization with overlap
     c_bands:  1 eigenvalues not converged
     ethr =  1.00E-06,  avg # of iterations = 14.0

     total cpu time spent up to now is       41.7 secs

     total energy              =     -79.02696026 Ry
     estimated scf accuracy    <       0.00864907 Ry

     iteration #  2     ecut=    60.00 Ry     beta= 0.80
     Davidson diagonalization with overlap
     ethr =  2.88E-05,  avg # of iterations =  3.0

     total cpu time spent up to now is       42.3 secs

     total energy              =     -79.03165480 Ry
     estimated scf accuracy    <       0.00739821 Ry

     iteration #  3     ecut=    60.00 Ry     beta= 0.80
     Davidson diagonalization with overlap
     ethr =  2.47E-05,  avg # of iterations =  2.0

     total cpu time spent up to now is       42.8 secs

     total energy              =     -79.03256230 Ry
     estimated scf accuracy    <       0.00030751 Ry

     iteration #  4     ecut=    60.00 Ry     beta= 0.80
     Davidson diagonalization with overlap
     ethr =  1.03E-06,  avg # of iterations =  4.1

     total cpu time spent up to now is       43.4 secs

     total energy              =     -79.03263622 Ry
     estimated scf accuracy    <       0.00002937 Ry

     iteration #  5     ecut=    60.00 Ry     beta= 0.80
     Davidson diagonalization with overlap
     ethr =  9.79E-08,  avg # of iterations =  3.1

     total cpu time spent up to now is       44.0 secs

     total energy              =     -79.03264601 Ry
     estimated scf accuracy    <       0.00000372 Ry

     iteration #  6     ecut=    60.00 Ry     beta= 0.80
     Davidson diagonalization with overlap
     ethr =  1.24E-08,  avg # of iterations =  2.0

     total cpu time spent up to now is       44.6 secs

     total energy              =     -79.03264691 Ry
     estimated scf accuracy    <       0.00000001 Ry

     iteration #  7     ecut=    60.00 Ry     beta= 0.80
     Davidson diagonalization with overlap
     ethr =  3.43E-11,  avg # of iterations =  6.3

     total cpu time spent up to now is       45.5 secs

     total energy              =     -79.03264695 Ry
     estimated scf accuracy    <          6.6E-09 Ry

     iteration #  8     ecut=    60.00 Ry     beta= 0.80
     Davidson diagonalization with overlap
     ethr =  2.18E-11,  avg # of iterations =  2.0

     total cpu time spent up to now is       46.0 secs

     End of self-consistent calculation

          k = 0.0000 0.0000 0.0000 (  4645 PWs)   bands (ev):

   -34.4423 -33.9652  -2.9342   4.2210   4.2210   4.2462   4.2462   5.5684
     6.2193   6.7489   7.4505   7.4505   8.4866   8.7129   8.7129  11.7625
    12.0483  16.1882  16.1882

          k =-0.1910-0.1103 0.0918 (  4675 PWs)   bands (ev):

   -34.4420 -33.9664  -2.6515   1.9901   3.6525   4.6162   5.1537   5.8723
     6.3876   6.4672   6.9799   8.1626   9.0057   9.6941  10.5843  11.8432
    12.5618  13.6082  14.3144

          k =-0.3820-0.2206 0.1836 (  4663 PWs)   bands (ev):

   -34.4406 -33.9667  -1.8837   0.0819   3.5654   4.4293   4.7279   5.4325
     6.6424   6.8718   7.4700   9.2765   9.8468  11.2979  11.7128  11.8798
    13.4907  14.0237  15.0102

          k =-0.1910 0.1103 0.1836 (  4641 PWs)   bands (ev):

   -34.4409 -33.9661  -2.5124   2.4476   3.2152   3.2916   4.6706   5.6943
     6.7193   7.0709   7.7282   8.0818   9.4286   9.9331  11.1509  11.6343
    12.9164  13.9659  14.7694

          k =-0.3820 0.0000 0.2754 (  4641 PWs)   bands (ev):

   -34.4399 -33.9668  -1.8381   0.6923   2.4369   3.6697   4.3666   5.6222
     6.7664   7.4872   8.3543   9.6157  10.1306  10.9696  11.9478  12.5145
    13.2047  13.6182  14.7147

          k = 0.3820 0.4411-0.0918 (  4638 PWs)   bands (ev):

   -34.4397 -33.9664  -1.4041  -0.0412   1.8491   4.1692   4.4419   6.3389
     7.2073   7.4449   7.9145   8.9744  11.0456  11.1510  11.9039  12.5055
    13.1184  14.2577  15.2663

          k = 0.1910 0.3308 0.0000 (  4670 PWs)   bands (ev):

   -34.4407 -33.9670  -2.2263   1.4614   1.8497   4.8136   4.8296   6.0375
     6.6142   7.2584   8.8271   9.0163   9.3713   9.8980  10.7999  10.9470
    13.1619  13.6003  14.2485

          k =-0.3820 0.2206 0.3672 (  4648 PWs)   bands (ev):

   -34.4392 -33.9677  -1.2554   0.7832   1.5336   2.6393   3.7523   4.8783
     8.4729   9.2969   9.3757   9.8861  10.9474  11.4073  11.6239  11.8569
    12.5009  14.1497  14.4382

          k = 0.3820 0.6617 0.0000 (  4664 PWs)   bands (ev):

   -34.4396 -33.9675  -0.5614  -0.1141   0.8515   3.4364   3.8101   5.3580
     7.9609   8.3885   9.2611  11.0300  11.0742  11.6071  11.8530  12.1671
    12.9664  14.1371  14.6171

          k = 0.0000 0.0000 0.2754 (  4675 PWs)   bands (ev):

   -34.4414 -33.9665  -2.5260   3.2360   3.2360   3.5262   5.0768   5.3287
     5.3287   6.4105   6.4105   7.5841  10.7522  11.1174  11.1174  11.7517
    14.1033  16.0805  16.0805

          k =-0.1910-0.1103 0.3672 (  4670 PWs)   bands (ev):

   -34.4408 -33.9676  -1.9857   1.2842   2.7463   3.4998   5.0228   5.0935
     6.0073   6.2280   7.4504   9.2223  10.4646  11.5604  13.2299  13.5829
    13.6937  14.2368  14.5183

          k = 0.5730 0.3308 0.0000 (  4638 PWs)   bands (ev):

   -34.4395 -33.9671  -1.2483  -0.0549   2.4316   2.6181   4.8788   6.1712
     7.0601   7.1677   8.4035   9.6330  10.2645  11.0247  12.1268  12.5437
    14.0158  14.1584  15.3330

          k = 0.3820 0.2206 0.0918 (  4641 PWs)   bands (ev):

   -34.4399 -33.9665  -1.9442   1.1594   2.2298   2.6290   4.7763   6.9420
     7.0017   8.2891   8.6000   9.3214  10.0129  10.5464  10.6397  11.1316
    11.7744  13.1741  16.0355

          k =-0.1910 0.1103 0.4590 (  4641 PWs)   bands (ev):

   -34.4394 -33.9679  -1.5754   1.6487   2.0128   2.2118   4.0830   5.9871
     6.0991   6.4225   8.7857   8.9792  11.7479  12.0753  12.7412  13.7077
    14.0820  14.1928  15.0781

          k = 0.5730 0.5514 0.0918 (  4631 PWs)   bands (ev):

   -34.4388 -33.9679  -0.7393   0.4392   0.9768   2.2095   4.8933   5.7287
     6.3674   8.4211   8.9545   9.6202  11.1426  11.4552  12.9944  13.4730
    13.9002  14.4317  14.7296

          k = 0.3820 0.4411 0.1836 (  4631 PWs)   bands (ev):

   -34.4388 -33.9667  -1.1512   0.5506   1.0847   2.4205   5.1941   6.6619
     6.7993   7.6526   9.0568   9.9179  11.0557  11.1978  11.7592  12.7065
    13.0863  13.7752  14.4899

          k = 0.5730-0.3308-0.2754 (  4664 PWs)   bands (ev):

   -34.4393 -33.9684  -0.4407   0.1353   1.3167   1.6683   3.9855   6.3623
     7.3958   8.5371   8.9743  10.0095  11.0042  12.1699  12.5609  12.8475
    13.3438  13.9076  14.7673

          k = 0.0000 0.0000 0.5508 (  4663 PWs)   bands (ev):

   -34.4395 -33.9693  -1.3404   0.8432   2.9275   2.9275   4.2429   4.2429
     4.5478   8.0320   8.5103   8.5103  11.8218  12.4193  12.4193  14.4680
    15.2723  15.2723  15.9910

          k = 0.7640 0.4411 0.1836 (  4638 PWs)   bands (ev):

   -34.4391 -33.9686  -0.6471   0.3607   1.3890   2.3931   4.2011   5.1258
     6.1970   8.4429   8.5097   8.7274  10.8886  12.8191  13.8811  14.1973
    14.7790  14.9302  15.5337

[...]
         4           Si  tau(   4) = (  -0.7087621  -0.1364981   1.5177085  )
         5           Si  tau(   5) = (  -0.0001501  -0.2727361   1.1048987  )
         6           Si  tau(   6) = (  -0.4722916  -0.5455570   1.5177085  )
         7           Si  tau(   7) = (  -0.2361703  -0.6820550   1.1048987  )
         8           Si  tau(   8) = (  -0.2362715  -0.1362381   1.5177085  )

     number of k points=    23  Marzari-Vanderbilt smearing, width (Ry)=  0.0200
                       cart. coord. in units 2pi/alat
        k(    1) = (   0.0000000   0.0000000   0.0000000), wk =   0.0160000
        k(    2) = (  -0.2116663  -0.1222056   0.0762600), wk =   0.0960000
        k(    3) = (  -0.4233326  -0.2444112   0.1525200), wk =   0.0960000
        k(    4) = (  -0.2116663   0.1222056   0.1525200), wk =   0.0960000
        k(    5) = (  -0.4233326  -0.0000000   0.2287800), wk =   0.0960000
        k(    6) = (   0.4233326   0.4888224  -0.0762600), wk =   0.0960000
        k(    7) = (   0.2116663   0.3666168   0.0000000), wk =   0.0960000
        k(    8) = (  -0.4233326   0.2444112   0.3050400), wk =   0.0960000
        k(    9) = (   0.4233326   0.7332336   0.0000000), wk =   0.0960000
        k(   10) = (   0.0000000   0.0000000   0.2287800), wk =   0.0320000
        k(   11) = (  -0.2116663  -0.1222056   0.3050400), wk =   0.0960000
        k(   12) = (   0.6349989   0.3666168   0.0000000), wk =   0.0960000
        k(   13) = (   0.4233326   0.2444112   0.0762600), wk =   0.0960000
        k(   14) = (  -0.2116663   0.1222056   0.3813000), wk =   0.0960000
        k(   15) = (   0.6349989   0.6110280   0.0762600), wk =   0.0960000
        k(   16) = (   0.4233326   0.4888224   0.1525200), wk =   0.0960000
        k(   17) = (   0.6349989  -0.3666168  -0.2287800), wk =   0.0960000
        k(   18) = (   0.0000000   0.0000000   0.4575599), wk =   0.0320000
        k(   19) = (   0.8466652   0.4888224   0.1525200), wk =   0.0960000
        k(   20) = (  -0.4233326  -0.0000000  -0.2287800), wk =   0.0960000
        k(   21) = (   0.4233326  -0.4888224   0.0762600), wk =   0.0960000
        k(   22) = (   0.6349989  -0.6110280  -0.0762600), wk =   0.0960000
        k(   23) = (   0.4233326  -0.4888224  -0.1525200), wk =   0.0960000

     Dense  grid:    35459 G-vectors     FFT dimensions: (  48,  48,  48)

     Estimated max dynamical RAM per process >      18.61 MB

     Estimated total dynamical RAM >     148.87 MB

     Initial potential from superposition of free atoms

     starting charge      29.9872, renormalised to      30.0000
     Starting wfcs are   28 randomized atomic wfcs

     total cpu time spent up to now is      182.4 secs

     Self-consistent Calculation

     iteration #  1     ecut=    60.00 Ry     beta= 0.80
     Davidson diagonalization with overlap
     c_bands:  1 eigenvalues not converged
     c_bands:  2 eigenvalues not converged
     c_bands:  2 eigenvalues not converged
     c_bands:  1 eigenvalues not converged
     c_bands:  1 eigenvalues not converged
     c_bands:  2 eigenvalues not converged
     c_bands:  1 eigenvalues not converged
     c_bands:  2 eigenvalues not converged
     c_bands:  1 eigenvalues not converged
     c_bands:  1 eigenvalues not converged
     c_bands:  2 eigenvalues not converged
     c_bands:  2 eigenvalues not converged
     c_bands:  1 eigenvalues not converged
     c_bands:  2 eigenvalues not converged
     c_bands:  1 eigenvalues not converged
     c_bands:  2 eigenvalues not converged
     ethr =  1.00E-06,  avg # of iterations = 19.7

     total cpu time spent up to now is      184.7 secs

     total energy              =     -79.19758229 Ry
     estimated scf accuracy    <       0.04515864 Ry

     iteration #  2     ecut=    60.00 Ry     beta= 0.80
     Davidson diagonalization with overlap
     ethr =  1.51E-04,  avg # of iterations =  2.0

     total cpu time spent up to now is      185.3 secs

     total energy              =     -79.19747093 Ry
     estimated scf accuracy    <       0.01126170 Ry

     iteration #  3     ecut=    60.00 Ry     beta= 0.80
     Davidson diagonalization with overlap
     ethr =  3.75E-05,  avg # of iterations =  2.4

     total cpu time spent up to now is      185.9 secs

     total energy              =     -79.20076345 Ry
     estimated scf accuracy    <       0.00463736 Ry

     iteration #  4     ecut=    60.00 Ry     beta= 0.80
     Davidson diagonalization with overlap
     ethr =  1.55E-05,  avg # of iterations =  2.0

     total cpu time spent up to now is      186.4 secs

     total energy              =     -79.20157339 Ry
     estimated scf accuracy    <       0.00002534 Ry

     iteration #  5     ecut=    60.00 Ry     beta= 0.80
     Davidson diagonalization with overlap
     ethr =  8.45E-08,  avg # of iterations =  5.7

     total cpu time spent up to now is      187.3 secs

     total energy              =     -79.20160675 Ry
     estimated scf accuracy    <       0.00001618 Ry

     iteration #  6     ecut=    60.00 Ry     beta= 0.80
     Davidson diagonalization with overlap
     ethr =  5.39E-08,  avg # of iterations =  2.0

     total cpu time spent up to now is      187.8 secs

     total energy              =     -79.20160762 Ry
     estimated scf accuracy    <       0.00000177 Ry

     iteration #  7     ecut=    60.00 Ry     beta= 0.80
     Davidson diagonalization with overlap
     ethr =  5.90E-09,  avg # of iterations =  3.0

     total cpu time spent up to now is      188.4 secs

     total energy              =     -79.20160816 Ry
     estimated scf accuracy    <          8.8E-09 Ry

     iteration #  8     ecut=    60.00 Ry     beta= 0.80
     Davidson diagonalization with overlap
     ethr =  2.95E-11,  avg # of iterations =  5.7

     total cpu time spent up to now is      189.2 secs

     total energy              =     -79.20160818 Ry
     estimated scf accuracy    <       0.00000002 Ry

     iteration #  9     ecut=    60.00 Ry     beta= 0.80
     Davidson diagonalization with overlap
     ethr =  2.95E-11,  avg # of iterations =  2.1

     total cpu time spent up to now is      189.8 secs

     total energy              =     -79.20160818 Ry
     estimated scf accuracy    <          3.0E-10 Ry

     iteration # 10     ecut=    60.00 Ry     beta= 0.80
     Davidson diagonalization with overlap
     ethr =  1.01E-12,  avg # of iterations =  4.2

     total cpu time spent up to now is      190.4 secs

     End of self-consistent calculation

          k = 0.0000 0.0000 0.0000 (  4389 PWs)   bands (ev):

   -33.8598 -33.7810  -3.0436   3.7269   4.1745   5.3719   5.6782   5.6782
     5.8217   5.9901   5.9901   7.9843   7.9843   9.0921   9.0921  13.0628
    13.4881  17.1746  17.1746

          k =-0.2117-0.1222 0.0763 (  4436 PWs)   bands (ev):

   -33.8594 -33.7828  -2.7310   2.6311   3.3356   4.6224   4.8385   5.2409
     6.3978   6.4345   7.6817   7.6986   9.0946   9.9323  11.1149  13.4931
    14.0814  15.0094  16.2639

          k =-0.4233-0.2444 0.1525 (  4443 PWs)   bands (ev):

   -33.8587 -33.7834  -1.9054   0.5187   3.1538   3.7812   4.4649   5.4653
     6.1574   6.5922   8.3042   9.9603  10.1656  11.3055  12.9380  13.5871
    14.0769  14.4129  16.3785

          k =-0.2117 0.1222 0.1525 (  4425 PWs)   bands (ev):

   -33.8588 -33.7830  -2.6337   2.3745   3.3628   3.8888   4.0390   5.9702
     6.6633   7.5171   8.1226   8.4100   8.4897   9.7725  11.1549  13.2503
    14.3475  14.8880  15.3847

          k =-0.4233-0.0000 0.2288 (  4433 PWs)   bands (ev):

   -33.8581 -33.7837  -1.9452   1.2513   1.8692   3.4126   4.1268   6.3315
     6.7865   7.6559   8.7046   9.3568  10.1659  11.3534  11.8603  13.2887
    13.9184  15.2142  15.7206

          k = 0.4233 0.4888-0.0763 (  4440 PWs)   bands (ev):

   -33.8583 -33.7836  -1.3707   0.2414   1.7483   3.4996   4.1315   5.8211
     6.9734   8.1526   8.4239   9.2662  10.9055  11.2559  13.0217  13.7796
    14.1823  15.7435  16.0363

          k = 0.2117 0.3666 0.0000 (  4443 PWs)   bands (ev):

   -33.8590 -33.7831  -2.2128   1.7493   2.1912   4.0080   4.5564   5.5530
     5.6933   7.5467   7.7091   9.3239  10.2542  11.6798  12.0121  13.3274
    14.4527  14.7117  15.9715

          k =-0.4233 0.2444 0.3050 (  4446 PWs)   bands (ev):

   -33.8575 -33.7845  -1.4212   0.5055   2.0382   2.9174   3.1235   5.5017
     8.5504   9.2708   9.7067  10.5178  11.1223  11.3634  11.7301  12.7131
    13.1362  14.2102  14.3653

          k = 0.4233 0.7332 0.0000 (  4457 PWs)   bands (ev):

   -33.8578 -33.7845  -0.6669  -0.1900   1.1986   2.9625   3.4164   6.5507
     7.8613   8.2631   9.7848  10.2816  11.4431  11.5159  12.2814  13.4215
    14.0237  14.0721  14.6668

          k = 0.0000 0.0000 0.2288 (  4388 PWs)   bands (ev):

   -33.8576 -33.7832  -2.7631   1.5248   4.5712   5.1307   5.1307   6.5667
     6.5937   6.5937   7.1802   7.3588   7.3588  10.7084  10.7084  12.5622
    14.4005  14.5428  14.5428

          k =-0.2117-0.1222 0.3050 (  4454 PWs)   bands (ev):

   -33.8581 -33.7847  -2.2742   1.0630   2.2028   4.8041   5.4408   6.0540
     6.5065   7.2240   7.7761   8.9418   9.3755  10.2245  12.2313  13.1879
    13.3722  15.0336  15.8397

          k = 0.6350 0.3666 0.0000 (  4451 PWs)   bands (ev):

   -33.8582 -33.7842  -1.4307   0.3550   1.2622   3.8649   4.9111   6.2105
     6.4305   7.5628   8.1751   9.7242  10.9644  11.3040  13.2185  13.7954
    14.6623  14.8408  15.7324

          k = 0.4233 0.2444 0.0763 (  4451 PWs)   bands (ev):

   -33.8586 -33.7836  -1.9180   1.1810   2.0111   3.5959   4.1348   5.7977
     6.5292   7.0624   8.0950  10.5870  11.4108  12.0807  12.2762  13.0016
    13.3263  14.6558  15.2309

          k =-0.2117 0.1222 0.3813 (  4435 PWs)   bands (ev):

   -33.8568 -33.7853  -1.9888   0.3885   2.5932   3.7485   4.7432   6.1137
     7.5722   7.8989   8.7861   9.5359   9.5752  11.0962  12.0578  12.0990
    13.4193  13.5800  14.8920

          k = 0.6350 0.6110 0.0763 (  4441 PWs)   bands (ev):

   -33.8571 -33.7849  -1.1734   0.2352   0.9761   2.9815   5.1893   6.2759
     7.2158   8.1722   8.9517  10.0340  11.1009  11.9801  12.2817  12.8446
    13.9476  14.2694  14.7409

          k = 0.4233 0.4888 0.1525 (  4457 PWs)   bands (ev):

   -33.8581 -33.7842  -1.1054   0.5808   0.8306   2.7350   4.8713   5.7755
     6.8461   8.5634   9.2216   9.9482  11.1384  11.6533  12.3116  14.0223
    14.2024  15.0214  15.5077

          k = 0.6350-0.3666-0.2288 (  4447 PWs)   bands (ev):

   -33.8571 -33.7850  -0.6830  -0.2952   1.0020   3.2172   4.0679   5.8524
     8.0777   8.4938   9.9754  10.0813  11.6008  11.9703  12.0474  13.4188
    13.8256  14.0719  14.5507

          k = 0.0000 0.0000 0.4576 (  4412 PWs)   bands (ev):

   -33.8559 -33.7856  -1.9520  -0.3885   4.2065   4.9015   4.9015   5.8980
     5.8980   7.4123   8.7239   8.7239  10.5611  11.9840  11.9840  12.5177
    13.1129  13.1129  13.7056

          k = 0.8467 0.4888 0.1525 (  4447 PWs)   bands (ev):

   -33.8563 -33.7861  -1.3672  -0.5746   2.1667   4.0202   5.0121   7.0190
     7.2992   7.7689   8.3103   8.5622  11.4077  12.0642  12.6900  12.7021
    13.2111  13.8485  14.2595

          k =-0.4233-0.0000-0.2288 (  4433 PWs)   bands (ev):

   -33.8581 -33.7837  -1.9452   1.2513   1.8692   3.4127   4.1268   6.3313
     6.7868   7.6559   8.7044   9.3572  10.1655  11.3533  11.8601  13.2882
    13.9184  15.2172  15.7208

          k = 0.4233-0.4888 0.0763 (  4440 PWs)   bands (ev):

   -33.8583 -33.7836  -1.3707   0.2414   1.7483   3.4997   4.1314   5.8211
     6.9734   8.1528   8.4239   9.2662  10.9045  11.2567  13.0221  13.7797
    14.1817  15.7439  16.0365

          k = 0.6350-0.6110-0.0763 (  4441 PWs)   bands (ev):

   -33.8571 -33.7849  -1.1734   0.2352   0.9761   2.9815   5.1893   6.2756
     7.2165   8.1719   8.9514  10.0345  11.1007  11.9800  12.2814  12.8435
    13.9482  14.2712  14.7413

          k = 0.4233-0.4888-0.1525 (  4457 PWs)   bands (ev):

   -33.8581 -33.7842  -1.1054   0.5808   0.8306   2.7350   4.8713   5.7755
     6.8463   8.5634   9.2212   9.9485  11.1388  11.6532  12.3110  14.0217
    14.2031  15.0221  15.5077

     the Fermi energy is    12.7991 ev

!    total energy              =     -79.20160818 Ry
     estimated scf accuracy    <          9.3E-11 Ry
     smearing contrib. (-TS)   =      -0.00018200 Ry
     internal energy E=F+TS    =     -79.20142618 Ry

     The total energy is F=E-TS. E is the sum of the following terms:
     one-electron contribution =      20.05436508 Ry
     hartree contribution      =       6.15091188 Ry
     xc contribution           =     -26.95630576 Ry
     ewald contribution        =     -78.45039738 Ry

     convergence has been achieved in  10 iterations

     Forces acting on atoms (cartesian axes, Ry/au):

     atom    1 type  1   force =    -0.00000000    0.00000000    0.00031576
     atom    2 type  1   force =     0.00000000   -0.00000000   -0.00031576
     atom    3 type  2   force =    -0.00020864   -0.00009614    0.00014852
     atom    4 type  2   force =     0.00020864    0.00009614   -0.00014852
     atom    5 type  2   force =     0.00018758   -0.00013261    0.00014852
     atom    6 type  2   force =    -0.00018758    0.00013261   -0.00014852
     atom    7 type  2   force =     0.00002106    0.00022875    0.00014852
     atom    8 type  2   force =    -0.00002106   -0.00022875   -0.00014852
     The non-local contrib.  to forces
     atom    1 type  1   force =    -0.00000000   -0.00000000   -0.02949030
     atom    2 type  1   force =     0.00000000    0.00000000    0.02949030
     atom    3 type  2   force =     0.00509313   -0.00322569    0.04899255
     atom    4 type  2   force =    -0.00509313    0.00322569   -0.04899255
     atom    5 type  2   force =     0.00024697    0.00602363    0.04899255
     atom    6 type  2   force =    -0.00024697   -0.00602363   -0.04899255
     atom    7 type  2   force =    -0.00534010   -0.00279794    0.04899255
     atom    8 type  2   force =     0.00534010    0.00279794   -0.04899255
     The ionic contribution  to forces
     atom    1 type  1   force =    -0.00000000    0.00000000   -0.41492515
     atom    2 type  1   force =     0.00000000   -0.00000000    0.41492515
     atom    3 type  2   force =    -0.10753737    0.06217536   -0.36560407
     atom    4 type  2   force =     0.10753737   -0.06217536    0.36560407
     atom    5 type  2   force =    -0.00007676   -0.12421777   -0.36560407
     atom    6 type  2   force =     0.00007676    0.12421777    0.36560407
     atom    7 type  2   force =     0.10761412    0.06204241   -0.36560407
     atom    8 type  2   force =    -0.10761412   -0.06204241    0.36560407
     The local contribution  to forces
     atom    1 type  1   force =    -0.00000000   -0.00000000    0.44472606
     atom    2 type  1   force =    -0.00000000    0.00000000   -0.44472606
     atom    3 type  2   force =     0.10194567   -0.05888946    0.31944131
     atom    4 type  2   force =    -0.10194567    0.05888946   -0.31944131
     atom    5 type  2   force =     0.00002693    0.11773227    0.31944131
     atom    6 type  2   force =    -0.00002693   -0.11773227   -0.31944131
     atom    7 type  2   force =    -0.10197260   -0.05884281    0.31944131
     atom    8 type  2   force =     0.10197260    0.05884281   -0.31944131
     The core correction contribution to forces
     atom    1 type  1   force =     0.00000000    0.00000000    0.00000000
     atom    2 type  1   force =     0.00000000    0.00000000    0.00000000
     atom    3 type  2   force =     0.00029046   -0.00015666   -0.00268820
     atom    4 type  2   force =    -0.00029046    0.00015666    0.00268820
     atom    5 type  2   force =    -0.00000956    0.00032987   -0.00268820
     atom    6 type  2   force =     0.00000956   -0.00032987    0.00268820
     atom    7 type  2   force =    -0.00028090   -0.00017321   -0.00268820
     atom    8 type  2   force =     0.00028090    0.00017321    0.00268820
     The Hubbard contrib.    to forces
     atom    1 type  1   force =     0.00000000    0.00000000    0.00000000
     atom    2 type  1   force =     0.00000000    0.00000000    0.00000000
     atom    3 type  2   force =     0.00000000    0.00000000    0.00000000
     atom    4 type  2   force =     0.00000000    0.00000000    0.00000000
     atom    5 type  2   force =     0.00000000    0.00000000    0.00000000
     atom    6 type  2   force =     0.00000000    0.00000000    0.00000000
     atom    7 type  2   force =     0.00000000    0.00000000    0.00000000
     atom    8 type  2   force =     0.00000000    0.00000000    0.00000000
     The SCF correction term to forces
     atom    1 type  1   force =    -0.00000000    0.00000000    0.00000514
     atom    2 type  1   force =     0.00000000   -0.00000000   -0.00000514
     atom    3 type  2   force =    -0.00000053    0.00000031    0.00000693
     atom    4 type  2   force =     0.00000053   -0.00000031   -0.00000693
     atom    5 type  2   force =    -0.00000000   -0.00000062    0.00000693
     atom    6 type  2   force =     0.00000000    0.00000062   -0.00000693
     atom    7 type  2   force =     0.00000053    0.00000031    0.00000693
     atom    8 type  2   force =    -0.00000053   -0.00000031   -0.00000693

     Total force =     0.000805     Total SCF correction =     0.000019


     Computing stress (Cartesian axis) and pressure

          total   stress  (Ry/bohr**3)                   (kbar)     P=      499.18
   0.00337468   0.00000000   0.00000000          496.43        0.00        0.00
  -0.00000000   0.00337468   0.00000000           -0.00      496.43        0.00
  -0.00000000   0.00000000   0.00343081           -0.00        0.00      504.69


     Writing all to output data dir ./output/LiSi.save/

     init_run     :      1.40s CPU      1.82s WALL (       2 calls)
     electrons    :    133.40s CPU    140.23s WALL (      23 calls)
     update_pot   :      8.87s CPU      9.07s WALL (      21 calls)
     forces       :      6.98s CPU      7.11s WALL (      23 calls)
     stress       :     31.89s CPU     33.16s WALL (      23 calls)

     Called by init_run:
     wfcinit      :      0.52s CPU      0.54s WALL (       2 calls)
     potinit      :      0.36s CPU      0.58s WALL (       2 calls)
     hinit0       :      0.47s CPU      0.57s WALL (       2 calls)

     Called by electrons:
     c_bands      :    119.53s CPU    124.46s WALL (     184 calls)
     sum_band     :     11.84s CPU     12.52s WALL (     184 calls)
     v_of_rho     :      2.02s CPU      3.05s WALL (     205 calls)
     mix_rho      :      0.18s CPU      0.31s WALL (     184 calls)

     Called by c_bands:
     init_us_2    :      2.24s CPU      2.46s WALL (    9568 calls)
     init_us_2:cp :      2.23s CPU      2.45s WALL (    9568 calls)
     cegterg      :    111.25s CPU    114.47s WALL (    4232 calls)

     Called by *egterg:
     cdiaghg      :      9.12s CPU      9.45s WALL (   20786 calls)
     h_psi        :     88.96s CPU     91.55s WALL (   21361 calls)
     g_psi        :      0.42s CPU      0.43s WALL (   17083 calls)

     Called by h_psi:
     h_psi:calbec :     10.40s CPU     10.68s WALL (   21361 calls)
     vloc_psi     :     68.99s CPU     71.10s WALL (   21361 calls)
     add_vuspsi   :      9.28s CPU      9.46s WALL (   21361 calls)

     General routines
     calbec       :     12.28s CPU     12.61s WALL (   24006 calls)
     fft          :      1.73s CPU      3.04s WALL (    2625 calls)
     ffts         :      0.10s CPU      0.17s WALL (     184 calls)
     fftw         :     68.90s CPU     70.94s WALL (  627548 calls)

     Parallel routines

     PWSCF        :   3m 3.01s CPU   3m12.30s WALL


   This run was terminated on:  16:56:48  17Jan2025            

=------------------------------------------------------------------------------=
   JOB DONE.
=------------------------------------------------------------------------------=
