
     Program PWSCF v.7.2 starts on 29Dec2024 at 11:11:28 

     This program is part of the open-source Quantum ESPRESSO suite
     for quantum simulation of materials; please cite
         "P. Giannozzi et al., J. Phys.:Condens. Matter 21 395502 (2009);
         "P. Giannozzi et al., J. Phys.:Condens. Matter 29 465901 (2017);
         "P. Giannozzi et al., J. Chem. Phys. 152 154105 (2020);
          URL http://www.quantum-espresso.org", 
     in publications or presentations arising from this work. More details at
     http://www.quantum-espresso.org/quote

     Parallel version (MPI & OpenMP), running on       8 processor cores
     Number of MPI processes:                 8
     Threads/MPI process:                     1

     MPI processes distributed on     1 nodes
     482109 MiB available memory on the printing compute node when the environment starts

     Waiting for input...
     Reading input from standard input

     Current dimensions of program PWSCF are:
     Max number of different atomic species (ntypx) = 10
     Max number of k-points (npk) =  40000
     Max angular momentum in pseudopotentials (lmaxx) =  4

     R & G space division:  proc/nbgrp/npool/nimage =       8
     Subspace diagonalization in iterative solution of the eigenvalue problem:
     a serial algorithm will be used


     Parallelization info
     --------------------
     sticks:   dense  smooth     PW     G-vecs:    dense   smooth      PW
     Min         278     278     87                 7661     7661    1321
     Max         279     279     88                 7664     7664    1322
     Sum        2229    2229    697                61305    61305   10571

     Using Slab Decomposition



     bravais-lattice index     =            7
     lattice parameter (alat)  =       7.6845  a.u.
     unit-cell volume          =     635.0023 (a.u.)^3
     number of atoms/cell      =            4
     number of atomic types    =            2
     number of electrons       =        15.00
     number of Kohn-Sham states=           12
     kinetic-energy cutoff     =      80.0000  Ry
     charge density cutoff     =     320.0000  Ry
     scf convergence threshold =      1.0E-08
     mixing beta               =       0.7000
     number of iterations used =            8  plain     mixing
     energy convergence thresh.=      1.0E-04
     force convergence thresh. =      1.0E-03
     press convergence thresh. =      1.0E+00
     Exchange-correlation= PBE
                           (   1   4   3   4   0   0   0)
     nstep                     =           50


     celldm(1)=   7.684511  celldm(2)=   0.000000  celldm(3)=   2.798702
     celldm(4)=   0.000000  celldm(5)=   0.000000  celldm(6)=   0.000000

     crystal axes: (cart. coord. in units of alat)
               a(1) = (   0.500000  -0.500000   1.399351 )  
               a(2) = (   0.500000   0.500000   1.399351 )  
               a(3) = (  -0.500000  -0.500000   1.399351 )  

     reciprocal axes: (cart. coord. in units 2 pi/alat)
               b(1) = (  1.000000 -1.000000  0.000000 )  
               b(2) = (  0.000000  1.000000  0.357308 )  
               b(3) = ( -1.000000  0.000000  0.357308 )  


     PseudoPot. # 1 for Li read from file:
     ../pseudo/Li_ONCV_PBE_sr.upf
     MD5 check sum: 50ff420e78310ffa21704f3361e624a4
     Pseudo is Norm-conserving, Zval =  3.0
     Generated using ONCVPSP code by D. R. Hamann
     Using radial grid of 1944 points,  4 beta functions with: 
                l(1) =   0
                l(2) =   0
                l(3) =   1
                l(4) =   1

     PseudoPot. # 2 for Si read from file:
     ../pseudo/Si_ONCV_PBE_sr.upf
     MD5 check sum: e543d271109d17c80368dfa7c482276d
     Pseudo is Norm-conserving + core correction, Zval =  4.0
     Generated using ONCVPSP code by D. R. Hamann
     Using radial grid of 1510 points,  6 beta functions with: 
                l(1) =   0
                l(2) =   0
                l(3) =   1
                l(4) =   1
                l(5) =   2
                l(6) =   2

     atomic species   valence    mass     pseudopotential
        Li             3.00     6.94100     Li( 1.00)
        Si             4.00    28.08550     Si( 1.00)

     16 Sym. Ops., with inversion, found



   Cartesian axes

     site n.     atom                  positions (alat units)
         1           Li  tau(   1) = (   0.0000000   0.0000000   0.0000000  )
         2           Si  tau(   2) = (   0.0000000   0.0000000   0.6965382  )
         3           Si  tau(   3) = (   0.0000000   0.0000000   2.1021639  )
         4           Si  tau(   4) = (   0.0000000   0.0000000   1.3993511  )

     number of k points=    85  Marzari-Vanderbilt smearing, width (Ry)=  0.0200
                       cart. coord. in units 2pi/alat
        k(    1) = (   0.0000000   0.0000000   0.0000000), wk =   0.0104167
        k(    2) = (  -0.3333333   0.0000000   0.1191028), wk =   0.0208333
        k(    3) = (   0.0000000   0.1250000   0.0446636), wk =   0.0416667
        k(    4) = (  -0.3333333   0.1250000   0.1637664), wk =   0.0208333
        k(    5) = (   0.3333333   0.1250000  -0.0744393), wk =   0.0208333
        k(    6) = (   0.0000000   0.2500000   0.0893271), wk =   0.0416667
        k(    7) = (  -0.3333333   0.2500000   0.2084299), wk =   0.0208333
        k(    8) = (   0.3333333   0.2500000  -0.0297757), wk =   0.0208333
        k(    9) = (   0.0000000   0.3750000   0.1339907), wk =   0.0416667
        k(   10) = (  -0.3333333   0.3750000   0.2530935), wk =   0.0208333
        k(   11) = (   0.3333333   0.3750000   0.0148879), wk =   0.0208333
        k(   12) = (   0.0000000  -0.5000000  -0.1786542), wk =   0.0208333
        k(   13) = (  -0.3333333  -0.5000000  -0.0595514), wk =   0.0208333
        k(   14) = (   0.1250000  -0.1250000   0.0000000), wk =   0.0208333
        k(   15) = (  -0.2083333  -0.1250000   0.1191028), wk =   0.0208333
        k(   16) = (   0.4583333  -0.1250000  -0.1191028), wk =   0.0208333
        k(   17) = (  -0.2083333   0.0000000   0.1637664), wk =   0.0208333
        k(   18) = (   0.4583333   0.0000000  -0.0744393), wk =   0.0208333
        k(   19) = (   0.1250000   0.1250000   0.0893271), wk =   0.0208333
        k(   20) = (  -0.2083333   0.1250000   0.2084299), wk =   0.0208333
        k(   21) = (   0.4583333   0.1250000  -0.0297757), wk =   0.0208333
        k(   22) = (   0.1250000   0.2500000   0.1339907), wk =   0.0416667
        k(   23) = (  -0.2083333   0.2500000   0.2530935), wk =   0.0208333
        k(   24) = (   0.4583333   0.2500000   0.0148879), wk =   0.0208333
        k(   25) = (   0.1250000  -0.6250000  -0.1786542), wk =   0.0416667
        k(   26) = (  -0.2083333  -0.6250000  -0.0595514), wk =   0.0208333
        k(   27) = (   0.4583333  -0.6250000  -0.2977571), wk =   0.0208333
        k(   28) = (   0.1250000  -0.5000000  -0.1339907), wk =   0.0416667
        k(   29) = (  -0.2083333  -0.5000000  -0.0148879), wk =   0.0208333
        k(   30) = (   0.4583333  -0.5000000  -0.2530935), wk =   0.0208333
        k(   31) = (   0.1250000  -0.3750000  -0.0893271), wk =   0.0416667
        k(   32) = (  -0.2083333  -0.3750000   0.0297757), wk =   0.0208333
        k(   33) = (   0.4583333  -0.3750000  -0.2084299), wk =   0.0208333
        k(   34) = (   0.1250000  -0.2500000  -0.0446636), wk =   0.0416667
        k(   35) = (  -0.2083333  -0.2500000   0.0744393), wk =   0.0208333
        k(   36) = (   0.4583333  -0.2500000  -0.1637664), wk =   0.0208333
        k(   37) = (   0.2500000  -0.2500000   0.0000000), wk =   0.0208333
        k(   38) = (  -0.0833333  -0.2500000   0.1191028), wk =   0.0208333
        k(   39) = (   0.5833333  -0.2500000  -0.1191028), wk =   0.0208333
        k(   40) = (  -0.0833333  -0.1250000   0.1637664), wk =   0.0208333
        k(   41) = (   0.5833333  -0.1250000  -0.0744393), wk =   0.0208333
        k(   42) = (  -0.0833333   0.0000000   0.2084299), wk =   0.0208333
        k(   43) = (   0.5833333   0.0000000  -0.0297757), wk =   0.0208333
        k(   44) = (  -0.0833333   0.1250000   0.2530935), wk =   0.0208333
        k(   45) = (   0.5833333   0.1250000   0.0148879), wk =   0.0208333
        k(   46) = (   0.2500000  -0.7500000  -0.1786542), wk =   0.0208333
        k(   47) = (  -0.0833333  -0.7500000  -0.0595514), wk =   0.0208333
        k(   48) = (   0.5833333  -0.7500000  -0.2977571), wk =   0.0208333
        k(   49) = (   0.2500000  -0.6250000  -0.1339907), wk =   0.0416667
        k(   50) = (  -0.0833333  -0.6250000  -0.0148879), wk =   0.0208333
        k(   51) = (   0.5833333  -0.6250000  -0.2530935), wk =   0.0208333
        k(   52) = (   0.2500000  -0.5000000  -0.0893271), wk =   0.0416667
        k(   53) = (  -0.0833333  -0.5000000   0.0297757), wk =   0.0208333
        k(   54) = (   0.5833333  -0.5000000  -0.2084299), wk =   0.0208333
        k(   55) = (   0.2500000  -0.3750000  -0.0446636), wk =   0.0416667
        k(   56) = (  -0.0833333  -0.3750000   0.0744393), wk =   0.0208333
        k(   57) = (   0.5833333  -0.3750000  -0.1637664), wk =   0.0208333
        k(   58) = (   0.3750000  -0.3750000   0.0000000), wk =   0.0208333
        k(   59) = (   0.0416667  -0.3750000   0.1191028), wk =   0.0208333
        k(   60) = (   0.7083333  -0.3750000  -0.1191028), wk =   0.0208333
        k(   61) = (   0.0416667  -0.2500000   0.1637664), wk =   0.0208333
        k(   62) = (   0.7083333  -0.2500000  -0.0744393), wk =   0.0208333
        k(   63) = (   0.0416667  -0.1250000   0.2084299), wk =   0.0208333
        k(   64) = (   0.7083333  -0.1250000  -0.0297757), wk =   0.0208333
        k(   65) = (   0.0416667   0.0000000   0.2530935), wk =   0.0208333
        k(   66) = (   0.7083333   0.0000000   0.0148879), wk =   0.0208333
        k(   67) = (   0.0416667  -0.8750000  -0.0595514), wk =   0.0208333
        k(   68) = (   0.7083333  -0.8750000  -0.2977571), wk =   0.0208333
        k(   69) = (   0.0416667  -0.7500000  -0.0148879), wk =   0.0208333
        k(   70) = (   0.7083333  -0.7500000  -0.2530935), wk =   0.0208333
        k(   71) = (   0.3750000  -0.6250000  -0.0893271), wk =   0.0208333
        k(   72) = (   0.0416667  -0.6250000   0.0297757), wk =   0.0208333
        k(   73) = (   0.7083333  -0.6250000  -0.2084299), wk =   0.0208333
        k(   74) = (   0.3750000  -0.5000000  -0.0446636), wk =   0.0416667
        k(   75) = (   0.0416667  -0.5000000   0.0744393), wk =   0.0208333
        k(   76) = (   0.7083333  -0.5000000  -0.1637664), wk =   0.0208333
        k(   77) = (  -0.5000000   0.5000000   0.0000000), wk =   0.0104167
        k(   78) = (  -0.8333333   0.5000000   0.1191028), wk =   0.0208333
        k(   79) = (  -0.8333333   0.6250000   0.1637664), wk =   0.0208333
        k(   80) = (  -0.1666667   0.6250000  -0.0744393), wk =   0.0208333
        k(   81) = (  -0.8333333   0.7500000   0.2084299), wk =   0.0208333
        k(   82) = (  -0.1666667   0.7500000  -0.0297757), wk =   0.0208333
        k(   83) = (  -0.8333333   0.8750000   0.2530935), wk =   0.0208333
        k(   84) = (  -0.1666667   0.8750000   0.0148879), wk =   0.0208333
        k(   85) = (  -0.8333333   0.0000000  -0.0595514), wk =   0.0208333

     Dense  grid:    61305 G-vectors     FFT dimensions: (  72,  72,  72)

     Estimated max dynamical RAM per process >      34.86 MB

     Estimated total dynamical RAM >     278.89 MB

     Initial potential from superposition of free atoms

     starting charge      14.9936, renormalised to      15.0000
     Starting wfcs are   14 randomized atomic wfcs

     total cpu time spent up to now is        6.9 secs

     Self-consistent Calculation

     iteration #  1     ecut=    80.00 Ry     beta= 0.70
     Davidson diagonalization with overlap
     ethr =  1.00E-02,  avg # of iterations =  3.3

     Threshold (ethr) on eigenvalues was too large:
     Diagonalizing with lowered threshold

     Davidson diagonalization with overlap
     ethr =  1.45E-04,  avg # of iterations =  5.2

     total cpu time spent up to now is       14.6 secs

     total energy              =     -39.56894499 Ry
     estimated scf accuracy    <       0.02120905 Ry

     iteration #  2     ecut=    80.00 Ry     beta= 0.70
     Davidson diagonalization with overlap
     ethr =  1.41E-04,  avg # of iterations =  2.4

     total cpu time spent up to now is       17.8 secs

     total energy              =     -39.56331604 Ry
     estimated scf accuracy    <       0.07978461 Ry

     iteration #  3     ecut=    80.00 Ry     beta= 0.70
     Davidson diagonalization with overlap
     ethr =  1.41E-04,  avg # of iterations =  2.0

     total cpu time spent up to now is       20.7 secs

     total energy              =     -39.57702237 Ry
     estimated scf accuracy    <       0.00144460 Ry

     iteration #  4     ecut=    80.00 Ry     beta= 0.70
     Davidson diagonalization with overlap
     ethr =  9.63E-06,  avg # of iterations =  3.9

     total cpu time spent up to now is       23.7 secs

     total energy              =     -39.57719111 Ry
     estimated scf accuracy    <       0.00003358 Ry

     iteration #  5     ecut=    80.00 Ry     beta= 0.70
     Davidson diagonalization with overlap
     c_bands:  1 eigenvalues not converged
     ethr =  2.24E-07,  avg # of iterations =  3.5

     total cpu time spent up to now is       27.0 secs

     total energy              =     -39.57720326 Ry
     estimated scf accuracy    <       0.00000095 Ry

     iteration #  6     ecut=    80.00 Ry     beta= 0.70
     Davidson diagonalization with overlap
     ethr =  6.32E-09,  avg # of iterations =  3.5

     total cpu time spent up to now is       30.4 secs

     total energy              =     -39.57720368 Ry
     estimated scf accuracy    <       0.00000015 Ry

     iteration #  7     ecut=    80.00 Ry     beta= 0.70
     Davidson diagonalization with overlap
     ethr =  9.83E-10,  avg # of iterations =  2.3

     total cpu time spent up to now is       33.2 secs

     total energy              =     -39.57720372 Ry
     estimated scf accuracy    <       0.00000003 Ry

     iteration #  8     ecut=    80.00 Ry     beta= 0.70
     Davidson diagonalization with overlap
     ethr =  2.06E-10,  avg # of iterations =  1.2

     total cpu time spent up to now is       35.7 secs

     End of self-consistent calculation

          k = 0.0000 0.0000 0.0000 (  7655 PWs)   bands (ev):

   -42.6232  -6.2404  -2.6399  -0.2981   0.6247   2.4424   2.4424   4.3240
     4.3240   5.2131   7.3187   8.8857

          k =-0.3333 0.0000 0.1191 (  7676 PWs)   bands (ev):

   -42.6230  -5.3186  -2.9554  -2.0657   0.9229   2.3684   3.2474   4.1796
     4.9983   5.0924   6.1211   6.7904

          k = 0.0000 0.1250 0.0447 (  7642 PWs)   bands (ev):

   -42.6232  -6.1081  -2.6615  -0.4562   0.2894   2.5549   2.9055   3.5509
     4.4498   5.6373   7.8730   8.4094

          k =-0.3333 0.1250 0.1638 (  7672 PWs)   bands (ev):

   -42.6230  -5.1394  -3.1190  -1.9485   1.1730   1.9619   2.8147   4.1771
     4.5745   5.0948   5.5524   7.8882

          k = 0.3333 0.1250-0.0744 (  7673 PWs)   bands (ev):

   -42.6230  -5.2515  -2.6667  -2.0846   0.8985   2.0314   2.2110   3.9625
     4.7283   5.5426   5.8283   8.1284

          k = 0.0000 0.2500 0.0893 (  7650 PWs)   bands (ev):

   -42.6231  -5.7158  -2.7384  -1.4790   0.6509   2.5859   2.8943   3.6780
     4.7824   5.6141   6.9169   7.5936

          k =-0.3333 0.2500 0.2084 (  7690 PWs)   bands (ev):

   -42.6230  -4.7242  -3.1844  -1.7641   0.6427   1.6262   3.0035   3.1794
     3.7923   4.2885   7.0118   7.4996

          k = 0.3333 0.2500-0.0298 (  7681 PWs)   bands (ev):

   -42.6230  -4.9467  -2.3695  -2.0556   0.8634   1.1813   2.0928   2.6642
     3.4942   5.8801   7.0023   8.2875

          k = 0.0000 0.3750 0.1340 (  7662 PWs)   bands (ev):

   -42.6230  -5.0847  -3.1879  -2.2115   0.9574   2.4730   3.4606   4.4367
     4.7358   4.9922   5.8786   6.4078

          k =-0.3333 0.3750 0.2531 (  7689 PWs)   bands (ev):

   -42.6229  -4.1187  -3.3082  -1.7035   0.1331   1.5213   2.1964   3.0596
     3.1833   4.2589   6.8066   7.7815

          k = 0.3333 0.3750 0.0149 (  7693 PWs)   bands (ev):

   -42.6229  -4.4436  -2.5749  -1.8881   0.4337   1.3354   1.6233   2.1838
     2.9754   5.3032   7.3589   8.5161

          k = 0.0000-0.5000-0.1787 (  7636 PWs)   bands (ev):

   -42.6230  -4.4510  -3.9050  -2.3116   0.8973   3.1809   3.7200   4.1096
     4.4101   5.3425   5.3717   5.8263

          k =-0.3333-0.5000-0.0596 (  7697 PWs)   bands (ev):

   -42.6229  -3.8837  -3.2279  -1.7739   0.5058   0.8010   1.9003   2.3762
     3.1909   4.5788   7.0854   7.7559

          k = 0.1250-0.1250 0.0000 (  7665 PWs)   bands (ev):

   -42.6231  -5.9978  -2.5243  -0.7588   0.2728   1.8822   3.4771   3.7321
     3.9308   6.0597   7.0611   8.7097

          k =-0.2083-0.1250 0.1191 (  7662 PWs)   bands (ev):

   -42.6231  -5.7104  -2.8776  -1.1215   0.8482   1.6625   3.1004   3.9616
     4.6346   5.6634   6.1172   8.1883

          k = 0.4583-0.1250-0.1191 (  7666 PWs)   bands (ev):

   -42.6230  -4.5435  -3.5673  -2.2225   1.0129   2.5739   2.7496   3.2822
     4.3660   5.0040   6.4640   7.1276

          k =-0.2083 0.0000 0.1638 (  7645 PWs)   bands (ev):

   -42.6231  -5.7688  -3.1965  -1.0116   1.1307   2.6439   3.0146   3.6012
     4.9340   5.2323   7.4265   7.4458

          k = 0.4583 0.0000-0.0744 (  7660 PWs)   bands (ev):

   -42.6230  -4.6830  -3.5920  -2.3290   1.0719   2.1250   4.0781   4.4337
     4.8344   5.1008   5.7010   5.7606

          k = 0.1250 0.1250 0.0893 (  7659 PWs)   bands (ev):

   -42.6231  -5.9557  -2.7993  -0.6259   0.5246   1.8220   3.5362   3.8698
     3.9766   5.9159   7.0457   8.2661

          k =-0.2083 0.1250 0.2084 (  7664 PWs)   bands (ev):

   -42.6231  -5.5752  -3.3771  -1.0563   1.5158   1.6510   3.5633   4.2453
     4.6851   4.9484   6.0138   7.3901

          k = 0.4583 0.1250-0.0298 (  7669 PWs)   bands (ev):

   -42.6230  -4.6029  -3.4529  -2.2565   1.3561   1.8022   2.8329   3.1842
     4.6669   5.5122   6.3616   7.1371

          k = 0.1250 0.2500 0.1340 (  7662 PWs)   bands (ev):

   -42.6231  -5.5460  -2.9256  -1.4242   1.0115   1.7027   2.8966   4.0737
     4.9444   5.3435   5.7304   8.1593

          k =-0.2083 0.2500 0.2531 (  7675 PWs)   bands (ev):

   -42.6230  -5.1365  -3.4472  -1.4147   0.8632   2.0743   3.7028   3.9950
     4.2018   4.5693   5.9131   6.9641

          k = 0.4583 0.2500 0.0149 (  7684 PWs)   bands (ev):

   -42.6229  -4.3207  -3.1888  -2.0170   1.3185   1.4395   1.8025   2.1009
     3.6052   5.2108   7.0562   8.5578

          k = 0.1250-0.6250-0.1787 (  7670 PWs)   bands (ev):

   -42.6230  -4.9021  -3.3031  -2.1051   1.1496   2.1558   2.9595   4.0058
     4.2337   4.9550   5.8484   7.6418

          k =-0.2083-0.6250-0.0596 (  7673 PWs)   bands (ev):

   -42.6230  -4.4735  -3.6262  -1.9599   1.0400   2.0020   2.9393   3.2294
     4.1739   4.3908   6.5979   7.0927

          k = 0.4583-0.6250-0.2978 (  7686 PWs)   bands (ev):

   -42.6229  -3.9174  -2.9260  -1.6900   0.3301   0.4285   1.9327   2.1973
     3.0079   4.6064   7.2125   7.7001

          k = 0.1250-0.5000-0.1340 (  7666 PWs)   bands (ev):

   -42.6230  -4.3587  -3.7959  -2.2280   1.0169   2.8086   2.9312   3.1633
     4.0826   4.9754   6.7335   6.8240

          k =-0.2083-0.5000-0.0149 (  7677 PWs)   bands (ev):

   -42.6229  -4.2087  -3.5965  -2.1127   1.5169   1.7969   2.1463   2.2097
     4.0520   5.1192   6.8135   8.0889

          k = 0.4583-0.5000-0.2531 (  7682 PWs)   bands (ev):

   -42.6228  -3.6303  -2.9119  -1.4765  -0.1754   0.0399   2.0691   2.3018
     2.7949   4.4239   6.9635   7.4546

          k = 0.1250-0.3750-0.0893 (  7667 PWs)   bands (ev):

   -42.6230  -5.0275  -2.9380  -2.1747   0.9927   2.1328   2.3072   3.8309
     4.5781   5.4597   5.8795   7.8246

          k =-0.2083-0.3750 0.0298 (  7690 PWs)   bands (ev):

   -42.6230  -4.8751  -2.6628  -2.1220   1.1393   1.4440   1.9080   2.8399
     3.7993   5.7915   6.8444   8.0674

          k = 0.4583-0.3750-0.2084 (  7694 PWs)   bands (ev):

   -42.6229  -3.7935  -3.1344  -1.6366   0.1132   0.5797   1.9115   2.8027
     2.8285   4.3596   6.7818   8.0677

          k = 0.1250-0.2500-0.0447 (  7672 PWs)   bands (ev):

   -42.6231  -5.6301  -2.4706  -1.5755   0.5806   1.8054   2.5538   3.8591
     4.9549   5.4377   6.2953   8.3608

          k =-0.2083-0.2500 0.0744 (  7682 PWs)   bands (ev):

   -42.6230  -5.4043  -2.5132  -1.6129   0.8552   1.1136   2.7266   3.1608
     4.4960   5.8773   6.1176   8.4326

          k = 0.4583-0.2500-0.1638 (  7699 PWs)   bands (ev):

   -42.6229  -4.2099  -3.3905  -1.9652   0.9816   1.3841   1.9794   2.9884
     3.7241   4.1839   7.1218   8.4128

          k = 0.2500-0.2500 0.0000 (  7693 PWs)   bands (ev):

   -42.6230  -5.2955  -2.2157  -1.8764   0.8466   0.9620   2.5795   2.7799
     4.0592   6.3218   6.3483   8.3314

          k =-0.0833-0.2500 0.1191 (  7662 PWs)   bands (ev):

   -42.6231  -5.6308  -2.8741  -1.4362   0.8666   2.1375   2.7867   4.3078
     4.5241   5.5374   6.1418   8.0956

          k = 0.5833-0.2500-0.1191 (  7695 PWs)   bands (ev):

   -42.6229  -4.2558  -3.4621  -1.9402   0.8393   1.5361   2.3642   3.1133
     3.7690   4.1306   6.9748   8.0443

          k =-0.0833-0.1250 0.1638 (  7657 PWs)   bands (ev):

   -42.6231  -5.9315  -3.2567  -0.3549   1.0834   1.9222   3.3545   4.0431
     4.4064   5.5063   7.2817   7.7665

          k = 0.5833-0.1250-0.0744 (  7677 PWs)   bands (ev):

   -42.6230  -4.4640  -3.8220  -2.2122   1.5038   2.2984   2.8326   3.8191
     4.3492   4.9884   6.1346   6.7873

          k =-0.0833 0.0000 0.2084 (  7673 PWs)   bands (ev):

   -42.6232  -5.9848  -3.5672   0.1504   1.5212   2.2938   2.5027   4.4988
     4.9068   5.1803   6.7228   7.2278

          k = 0.5833 0.0000-0.0298 (  7664 PWs)   bands (ev):

   -42.6230  -4.4961  -4.0049  -2.3197   1.7746   2.3535   3.5170   4.4145
     5.0535   5.1855   5.7943   5.8454

          k =-0.0833 0.1250 0.2531 (  7676 PWs)   bands (ev):

   -42.6231  -5.7890  -3.7132  -0.3324   1.8142   2.1034   3.3006   4.4945
     4.6629   4.8537   6.5184   7.7114

          k = 0.5833 0.1250 0.0149 (  7674 PWs)   bands (ev):

   -42.6230  -4.3682  -3.9445  -2.2245   1.8352   2.2445   2.4316   3.8542
     4.7583   5.0348   6.1692   6.3305

          k = 0.2500-0.7500-0.1787 (  7680 PWs)   bands (ev):

   -42.6230  -5.1280  -3.0465  -1.5344   0.7617   1.5006   3.2655   3.2908
     4.1139   4.8775   6.3796   7.7361

          k =-0.0833-0.7500-0.0596 (  7661 PWs)   bands (ev):

   -42.6231  -5.3522  -3.7262  -1.3689   1.9304   2.4568   3.6255   3.9741
     4.5319   5.1782   5.9660   6.4481

          k = 0.5833-0.7500-0.2978 (  7682 PWs)   bands (ev):

   -42.6229  -4.1190  -3.6493  -1.9503   0.8144   1.8245   2.4059   2.7585
     3.8277   4.4572   6.7654   8.0049

          k = 0.2500-0.6250-0.1340 (  7687 PWs)   bands (ev):

   -42.6229  -4.4929  -3.3071  -1.8697   0.7135   1.5929   2.6877   3.1945
     3.7973   4.1049   7.0121   7.7274

          k =-0.0833-0.6250-0.0149 (  7661 PWs)   bands (ev):

   -42.6230  -4.6910  -3.8505  -2.1667   2.0549   2.4870   2.6350   4.5764
     4.7700   5.2010   5.5132   6.1243

          k = 0.5833-0.6250-0.2531 (  7697 PWs)   bands (ev):

   -42.6229  -3.8124  -3.2548  -1.6328  -0.0202   0.9311   2.0319   2.8117
     2.9499   4.3382   6.8234   7.6189

          k = 0.2500-0.5000-0.0893 (  7697 PWs)   bands (ev):

   -42.6229  -4.1035  -3.4932  -1.9909   1.1193   1.4620   1.8876   2.5994
     3.7260   4.5694   7.0686   8.3745

          k =-0.0833-0.5000 0.0298 (  7664 PWs)   bands (ev):

   -42.6230  -4.4193  -3.8314  -2.3177   1.4621   1.9165   3.3685   3.6712
     4.9421   5.4745   6.0971   6.2178

          k = 0.5833-0.5000-0.2084 (  7684 PWs)   bands (ev):

   -42.6229  -3.6887  -2.9924  -1.5438   0.0353   0.1237   2.0118   2.5054
     2.7405   4.4459   6.7783   7.9916

          k = 0.2500-0.3750-0.0447 (  7689 PWs)   bands (ev):

   -42.6229  -4.7412  -2.6444  -2.0276   0.9380   1.3394   1.9369   2.4864
     3.4623   5.5705   7.1800   8.3229

          k =-0.0833-0.3750 0.0744 (  7663 PWs)   bands (ev):

   -42.6230  -5.1021  -2.9237  -2.2381   0.9469   2.0314   2.7857   4.2733
     4.9411   5.3009   5.6487   7.2546

          k = 0.5833-0.3750-0.1638 (  7704 PWs)   bands (ev):

   -42.6229  -3.9277  -3.0838  -1.6475   0.0543   0.8175   1.9501   2.6842
     3.0284   4.3410   6.8034   8.1953

          k = 0.3750-0.3750 0.0000 (  7686 PWs)   bands (ev):

   -42.6229  -4.2733  -2.6271  -1.8151   0.3068   1.0085   1.7637   2.1082
     2.8991   5.0965   7.3454   8.2591

          k = 0.0417-0.3750 0.1191 (  7657 PWs)   bands (ev):

   -42.6230  -5.0923  -3.1180  -2.2141   0.9418   2.3483   3.2186   4.6493
     4.8180   4.9054   5.6660   6.7214

          k = 0.7083-0.3750-0.1191 (  7689 PWs)   bands (ev):

   -42.6229  -4.3134  -3.3031  -1.7810   0.3848   1.6325   2.3645   3.1335
     3.4759   4.1739   6.8854   8.0751

          k = 0.0417-0.2500 0.1638 (  7649 PWs)   bands (ev):

   -42.6231  -5.6080  -3.1498  -1.3951   1.1645   2.5066   2.9851   3.9409
     4.8440   5.1632   6.6083   7.6204

          k = 0.7083-0.2500-0.0744 (  7668 PWs)   bands (ev):

   -42.6230  -4.7707  -3.4782  -1.6098   0.5536   2.2244   3.4790   3.5769
     3.7386   4.2632   6.5679   6.9472

          k = 0.0417-0.1250 0.2084 (  7670 PWs)   bands (ev):

   -42.6231  -5.9020  -3.5253  -0.2382   1.5495   2.1439   2.9688   4.2273
     4.8302   5.1657   6.8572   7.6107

          k = 0.7083-0.1250-0.0298 (  7662 PWs)   bands (ev):

   -42.6230  -5.0751  -3.7237  -1.6670   1.6031   2.5767   3.1494   4.3111
     4.8146   5.1018   5.3857   6.1414

          k = 0.0417 0.0000 0.2531 (  7674 PWs)   bands (ev):

   -42.6232  -5.9562  -3.7994   0.4315   2.0731   2.2052   2.2722   4.8171
     4.9546   5.0351   6.3022   6.9513

          k = 0.7083 0.0000 0.0149 (  7669 PWs)   bands (ev):

   -42.6231  -5.1895  -3.8026  -1.7231   2.5732   2.8236   3.0028   3.6644
     4.6865   5.6004   5.8213   6.4857

          k = 0.0417-0.8750-0.0596 (  7694 PWs)   bands (ev):

   -42.6231  -5.7715  -3.8867  -0.2371   2.0650   2.6666   2.9155   4.2148
     4.6937   5.1592   6.1539   7.4937

          k = 0.7083-0.8750-0.2978 (  7660 PWs)   bands (ev):

   -42.6230  -5.1053  -3.6638  -1.6663   1.6092   2.3169   3.4083   4.1540
     4.7676   5.1163   5.3223   6.4227

          k = 0.0417-0.7500-0.0149 (  7669 PWs)   bands (ev):

   -42.6231  -5.3584  -3.8228  -1.3774   2.3589   2.8602   3.2241   3.6570
     4.6278   5.4450   5.8124   6.7035

          k = 0.7083-0.7500-0.2531 (  7676 PWs)   bands (ev):

   -42.6230  -4.8238  -3.3713  -1.6151   0.5795   1.9974   3.4693   3.5086
     3.8833   4.1420   6.6873   7.0877

          k = 0.3750-0.6250-0.0893 (  7697 PWs)   bands (ev):

   -42.6229  -3.9189  -3.3267  -1.6508  -0.0151   1.2697   2.1413   2.9060
     3.0435   4.3176   6.8139   7.5505

          k = 0.0417-0.6250 0.0298 (  7661 PWs)   bands (ev):

   -42.6230  -4.7404  -3.8588  -2.1970   1.9896   2.6089   3.0235   4.3362
     4.9494   5.2724   5.6584   6.0964

          k = 0.7083-0.6250-0.2084 (  7688 PWs)   bands (ev):

   -42.6229  -4.3770  -3.1882  -1.7883   0.4192   1.5134   2.3104   3.0318
     3.5149   4.2009   6.9851   8.2431

          k = 0.3750-0.5000-0.0447 (  7693 PWs)   bands (ev):

   -42.6229  -3.7784  -3.0981  -1.6614   0.1930   0.5104   1.9753   2.2867
     3.0543   4.5004   7.1400   7.5099

          k = 0.0417-0.5000 0.0744 (  7652 PWs)   bands (ev):

   -42.6230  -4.4477  -3.8750  -2.3334   1.1777   2.3037   3.8410   4.1618
     4.6608   5.5427   5.6576   5.7843

          k = 0.7083-0.5000-0.1638 (  7700 PWs)   bands (ev):

   -42.6229  -3.9908  -3.3749  -1.8618   0.8389   1.0143   1.7410   2.9962
     3.3762   4.1814   6.9519   8.7243

          k =-0.5000 0.5000 0.0000 (  7696 PWs)   bands (ev):

   -42.6228  -3.6093  -2.8831  -1.4517  -0.2896   0.0780   1.8741   2.3293
     3.0107   4.2717   6.9605   7.5191

          k =-0.8333 0.5000 0.1191 (  7671 PWs)   bands (ev):

   -42.6230  -4.2892  -3.7138  -2.1644   1.0960   2.3407   2.6010   2.8510
     4.2070   4.6100   7.0971   7.4578

          k =-0.8333 0.6250 0.1638 (  7683 PWs)   bands (ev):

   -42.6230  -4.8428  -3.1879  -2.0480   1.1321   1.7308   2.8288   3.4967
     4.2003   4.7247   6.4306   7.7895

          k =-0.1667 0.6250-0.0744 (  7664 PWs)   bands (ev):

   -42.6230  -4.6120  -3.6450  -2.0406   1.4318   1.9118   3.0620   3.6920
     4.2408   4.5789   6.3861   6.7973

          k =-0.8333 0.7500 0.2084 (  7665 PWs)   bands (ev):

   -42.6230  -5.3349  -3.2907  -1.3868   1.2056   1.6668   3.4144   4.0165
     4.7132   5.0746   5.4403   7.4782

          k =-0.1667 0.7500-0.0298 (  7676 PWs)   bands (ev):

   -42.6230  -5.1598  -3.7078  -1.3721   1.1162   2.7797   3.3739   4.2118
     4.5664   5.0475   5.5273   6.1550

          k =-0.8333 0.8750 0.2531 (  7673 PWs)   bands (ev):

   -42.6231  -5.6232  -3.6339  -0.7520   1.5014   2.1173   3.8601   4.3285
     4.5474   4.6977   6.3762   6.9496

          k =-0.1667 0.8750 0.0149 (  7676 PWs)   bands (ev):

   -42.6231  -5.5285  -3.8606  -0.7518   1.4512   3.1785   3.5361   3.9505
     4.5726   5.0800   5.8865   6.6783

          k =-0.8333 0.0000-0.0596 (  7697 PWs)   bands (ev):

   -42.6231  -5.6870  -3.8497  -0.6012   2.3822   2.6267   2.9012   4.0911
     4.5086   5.2947   6.1302   7.9772

     the Fermi energy is     3.4863 ev

!    total energy              =     -39.57720372 Ry
     estimated scf accuracy    <          2.8E-09 Ry
     smearing contrib. (-TS)   =       0.00075383 Ry
     internal energy E=F+TS    =     -39.57795755 Ry

     The total energy is F=E-TS. E is the sum of the following terms:
     one-electron contribution =      -2.37714346 Ry
     hartree contribution      =       4.42738526 Ry
     xc contribution           =     -11.96419488 Ry
     ewald contribution        =     -29.66400447 Ry

     convergence has been achieved in   8 iterations

     Forces acting on atoms (cartesian axes, Ry/au):

     atom    1 type  1   force =     0.00000000    0.00000000   -0.00000000
     atom    2 type  2   force =     0.00000000    0.00000000    0.04619631
     atom    3 type  2   force =     0.00000000    0.00000000   -0.04619631
     atom    4 type  2   force =     0.00000000    0.00000000   -0.00000000
     The non-local contrib.  to forces
     atom    1 type  1   force =    -0.00000000   -0.00000000   -0.00000000
     atom    2 type  2   force =     0.00000000    0.00000000    0.08193700
     atom    3 type  2   force =    -0.00000000    0.00000000   -0.08193700
     atom    4 type  2   force =    -0.00000000   -0.00000000    0.00000000
     The ionic contribution  to forces
     atom    1 type  1   force =    -0.00000000   -0.00000000    0.00000000
     atom    2 type  2   force =    -0.00000000    0.00000000   -0.08045910
     atom    3 type  2   force =     0.00000000   -0.00000000    0.08045910
     atom    4 type  2   force =    -0.00000000   -0.00000000    0.00000000
     The local contribution  to forces
     atom    1 type  1   force =    -0.00000000    0.00000000   -0.00000000
     atom    2 type  2   force =    -0.00000000   -0.00000000    0.04947465
     atom    3 type  2   force =     0.00000000   -0.00000000   -0.04947465
     atom    4 type  2   force =    -0.00000000    0.00000000    0.00000000
     The core correction contribution to forces
     atom    1 type  1   force =     0.00000000    0.00000000    0.00000000
     atom    2 type  2   force =    -0.00000000   -0.00000000   -0.00475679
     atom    3 type  2   force =     0.00000000    0.00000000    0.00475679
     atom    4 type  2   force =    -0.00000000    0.00000000   -0.00000000
     The Hubbard contrib.    to forces
     atom    1 type  1   force =     0.00000000    0.00000000    0.00000000
     atom    2 type  2   force =     0.00000000    0.00000000    0.00000000
     atom    3 type  2   force =     0.00000000    0.00000000    0.00000000
     atom    4 type  2   force =     0.00000000    0.00000000    0.00000000
     The SCF correction term to forces
     atom    1 type  1   force =    -0.00000000    0.00000000   -0.00000000
     atom    2 type  2   force =     0.00000000   -0.00000000    0.00000054
     atom    3 type  2   force =    -0.00000000   -0.00000000   -0.00000054
     atom    4 type  2   force =    -0.00000000   -0.00000000   -0.00000000

     Total force =     0.065331     Total SCF correction =     0.000001


     Computing stress (Cartesian axis) and pressure

          total   stress  (Ry/bohr**3)                   (kbar)     P=     -111.03
  -0.00076759   0.00000000  -0.00000000         -112.92        0.00       -0.00
   0.00000000  -0.00076759   0.00000000            0.00     -112.92        0.00
   0.00000000  -0.00000000  -0.00072921            0.00       -0.00     -107.27


     BFGS Geometry Optimization
     Energy error            =      0.0E+00 Ry
     Gradient error          =      4.6E-02 Ry/Bohr
     Cell gradient error     =      6.1E+02 kbar

     number of scf cycles    =   1
     number of bfgs steps    =   0

     enthalpy           new  =     -37.4188746739 Ry

     new trust radius        =       0.5000000000 bohr
ibrav =      7
 celldm(1) =      6.92213572
 celldm(3) =      2.80154198
Input lattice vectors:
     0.45039535    -0.45039535     1.26180149
     0.45039535     0.45039535     1.26180149
    -0.45039535    -0.45039535     1.26180149
New lattice vectors in INITIAL alat:
     0.45039535    -0.45039535     1.26180149
     0.45039535     0.45039535     1.26180149
    -0.45039535    -0.45039535     1.26180149
New lattice vectors in NEW alat (for information only):
     0.50000000    -0.50000000     1.40077099
     0.50000000     0.50000000     1.40077099
    -0.50000000    -0.50000000     1.40077099
Discrepancy in bohr =     0.000000    0.000000    0.000000
     new conv_thr            =       0.0000000100 Ry

     new unit-cell volume =    464.60884 a.u.^3 (    68.84793 Ang^3 )
     density =      2.19959 g/cm^3

CELL_PARAMETERS (alat=  7.68451057)
   0.450395354  -0.450395354   1.261801493
   0.450395354   0.450395354   1.261801493
  -0.450395354  -0.450395354   1.261801493

ATOMIC_POSITIONS (crystal)
Li            0.0000000000       -0.0000000000       -0.0000000000
Si            0.0000000000        0.2509248451        0.2509248451
Si            0.0000000000        0.7490751549        0.7490751549
Si            0.0000000000        0.5000000000        0.5000000000



     Writing config-only to output data dir ./output/LiSi.save/
     NEW-OLD atomic charge density approx. for the potential
     extrapolated charge    9.50116, renormalised to   15.00000

     total cpu time spent up to now is       39.8 secs

     Self-consistent Calculation

     iteration #  1     ecut=    80.00 Ry     beta= 0.70
     Davidson diagonalization with overlap
     c_bands:  1 eigenvalues not converged
     c_bands:  1 eigenvalues not converged
     c_bands:  1 eigenvalues not converged
     c_bands:  1 eigenvalues not converged
     c_bands:  1 eigenvalues not converged
     c_bands:  1 eigenvalues not converged
     c_bands:  1 eigenvalues not converged
     c_bands:  1 eigenvalues not converged
     c_bands:  1 eigenvalues not converged
     c_bands:  1 eigenvalues not converged
     c_bands:  1 eigenvalues not converged
     c_bands:  1 eigenvalues not converged
     c_bands:  1 eigenvalues not converged
     ethr =  1.00E-06,  avg # of iterations = 14.0

     total cpu time spent up to now is       49.7 secs

     total energy              =     -39.52565111 Ry
     estimated scf accuracy    <       0.23971331 Ry

     iteration #  2     ecut=    80.00 Ry     beta= 0.70
     Davidson diagonalization with overlap
     ethr =  1.60E-03,  avg # of iterations =  2.0

     total cpu time spent up to now is       52.9 secs

     total energy              =     -39.59944758 Ry
     estimated scf accuracy    <       0.35050080 Ry

     iteration #  3     ecut=    80.00 Ry     beta= 0.70
     Davidson diagonalization with overlap
     ethr =  1.60E-03,  avg # of iterations =  2.0

     total cpu time spent up to now is       55.5 secs

     total energy              =     -39.67782149 Ry
     estimated scf accuracy    <       0.03101766 Ry

     iteration #  4     ecut=    80.00 Ry     beta= 0.70
     Davidson diagonalization with overlap
     ethr =  2.07E-04,  avg # of iterations =  1.3

     total cpu time spent up to now is       57.9 secs

     total energy              =     -39.68287927 Ry
     estimated scf accuracy    <       0.00036111 Ry

     iteration #  5     ecut=    80.00 Ry     beta= 0.70
     Davidson diagonalization with overlap
     ethr =  2.41E-06,  avg # of iterations =  6.1

     total cpu time spent up to now is       61.6 secs

     total energy              =     -39.68299572 Ry
     estimated scf accuracy    <       0.00010232 Ry

     iteration #  6     ecut=    80.00 Ry     beta= 0.70
     Davidson diagonalization with overlap
     ethr =  6.82E-07,  avg # of iterations =  1.4

     total cpu time spent up to now is       64.0 secs

     total energy              =     -39.68301379 Ry
     estimated scf accuracy    <       0.00000032 Ry

     iteration #  7     ecut=    80.00 Ry     beta= 0.70
     Davidson diagonalization with overlap
     ethr =  2.13E-09,  avg # of iterations =  4.6

     total cpu time spent up to now is       67.7 secs

     total energy              =     -39.68301447 Ry
     estimated scf accuracy    <       0.00000011 Ry

     iteration #  8     ecut=    80.00 Ry     beta= 0.70
     Davidson diagonalization with overlap
     ethr =  7.57E-10,  avg # of iterations =  1.0

     total cpu time spent up to now is       70.0 secs

     total energy              =     -39.68301447 Ry
     estimated scf accuracy    <       0.00000003 Ry

     iteration #  9     ecut=    80.00 Ry     beta= 0.70
     Davidson diagonalization with overlap
     ethr =  1.88E-10,  avg # of iterations =  2.0

     total cpu time spent up to now is       72.5 secs

     End of self-consistent calculation

          k = 0.0000 0.0000 0.0000 (  7655 PWs)   bands (ev):

   -39.5161  -5.3598  -0.1839   1.0576   4.5842   4.7783   4.7783   7.0696
     7.0696   8.5608   9.3298  11.3728

          k =-0.3700 0.0000 0.1321 (  7676 PWs)   bands (ev):

   -39.5154  -4.1684  -0.9653   0.2248   2.6877   4.6049   5.7410   7.4625
     8.0681   8.3114   9.2973  10.5209

          k =-0.0000 0.1388 0.0495 (  7642 PWs)   bands (ev):

   -39.5159  -5.1897  -0.3244   1.4094   2.8798   4.9111   5.9657   6.1577
     7.2524   8.9904  10.1818  12.1573

          k =-0.3700 0.1388 0.1816 (  7672 PWs)   bands (ev):

   -39.5152  -3.9310  -1.1656   0.3328   3.1045   4.2089   5.1609   6.8990
     7.6045   8.3706   9.1865  11.5867

          k = 0.3700 0.1388-0.0826 (  7673 PWs)   bands (ev):

   -39.5152  -4.0758  -0.5501   0.3365   2.5648   4.2603   4.3999   6.6077
     7.7240   8.9658   9.5262  12.0616

          k =-0.0000 0.2775 0.0991 (  7650 PWs)   bands (ev):

   -39.5156  -4.6838  -0.5652   0.9537   2.3583   4.8491   5.3156   6.9532
     7.7482   8.9142  10.2353  11.4956

          k =-0.3700 0.2775 0.2312 (  7690 PWs)   bands (ev):

   -39.5149  -3.3720  -1.1789   0.6800   2.3306   3.7491   5.4896   5.6689
     6.4632   7.4689  10.5858  11.2311

          k = 0.3700 0.2775-0.0330 (  7681 PWs)   bands (ev):

   -39.5149  -3.6593  -0.0553   0.5777   2.5140   3.0051   4.2035   4.8686
     6.1413   9.6604  10.6809  12.4148

          k =-0.0000 0.4163 0.1486 (  7662 PWs)   bands (ev):

   -39.5153  -3.8627  -1.3294   0.0736   2.7022   4.7781   6.0001   7.5562
     8.0103   8.0392   9.1192  10.0697

          k =-0.3700 0.4163 0.2807 (  7689 PWs)   bands (ev):

   -39.5146  -2.5267  -1.2728   0.8502   1.5823   3.5345   4.6611   5.4000
     5.7633   7.3074  10.1175  10.1747

          k = 0.3700 0.4163 0.0165 (  7693 PWs)   bands (ev):

   -39.5146  -2.9503  -0.2415   0.8155   1.9389   3.4142   3.5884   4.0497
     5.4308   8.8940  10.6195  11.6222

          k = 0.0000-0.5551-0.1981 (  7636 PWs)   bands (ev):

   -39.5151  -3.0082  -2.3530  -0.0120   2.5751   5.8040   6.3821   6.8141
     7.1514   8.7888   8.9406   9.3550

          k =-0.3700-0.5551-0.0660 (  7697 PWs)   bands (ev):

   -39.5145  -2.0968  -1.2945   0.7445   2.3700   2.5860   3.9653   4.6034
     5.6205   7.8106  10.0774  10.7054

          k = 0.1388-0.1388 0.0000 (  7665 PWs)   bands (ev):

   -39.5158  -5.0474  -0.0220   1.2247   2.6514   3.8967   6.1054   6.1449
     7.3324   9.6569  10.5364  10.8558

          k =-0.2313-0.1388 0.1321 (  7662 PWs)   bands (ev):

   -39.5156  -4.6753  -0.8019   1.5745   2.7158   3.6923   5.5090   6.5991
     8.1351   9.1652   9.5026  11.8425

          k = 0.5088-0.1388-0.1321 (  7666 PWs)   bands (ev):

   -39.5150  -3.1300  -1.8757   0.1446   2.7103   4.9721   5.2113   5.8560
     7.2193   8.2754  10.0799  10.8481

          k =-0.2313 0.0000 0.1816 (  7645 PWs)   bands (ev):

   -39.5157  -4.7517  -1.3103   1.5363   3.1822   4.9900   5.6492   6.6985
     7.9977   8.4914  10.8999  11.2473

          k = 0.5088-0.0000-0.0826 (  7660 PWs)   bands (ev):

   -39.5152  -3.3273  -1.9292  -0.0102   2.7908   4.3693   6.7726   7.2106
     7.8760   8.6063   9.1389   9.2003

          k = 0.1388 0.1388 0.0991 (  7659 PWs)   bands (ev):

   -39.5158  -4.9929  -0.6506   1.9800   2.6527   3.8085   6.2495   6.3539
     7.3389   9.4873  10.5335  10.7470

          k =-0.2313 0.1388 0.2312 (  7664 PWs)   bands (ev):

   -39.5156  -4.4996  -1.5715   1.5790   3.5166   3.9138   6.1685   7.0657
     8.1051   8.4607   9.2851  11.1712

          k = 0.5088 0.1388-0.0330 (  7669 PWs)   bands (ev):

   -39.5150  -3.2096  -1.7266   0.0975   3.1443   3.9676   5.3499   5.7152
     7.6043   9.0197   9.7361  10.8770

          k = 0.1388 0.2775 0.1486 (  7662 PWs)   bands (ev):

   -39.5155  -4.4619  -0.8776   1.0975   2.9303   3.8082   5.2302   6.7561
     8.4116   8.6724   9.1948  12.3150

          k =-0.2313 0.2775 0.2807 (  7675 PWs)   bands (ev):

   -39.5153  -3.9266  -1.6257   1.1779   2.5219   4.4956   6.2613   6.7699
     7.4787   7.5436   9.7813  10.4336

          k = 0.5088 0.2775 0.0165 (  7684 PWs)   bands (ev):

   -39.5147  -2.7894  -1.2980   0.4635   3.1887   3.6227   3.9155   4.1893
     6.1762   8.7332  10.3571  11.4953

          k = 0.1388-0.6938-0.1981 (  7670 PWs)   bands (ev):

   -39.5151  -3.6184  -1.4430   0.1449   3.0313   4.4661   5.3923   6.7236
     7.1421   8.2081   9.4755  11.2331

          k =-0.2313-0.6938-0.0660 (  7673 PWs)   bands (ev):

   -39.5150  -3.0528  -1.8119   0.2303   3.0191   4.2166   5.4648   5.9353
     7.1322   7.3676   9.8650  10.8484

          k = 0.5088-0.6938-0.3302 (  7686 PWs)   bands (ev):

   -39.5144  -2.1369  -0.7631   0.9484   1.8700   2.3024   3.8743   4.3016
     5.3994   7.8798  10.0040  10.9730

          k = 0.1388-0.5551-0.1486 (  7666 PWs)   bands (ev):

   -39.5150  -2.8700  -2.1941   0.1030   2.7403   5.3166   5.4294   5.7146
     6.8672   8.2294  10.3542  10.4885

          k =-0.2313-0.5551-0.0165 (  7677 PWs)   bands (ev):

   -39.5148  -2.6416  -1.8873   0.2163   3.5996   3.8647   4.3373   4.5893
     6.7751   8.5849  10.0535  11.5758

          k = 0.5088-0.5551-0.2807 (  7682 PWs)   bands (ev):

   -39.5143  -1.5908  -0.6558   1.0572   1.4072   1.6188   3.9571   4.5517
     5.0176   7.6936   9.7277  10.6161

          k = 0.1388-0.4163-0.0991 (  7667 PWs)   bands (ev):

   -39.5151  -3.7806  -0.9855   0.2432   2.6755   4.3440   4.6240   6.4895
     7.5055   8.8183   9.5547  11.6409

          k =-0.2313-0.4163 0.0330 (  7690 PWs)   bands (ev):

   -39.5150  -3.5664  -0.5782   0.4475   2.8041   3.5239   3.9961   5.1884
     6.4799   9.4997  10.4348  12.3174

          k = 0.5088-0.4163-0.2312 (  7694 PWs)   bands (ev):

   -39.5144  -1.9424  -1.0897   1.0054   1.6978   2.3105   4.0156   5.0360
     5.1748   7.4975  10.1451  10.6683

          k = 0.1388-0.2775-0.0495 (  7672 PWs)   bands (ev):

   -39.5155  -4.5707  -0.0641   0.8805   2.1910   3.9413   4.7690   6.4394
     8.4775   8.6425   9.9471  12.5112

          k =-0.2313-0.2775 0.0826 (  7682 PWs)   bands (ev):

   -39.5153  -4.2732  -0.1863   1.0455   2.5846   2.8796   4.9869   5.5074
     7.4448   9.4873  10.0893  12.7408

          k = 0.5088-0.2775-0.1816 (  7699 PWs)   bands (ev):

   -39.5147  -2.6358  -1.5705   0.5179   2.7409   3.3984   4.2512   5.4215
     6.3438   7.2048  10.4567  12.1543

          k = 0.2775-0.2775 0.0000 (  7693 PWs)   bands (ev):

   -39.5152  -4.1276   0.4113   0.6208   2.5326   2.6111   4.8183   4.9661
     6.8954  10.0916  10.2869  12.9110

          k =-0.0925-0.2775 0.1321 (  7662 PWs)   bands (ev):

   -39.5155  -4.5729  -0.7972   1.0377   2.7096   4.4196   5.0891   7.1788
     7.8348   9.0046   9.4238  12.1688

          k = 0.6476-0.2775-0.1321 (  7695 PWs)   bands (ev):

   -39.5148  -2.7271  -1.5982   0.3942   2.7408   3.5019   4.7782   5.6345
     6.4845   7.0806  10.3377  11.0536

          k =-0.0925-0.1388 0.1816 (  7657 PWs)   bands (ev):

   -39.5159  -4.9609  -1.4099   2.6614   3.1444   4.0039   6.4486   6.9093
     7.2514   8.9571  10.2131  10.9968

          k = 0.6476-0.1388-0.0826 (  7677 PWs)   bands (ev):

   -39.5151  -3.0458  -2.1445  -0.0852   3.5849   4.6302   5.3054   6.5808
     7.2587   8.2909   9.7324  10.0941

          k =-0.0925 0.0000 0.2312 (  7673 PWs)   bands (ev):

   -39.5160  -5.0280  -1.8784   3.3332   3.7746   4.5507   5.5221   7.4083
     7.9930   8.4800   9.3445  10.5010

          k = 0.6476-0.0000-0.0330 (  7664 PWs)   bands (ev):

   -39.5152  -3.1036  -2.3994  -0.2704   3.9701   4.6948   6.0489   7.7331
     8.1349   8.2021   8.9277   9.3728

          k =-0.0925 0.1388 0.2807 (  7676 PWs)   bands (ev):

   -39.5159  -4.7744  -2.0808   2.6193   3.8579   4.5714   6.5593   7.4101
     7.7241   8.1882   9.9539  10.0370

          k = 0.6476 0.1388 0.0165 (  7674 PWs)   bands (ev):

   -39.5151  -2.9308  -2.2918  -0.1356   4.1663   4.4457   4.7836   6.6271
     7.8473   8.4333   9.3812   9.7772

          k = 0.2775-0.8326-0.1981 (  7680 PWs)   bands (ev):

   -39.5152  -3.9111  -1.0220   1.1424   2.3306   3.6526   5.5770   5.8555
     6.9599   8.2827  10.3726  11.4244

          k =-0.0925-0.8326-0.0660 (  7661 PWs)   bands (ev):

   -39.5155  -4.2101  -2.0601   0.9641   4.1641   4.9975   6.5230   6.9510
     7.8264   8.4624   9.0584   9.8435

          k = 0.6476-0.8326-0.3302 (  7682 PWs)   bands (ev):

   -39.5148  -2.5578  -1.8317   0.3089   2.7351   3.8954   4.8417   5.2717
     6.5513   7.5376  10.0447  10.5828

          k = 0.2775-0.6938-0.1486 (  7687 PWs)   bands (ev):

   -39.5148  -3.0581  -1.3537   0.4842   2.5160   3.6370   5.1849   5.6775
     6.5029   7.1346  10.4169  11.1018

          k =-0.0925-0.6938-0.0165 (  7661 PWs)   bands (ev):

   -39.5152  -3.3550  -2.1725  -0.1259   4.4969   4.7925   5.0543   7.6770
     7.7964   8.7076   8.8283   9.1331

          k = 0.6476-0.6938-0.2807 (  7697 PWs)   bands (ev):

   -39.5145  -2.0222  -1.2058   0.9885   1.4332   2.7736   4.3088   5.2040
     5.2234   7.4799   9.9267  10.2338

          k = 0.2775-0.5551-0.0991 (  7697 PWs)   bands (ev):

   -39.5147  -2.4712  -1.7343   0.4375   3.0044   3.4960   4.1098   4.9463
     6.3421   7.7247  10.5150  11.1941

          k =-0.0925-0.5551 0.0330 (  7664 PWs)   bands (ev):

   -39.5151  -2.9644  -2.2365  -0.0847   3.3698   4.1281   5.9476   6.3786
     8.0604   8.9137   9.3867   9.7318

          k = 0.6476-0.5551-0.2312 (  7684 PWs)   bands (ev):

   -39.5143  -1.7181  -0.8461   1.1338   1.5544   1.7535   4.0563   4.6511
     4.9915   7.6629  10.2122  10.6038

          k = 0.2775-0.4163-0.0495 (  7689 PWs)   bands (ev):

   -39.5148  -3.3792  -0.4853   0.5818   2.6543   3.2394   4.0779   4.6708
     6.0430   9.2004  10.7953  12.0792

          k =-0.0925-0.4163 0.0826 (  7663 PWs)   bands (ev):

   -39.5152  -3.8817  -0.9952   0.1762   2.5980   4.1823   5.2633   7.0507
     7.9991   8.6444   9.1716  10.9829

          k = 0.6476-0.4163-0.1816 (  7704 PWs)   bands (ev):

   -39.5145  -2.1855  -0.9580   1.0499   1.4911   2.6245   4.1695   4.8217
     5.4502   7.4658  10.2075  10.7563

          k = 0.4163-0.4163 0.0000 (  7686 PWs)   bands (ev):

   -39.5145  -2.6965  -0.2695   0.8973   1.7451   3.0579   3.7434   3.9286
     5.3221   8.6180  10.3040  11.5550

          k = 0.0463-0.4163 0.1321 (  7657 PWs)   bands (ev):

   -39.5153  -3.8716  -1.2391   0.1057   2.6567   4.6105   5.7568   7.6149
     7.8772   8.3024   8.9357  10.3727

          k = 0.7863-0.4163-0.1321 (  7689 PWs)   bands (ev):

   -39.5147  -2.8064  -1.3058   0.6558   2.0123   3.6815   4.8332   5.5463
     6.1523   7.1736  10.2374  10.5869

          k = 0.0463-0.2775 0.1816 (  7649 PWs)   bands (ev):

   -39.5156  -4.5439  -1.2302   1.0071   3.2009   4.8892   5.3898   7.1904
     7.8579   8.4676   9.9611  11.4157

          k = 0.7863-0.2775-0.0826 (  7668 PWs)   bands (ev):

   -39.5150  -3.4443  -1.6142   0.9045   2.1132   4.6205   6.0611   6.4066
     6.7534   7.1253   9.9255  10.4352

          k = 0.0463-0.1388 0.2312 (  7670 PWs)   bands (ev):

   -39.5159  -4.9218  -1.8129   2.6997   3.8117   4.3785   6.1151   7.0438
     7.8649   8.5164   9.9096  10.5803

          k = 0.7863-0.1388-0.0330 (  7662 PWs)   bands (ev):

   -39.5154  -3.8504  -2.0228   0.5616   3.7408   5.0914   5.8900   7.3392
     8.1010   8.2047   8.8103   9.2738

          k = 0.0463-0.0000 0.2807 (  7674 PWs)   bands (ev):

   -39.5161  -4.9892  -2.2144   3.9078   4.4342   4.5196   5.0644   7.9735
     8.1815   8.2237   8.9488   9.8366

          k = 0.7863-0.0000 0.0165 (  7669 PWs)   bands (ev):

   -39.5155  -4.0007  -2.1510   0.4231   5.1881   5.2093   5.6466   6.9266
     7.7521   8.6583   9.1211   9.7402

          k = 0.0463-0.9714-0.0660 (  7694 PWs)   bands (ev):

   -39.5159  -4.7498  -2.3290   2.6397   4.2720   5.3105   6.1070   7.3857
     7.7096   8.4431   9.3902   9.7751

          k = 0.7863-0.9714-0.3302 (  7660 PWs)   bands (ev):

   -39.5154  -3.8896  -1.9399   0.5721   3.7518   4.7633   6.1730   7.0519
     8.0262   8.2417   8.7881   9.6606

          k = 0.0463-0.8326-0.0165 (  7669 PWs)   bands (ev):

   -39.5156  -4.2178  -2.2000   0.9110   4.6970   5.5252   6.0506   6.8882
     7.6924   8.6599   8.8891  10.1158

          k = 0.7863-0.8326-0.2807 (  7676 PWs)   bands (ev):

   -39.5150  -3.5119  -1.4646   0.9170   2.1460   4.3328   5.9192   6.3046
     6.7534   7.1889  10.2441  10.7290

          k = 0.4163-0.6938-0.0991 (  7697 PWs)   bands (ev):

   -39.5145  -2.2262  -1.2778   1.0213   1.3038   3.2218   4.5572   5.3365
     5.3965   7.4265   9.8056  10.1887

          k = 0.0463-0.6938 0.0330 (  7661 PWs)   bands (ev):

   -39.5153  -3.4205  -2.1927  -0.1690   4.3300   5.0506   5.4830   7.5528
     8.1233   8.3091   9.0989   9.1963

          k = 0.7863-0.6938-0.2312 (  7688 PWs)   bands (ev):

   -39.5147  -2.8873  -1.1496   0.6908   2.0460   3.5083   4.7457   5.3712
     6.1354   7.2662  10.3570  10.9997

          k = 0.4163-0.5551-0.0495 (  7693 PWs)   bands (ev):

   -39.5144  -1.9003  -1.0560   0.8873   1.9835   2.1717   3.9821   4.4899
     5.4383   7.7585   9.6238  10.9027

          k = 0.0463-0.5551 0.0826 (  7652 PWs)   bands (ev):

   -39.5151  -3.0057  -2.3029  -0.0885   2.9912   4.6195   6.5110   6.9286
     7.6824   9.0370   9.0985   9.1930

          k = 0.7863-0.5551-0.1816 (  7700 PWs)   bands (ev):

   -39.5146  -2.2814  -1.5520   0.6830   2.5952   2.9538   3.8404   5.4264
     5.8992   7.1730  10.2515  11.8221

          k =-0.5551 0.5551-0.0000 (  7696 PWs)   bands (ev):

   -39.5143  -1.5413  -0.5845   0.9470   1.4478   1.6012   3.6234   4.6216
     5.3669   7.5406   8.9836  11.3496

          k =-0.9251 0.5551 0.1321 (  7671 PWs)   bands (ev):

   -39.5149  -2.7640  -2.0723   0.1917   2.8539   4.6868   5.1088   5.2546
     6.9829   7.7744  10.6174  11.2864

          k =-0.9251 0.6938 0.1816 (  7683 PWs)   bands (ev):

   -39.5151  -3.5344  -1.2680   0.2734   2.9859   3.8969   5.2195   6.1074
     6.9921   7.9749  10.2114  11.3405

          k =-0.1850 0.6938-0.0826 (  7664 PWs)   bands (ev):

   -39.5151  -3.2397  -1.8671   0.1028   3.5826   4.0786   5.6281   6.4646
     7.1321   7.7127   9.9517  10.3042

          k =-0.9251 0.8326 0.2312 (  7665 PWs)   bands (ev):

   -39.5154  -4.1864  -1.4186   1.1479   3.0779   3.9248   5.9162   6.7050
     8.0186   8.2192   9.2032  11.1691

          k =-0.1850 0.8326-0.0330 (  7676 PWs)   bands (ev):

   -39.5154  -3.9587  -2.0114   1.0952   2.9645   5.3554   6.3268   7.1720
     7.7468   8.1000   9.1302   9.3495

          k =-0.9251 0.9714 0.2807 (  7673 PWs)   bands (ev):

   -39.5157  -4.5606  -1.9538   2.0496   3.4020   4.5913   6.8591   7.2285
     7.8492   8.0536   9.6795  10.5961

          k =-0.1850 0.9714 0.0165 (  7676 PWs)   bands (ev):

   -39.5157  -4.4357  -2.2732   2.0198   3.3354   5.8715   6.6633   7.3668
     7.6755   8.2967   8.8684  10.2293

          k =-0.9251 0.0000-0.0660 (  7697 PWs)   bands (ev):

   -39.5158  -4.6414  -2.2697   2.0341   4.6465   5.2709   6.1367   7.2095
     7.4234   8.6439   9.2907  10.3621

     the Fermi energy is     6.1872 ev

!    total energy              =     -39.68301447 Ry
     estimated scf accuracy    <          6.3E-11 Ry
     smearing contrib. (-TS)   =      -0.00028567 Ry
     internal energy E=F+TS    =     -39.68272881 Ry

     The total energy is F=E-TS. E is the sum of the following terms:
     one-electron contribution =       1.82015365 Ry
     hartree contribution      =       3.85852823 Ry
     xc contribution           =     -12.44956045 Ry
     ewald contribution        =     -32.91185023 Ry

     convergence has been achieved in   9 iterations

     Forces acting on atoms (cartesian axes, Ry/au):

     atom    1 type  1   force =     0.00000000   -0.00000000   -0.00000000
     atom    2 type  2   force =    -0.00000000    0.00000000    0.04997670
     atom    3 type  2   force =     0.00000000   -0.00000000   -0.04997670
     atom    4 type  2   force =     0.00000000    0.00000000    0.00000000
     The non-local contrib.  to forces
     atom    1 type  1   force =     0.00000000   -0.00000000   -0.00000000
     atom    2 type  2   force =    -0.00000000    0.00000000    0.07515663
     atom    3 type  2   force =     0.00000000   -0.00000000   -0.07515663
     atom    4 type  2   force =     0.00000000    0.00000000    0.00000000
     The ionic contribution  to forces
     atom    1 type  1   force =     0.00000000    0.00000000    0.00000000
     atom    2 type  2   force =     0.00000000    0.00000000   -0.10808793
     atom    3 type  2   force =    -0.00000000   -0.00000000    0.10808793
     atom    4 type  2   force =    -0.00000000    0.00000000    0.00000000
     The local contribution  to forces
     atom    1 type  1   force =    -0.00000000    0.00000000   -0.00000000
     atom    2 type  2   force =     0.00000000    0.00000000    0.08654759
     atom    3 type  2   force =     0.00000000   -0.00000000   -0.08654759
     atom    4 type  2   force =    -0.00000000   -0.00000000    0.00000000
     The core correction contribution to forces
     atom    1 type  1   force =     0.00000000    0.00000000    0.00000000
     atom    2 type  2   force =    -0.00000000   -0.00000000   -0.00363993
     atom    3 type  2   force =     0.00000000    0.00000000    0.00363993
     atom    4 type  2   force =    -0.00000000   -0.00000000   -0.00000000
     The Hubbard contrib.    to forces
     atom    1 type  1   force =     0.00000000    0.00000000    0.00000000
     atom    2 type  2   force =     0.00000000    0.00000000    0.00000000
     atom    3 type  2   force =     0.00000000    0.00000000    0.00000000
     atom    4 type  2   force =     0.00000000    0.00000000    0.00000000
     The SCF correction term to forces
     atom    1 type  1   force =     0.00000000    0.00000000   -0.00000000
     atom    2 type  2   force =     0.00000000   -0.00000000    0.00000034
     atom    3 type  2   force =    -0.00000000    0.00000000   -0.00000034
     atom    4 type  2   force =     0.00000000    0.00000000   -0.00000000

     Total force =     0.070678     Total SCF correction =     0.000000


     Computing stress (Cartesian axis) and pressure

          total   stress  (Ry/bohr**3)                   (kbar)     P=      -38.43
  -0.00029504  -0.00000000  -0.00000000          -43.40       -0.00       -0.00
  -0.00000000  -0.00029504  -0.00000000           -0.00      -43.40       -0.00
  -0.00000000   0.00000000  -0.00019374           -0.00        0.00      -28.50

     Energy error            =      6.8E-01 Ry
     Gradient error          =      5.0E-02 Ry/Bohr
     Cell gradient error     =      5.4E+02 kbar

     number of scf cycles    =   2
     number of bfgs steps    =   1

     enthalpy           old  =     -37.4188746739 Ry
     enthalpy           new  =     -38.1038411159 Ry

     CASE: enthalpy          _new < enthalpy          _old

     new trust radius        =       0.7121860159 bohr
ibrav =      7
 celldm(1) =      5.77857344
 celldm(3) =      2.81834404
Input lattice vectors:
     0.37598839    -0.37598839     1.05966462
     0.37598839     0.37598839     1.05966462
    -0.37598839    -0.37598839     1.05966462
New lattice vectors in INITIAL alat:
     0.37598839    -0.37598839     1.05966462
     0.37598839     0.37598839     1.05966462
    -0.37598839    -0.37598839     1.05966462
New lattice vectors in NEW alat (for information only):
     0.50000000    -0.50000000     1.40917202
     0.50000000     0.50000000     1.40917202
    -0.50000000    -0.50000000     1.40917202
Discrepancy in bohr =     0.000000    0.000000    0.000000
     new conv_thr            =       0.0000000050 Ry

     new unit-cell volume =    271.91047 a.u.^3 (    40.29297 Ang^3 )
     density =      3.75840 g/cm^3

CELL_PARAMETERS (alat=  7.68451057)
   0.375988385  -0.375988385   1.059664625
   0.375988385   0.375988385   1.059664625
  -0.375988385  -0.375988385   1.059664625

ATOMIC_POSITIONS (crystal)
Li            0.0000000000       -0.0000000000       -0.0000000000
Si            0.0000000000        0.2551336467        0.2551336467
Si            0.0000000000        0.7448663533        0.7448663533
Si            0.0000000000        0.5000000000        0.5000000000



     Writing config-only to output data dir ./output/LiSi.save/
     NEW-OLD atomic charge density approx. for the potential

     negative rho (up, down):  4.332E-01 0.000E+00
     extrapolated charge    4.37429, renormalised to   15.00000

     total cpu time spent up to now is       76.4 secs

     Self-consistent Calculation

     iteration #  1     ecut=    80.00 Ry     beta= 0.70
     Davidson diagonalization with overlap
     c_bands:  1 eigenvalues not converged
     c_bands:  1 eigenvalues not converged
     c_bands:  1 eigenvalues not converged
     c_bands:  1 eigenvalues not converged
     c_bands:  1 eigenvalues not converged
     c_bands:  1 eigenvalues not converged
     c_bands:  1 eigenvalues not converged
     c_bands:  2 eigenvalues not converged
     ethr =  1.00E-06,  avg # of iterations = 15.3

     negative rho (up, down):  3.971E-03 0.000E+00

     total cpu time spent up to now is       87.0 secs

     total energy              =     -39.10050711 Ry
     estimated scf accuracy    <       3.46425087 Ry

     iteration #  2     ecut=    80.00 Ry     beta= 0.70
     Davidson diagonalization with overlap
     ethr =  1.00E-02,  avg # of iterations =  2.0

     total cpu time spent up to now is       89.9 secs

     total energy              =     -39.31746993 Ry
     estimated scf accuracy    <       0.35279487 Ry

     iteration #  3     ecut=    80.00 Ry     beta= 0.70
     Davidson diagonalization with overlap
     ethr =  2.35E-03,  avg # of iterations =  2.0

     total cpu time spent up to now is       92.4 secs

     total energy              =     -39.34817612 Ry
     estimated scf accuracy    <       0.08751192 Ry

     iteration #  4     ecut=    80.00 Ry     beta= 0.70
     Davidson diagonalization with overlap
     ethr =  5.83E-04,  avg # of iterations =  2.2

     total cpu time spent up to now is       95.0 secs

     total energy              =     -39.36846309 Ry
     estimated scf accuracy    <       0.01552656 Ry

     iteration #  5     ecut=    80.00 Ry     beta= 0.70
     Davidson diagonalization with overlap
     ethr =  1.04E-04,  avg # of iterations =  2.4

     total cpu time spent up to now is       97.5 secs

     total energy              =     -39.37166222 Ry
     estimated scf accuracy    <       0.00015303 Ry

     iteration #  6     ecut=    80.00 Ry     beta= 0.70
     Davidson diagonalization with overlap
     c_bands:  1 eigenvalues not converged
     ethr =  1.02E-06,  avg # of iterations =  6.6

     total cpu time spent up to now is      101.4 secs

     total energy              =     -39.37172655 Ry
     estimated scf accuracy    <       0.00001409 Ry

     iteration #  7     ecut=    80.00 Ry     beta= 0.70
     Davidson diagonalization with overlap
     ethr =  9.39E-08,  avg # of iterations =  2.1

     total cpu time spent up to now is      104.0 secs

     total energy              =     -39.37173001 Ry
     estimated scf accuracy    <       0.00000153 Ry

     iteration #  8     ecut=    80.00 Ry     beta= 0.70
     Davidson diagonalization with overlap
     ethr =  1.02E-08,  avg # of iterations =  1.9

     total cpu time spent up to now is      106.4 secs

     End of self-consistent calculation

          k = 0.0000 0.0000 0.0000 (  7655 PWs)   bands (ev):

   -33.2552  -2.8797   4.4654   5.7194  10.9821  10.9821  13.5650  13.5650
    13.9982  14.1240  17.0493  17.4091

          k =-0.4433-0.0000 0.1573 (  7676 PWs)   bands (ev):

   -33.2463  -1.1697   3.5310   5.0796   7.5198  10.2358  12.1801  14.9335
    15.4682  15.9759  16.6810  19.0240

          k = 0.0000 0.1662 0.0590 (  7642 PWs)   bands (ev):

   -33.2535  -2.6367   4.2651   6.2843   8.8926  11.1397  12.0771  13.8809
    14.2270  16.4004  17.0961  19.3879

          k =-0.4433 0.1662 0.2163 (  7672 PWs)   bands (ev):

   -33.2448  -0.8250   3.2849   5.0682   8.2865  10.0984  10.9980  13.5193
    14.7989  16.2500  17.7429  19.5341

          k = 0.4433 0.1662-0.0983 (  7673 PWs)   bands (ev):

   -33.2448  -1.0281   4.1636   5.5358   7.1385   9.6786  10.3694  13.0950
    14.8655  16.9255  18.2042  20.4171

          k = 0.0000 0.3325 0.1180 (  7650 PWs)   bands (ev):

   -33.2493  -1.9119   4.0284   6.2085   7.3057  10.3709  11.6374  14.7032
    14.7750  16.6163  17.9357  19.8181

          k =-0.4433 0.3325 0.2752 (  7690 PWs)   bands (ev):

   -33.2412  -0.0002   3.4435   5.3641   7.4881   9.3379  11.0818  12.2860
    12.9809  15.4790  17.6146  18.6404

          k = 0.4433 0.3325-0.0393 (  7681 PWs)   bands (ev):

   -33.2412  -0.4044   5.0877   6.4020   7.0370   8.0168   9.1283  10.6984
    12.7849  18.4471  19.7419  20.1705

          k = 0.0000 0.4987 0.1769 (  7662 PWs)   bands (ev):

   -33.2451  -0.7269   2.9821   4.9216   7.3692  10.6056  12.5181  14.6326
    15.3595  15.9128  16.6571  18.4761

          k =-0.4433 0.4987 0.3342 (  7689 PWs)   bands (ev):

   -33.2375   1.2801   3.5906   5.0564   6.7126   9.0084  10.6085  11.3217
    12.2409  15.0264  15.9235  18.0443

          k = 0.4433 0.4987 0.0197 (  7693 PWs)   bands (ev):

   -33.2376   0.6818   5.1093   6.2380   6.8472   8.3338   8.4950   9.2748
    11.7047  17.0738  18.1992  20.0170

          k =-0.0000-0.6649-0.2359 (  7636 PWs)   bands (ev):

   -33.2433   0.5436   1.4188   4.9517   6.9545  12.3288  12.7626  13.6609
    13.9778  16.4312  17.4916  19.1475

          k =-0.4433-0.6649-0.0786 (  7697 PWs)   bands (ev):

   -33.2360   2.1205   3.1005   5.6689   7.5508   7.7149   9.3002  10.4181
    11.6895  15.1704  16.9991  18.6714

          k = 0.1662-0.1662 0.0000 (  7665 PWs)   bands (ev):

   -33.2518  -2.4311   4.8761   5.9406   9.0462   9.2363  11.7255  12.6262
    16.2078  16.9745  18.1700  18.6929

          k =-0.2770-0.1662 0.1573 (  7662 PWs)   bands (ev):

   -33.2492  -1.9005   3.6369   7.1461   8.0240   9.3204  11.1975  13.0702
    16.5997  16.9648  18.0008  19.0656

          k = 0.6095-0.1662-0.1573 (  7666 PWs)   bands (ev):

   -33.2421   0.3658   2.1435   5.2379   7.1031  11.0037  11.4797  12.3455
    13.9975  16.1095  18.5484  18.8973

          k =-0.2770-0.0000 0.2163 (  7645 PWs)   bands (ev):

   -33.2508  -2.0168   2.8478   6.8362   8.7889  11.1324  11.6239  14.4679
    15.2571  16.2169  18.7154  18.8681

          k = 0.6095 0.0000-0.0983 (  7660 PWs)   bands (ev):

   -33.2436   0.0628   2.0504   4.9832   7.1759  10.2389  13.6006  14.1330
    14.8971  16.3351  16.9534  17.6654

          k = 0.1662 0.1662 0.1180 (  7659 PWs)   bands (ev):

   -33.2518  -2.3562   3.7879   7.2496   8.8746   9.1585  12.1072  12.8771
    16.2216  16.8319  18.0342  18.6683

          k =-0.2770 0.1662 0.2752 (  7664 PWs)   bands (ev):

   -33.2491  -1.6571   2.5012   6.9121   9.0993   9.8749  12.2585  13.8016
    16.4267  16.8724  17.2169  18.8864

          k = 0.6095 0.1662-0.0393 (  7669 PWs)   bands (ev):

   -33.2421   0.2492   2.3607   5.1185   7.6177   9.7549  11.7149  12.0940
    14.5544  16.8511  18.1153  19.3750

          k = 0.1662 0.3325 0.1769 (  7662 PWs)   bands (ev):

   -33.2477  -1.5932   3.5840   6.3066   8.3276   9.5205  10.8482  13.2839
    16.1593  16.7292  17.7700  20.1858

          k =-0.2770 0.3325 0.3342 (  7675 PWs)   bands (ev):

   -33.2452  -0.8284   2.5424   6.2799   7.6314  10.6703  12.2395  13.4333
    14.7362  15.9723  17.3225  18.0903

          k = 0.6095 0.3325 0.0197 (  7684 PWs)   bands (ev):

   -33.2387   0.9195   3.0559   5.6550   8.0141   9.3545   9.4975   9.6588
    12.5733  17.1140  17.8862  18.9214

          k = 0.1662-0.8311-0.2359 (  7670 PWs)   bands (ev):

   -33.2436  -0.3693   2.8751   4.8404   8.0081  10.4587  11.4406  13.3647
    14.1197  16.0620  17.9789  19.0482

          k =-0.2770-0.8311-0.0786 (  7673 PWs)   bands (ev):

   -33.2413   0.4469   2.4535   4.6662   8.4906   9.7542  11.7834  12.5542
    13.9737  15.1330  17.1645  17.5153

          k = 0.6095-0.8311-0.3932 (  7686 PWs)   bands (ev):

   -33.2352   2.0539   4.1047   6.0398   6.4451   7.8109   8.7904   9.8957
    11.3817  15.1304  17.1714  19.2356

          k = 0.1662-0.6649-0.1769 (  7666 PWs)   bands (ev):

   -33.2419   0.7684   1.6568   5.0930   7.2180  11.5888  11.6568  12.2323
    13.5200  16.1094  18.5181  18.7694

          k =-0.2770-0.6649-0.0197 (  7677 PWs)   bands (ev):

   -33.2397   1.1398   2.1505   5.0651   8.4539   9.7879  10.0943  10.6208
    13.3976  16.9547  17.6524  18.5645

          k = 0.6095-0.6649-0.3342 (  7682 PWs)   bands (ev):

   -33.2338   3.4639   4.3711   4.8672   5.5809   7.9947   8.8349  10.1186
    10.7129  15.0700  16.4807  18.6382

          k = 0.1662-0.4987-0.1180 (  7667 PWs)   bands (ev):

   -33.2436  -0.5979   3.4919   5.4227   7.1385   9.9276  10.7167  13.0371
    14.4920  16.6635  18.1866  19.8699

          k =-0.2770-0.4987 0.0393 (  7690 PWs)   bands (ev):

   -33.2414  -0.2702   4.1279   6.1099   7.1148   9.0998   9.2719  11.1514
    13.1321  18.0323  19.3141  19.9638

          k = 0.6095-0.4987-0.2752 (  7694 PWs)   bands (ev):

   -33.2352   2.4052   3.5726   5.5046   7.0877   7.3020   9.2750  10.7574
    11.1948  15.1684  16.6700  18.3603

          k = 0.1662-0.3325-0.0590 (  7672 PWs)   bands (ev):

   -33.2477  -1.7444   4.8880   6.4496   6.7430   9.7297  10.1221  12.8026
    16.1220  16.8483  18.5410  20.1604

          k =-0.2770-0.3325 0.0983 (  7682 PWs)   bands (ev):

   -33.2453  -1.3117   4.7645   6.7691   7.4807   7.9866  10.1049  11.6777
    14.5727  18.1624  19.7164  20.8154

          k = 0.6095-0.3325-0.2163 (  7699 PWs)   bands (ev):

   -33.2387   1.1545   2.6508   5.7428   7.3594   8.8249  10.0473  11.6048
    12.7146  14.6677  17.6672  20.2818

          k = 0.3325-0.3325 0.0000 (  7693 PWs)   bands (ev):

   -33.2439  -1.0956   5.8481   6.5552   6.9328   7.5128   9.5733  11.1165
    13.8421  18.8080  20.2157  21.2225

          k =-0.1108-0.3325 0.1573 (  7662 PWs)   bands (ev):

   -33.2486  -1.7534   3.6849   6.2342   7.9464  10.3660  10.7482  13.9140
    15.8544  16.9831  17.3003  20.0151

          k = 0.7757-0.3325-0.1573 (  7695 PWs)   bands (ev):

   -33.2392   0.9716   2.7587   5.0568   8.0949   8.6599  10.7696  11.9709
    13.0016  14.5177  17.3008  18.6376

          k =-0.1108-0.1662 0.2163 (  7657 PWs)   bands (ev):

   -33.2526  -2.3182   2.6531   8.6103   8.8043   9.7222  13.0119  13.9091
    15.4011  16.3122  17.3793  19.2662

          k = 0.7757-0.1662-0.0983 (  7677 PWs)   bands (ev):

   -33.2427   0.4555   1.8508   4.4008   8.7573  10.6733  11.6232  13.2492
    14.2015  16.2992  17.8595  18.2960

          k =-0.1108 0.0000 0.2752 (  7673 PWs)   bands (ev):

   -33.2543  -2.4219   1.9591   9.3108   9.6905  10.5062  13.8877  14.2832
    15.1560  15.3331  16.6111  18.8661

          k = 0.7757 0.0000-0.0393 (  7664 PWs)   bands (ev):

   -33.2441   0.3533   1.4568   4.1284   9.1041  11.0041  12.5131  14.9077
    15.4000  15.8836  16.2988  18.1460

          k =-0.1108 0.1662 0.3342 (  7676 PWs)   bands (ev):

   -33.2526  -2.0622   1.7008   8.4381   9.4947  10.8008  14.1012  14.7190
    15.3826  16.1316  16.5647  17.9030

          k = 0.7757 0.1662 0.0197 (  7674 PWs)   bands (ev):

   -33.2427   0.6084   1.6562   4.2838   9.3574  10.5843  10.9890  13.3463
    15.0803  16.3538  17.1509  18.3177

          k = 0.3325-0.9974-0.2359 (  7680 PWs)   bands (ev):

   -33.2439  -0.7926   3.5141   6.4275   7.2256   9.4865  10.9170  12.2456
    13.9393  16.8560  19.1899  20.2706

          k =-0.1108-0.9974-0.0786 (  7661 PWs)   bands (ev):

   -33.2484  -1.2496   1.8211   5.8713  10.0401  11.1948  13.3760  13.9150
    15.8720  16.2087  16.6983  17.7884

          k = 0.7757-0.9974-0.3932 (  7682 PWs)   bands (ev):

   -33.2392   1.1972   2.4594   4.8044   8.1062   9.2408  10.9531  11.5832
    13.2011  15.0884  16.8834  17.8462

          k = 0.3325-0.8311-0.1769 (  7687 PWs)   bands (ev):

   -33.2400   0.4674   3.1935   5.0707   7.7896   8.9870  11.0982  12.1256
    12.9750  14.8168  17.3614  18.5947

          k =-0.1108-0.8311-0.0197 (  7661 PWs)   bands (ev):

   -33.2444  -0.0113   1.8081   4.2445   9.9008  11.0260  11.4716  14.4776
    15.3658  16.2375  16.7193  17.6265

          k = 0.7757-0.8311-0.3342 (  7697 PWs)   bands (ev):

   -33.2357   2.1479   3.7469   4.9237   6.8583   7.9159  10.1307  10.8617
    11.3555  15.1798  15.8722  18.1615

          k = 0.3325-0.6649-0.1180 (  7697 PWs)   bands (ev):

   -33.2385   1.4371   2.3688   5.4772   7.8517   8.9940   9.8702  10.9696
    12.7605  15.3313  17.8221  18.8949

          k =-0.1108-0.6649 0.0393 (  7664 PWs)   bands (ev):

   -33.2427   0.6113   1.6100   4.6635   8.0274  10.1015  12.4391  13.0837
    15.2703  16.4068  17.6727  18.0959

          k = 0.7757-0.6649-0.2752 (  7684 PWs)   bands (ev):

   -33.2343   3.0248   3.8512   5.4496   6.0652   7.7782   9.0011  10.1309
    10.8805  15.4643  16.8392  18.0360

          k = 0.3325-0.4987-0.0590 (  7689 PWs)   bands (ev):

   -33.2401   0.0140   4.3592   6.2742   7.2280   8.3958   9.2625  10.4373
    12.5471  17.7063  19.4902  19.5891

          k =-0.1108-0.4987 0.0983 (  7663 PWs)   bands (ev):

   -33.2444  -0.7479   3.4454   5.4025   6.9405   9.7342  11.6101  13.8476
    15.1538  16.3052  17.4576  19.5759

          k = 0.7757-0.4987-0.2163 (  7704 PWs)   bands (ev):

   -33.2357   1.9107   4.0898   5.1775   7.0667   7.5820   9.5271  10.5392
    11.5435  15.1694  16.7951  18.3551

          k = 0.4987-0.4987 0.0000 (  7686 PWs)   bands (ev):

   -33.2365   1.0891   5.4588   5.6225   6.8131   8.2162   8.6936   8.9035
    11.4920  16.4535  17.6961  20.1242

          k = 0.0554-0.4987 0.1573 (  7657 PWs)   bands (ev):

   -33.2449  -0.7380   3.1093   5.0411   7.2431  10.3610  12.2315  14.6406
    15.1591  16.1686  16.6201  18.8160

          k = 0.9420-0.4987-0.1573 (  7689 PWs)   bands (ev):

   -33.2387   0.8493   3.3840   5.1274   7.1341   9.1463  10.6963  11.7531
    12.6890  14.7745  16.6476  18.2176

          k = 0.0554-0.3325 0.2163 (  7649 PWs)   bands (ev):

   -33.2491  -1.7167   3.0216   6.0586   8.7409  10.9853  11.2423  14.7580
    15.2230  16.3170  17.7293  19.5844

          k = 0.9420-0.3325-0.0983 (  7668 PWs)   bands (ev):

   -33.2424  -0.1250   2.6942   5.6886   7.1360  10.6645  12.0613  13.3551
    13.7523  15.1323  16.2102  17.4814

          k = 0.0554-0.1662 0.2752 (  7670 PWs)   bands (ev):

   -33.2532  -2.2684   2.0700   8.4859   9.7258  10.3113  13.4953  14.4474
    15.1127  16.1202  16.7708  18.8018

          k = 0.9420-0.1662-0.0393 (  7662 PWs)   bands (ev):

   -33.2461  -0.7285   1.9482   5.2422   9.4728  11.0763  12.7312  14.3164
    15.2848  16.5083  16.7099  17.2382

          k = 0.0554-0.0000 0.3342 (  7674 PWs)   bands (ev):

   -33.2548  -2.3733   1.4805   9.9685  10.3240  10.6767  13.6817  14.3031
    15.5337  15.8677  16.1395  18.0732

          k = 0.9420 0.0000 0.0197 (  7669 PWs)   bands (ev):

   -33.2476  -0.9495   1.7248   5.0584  11.1150  11.3293  12.6058  14.5993
    14.9429  15.4358  17.4446  17.8849

          k = 0.0554-1.1636-0.0786 (  7694 PWs)   bands (ev):

   -33.2531  -2.0328   1.3438   8.3296  10.1244  11.7608  14.2230  14.7670
    15.1648  16.2378  16.3751  17.0270

          k = 0.9420-1.1636-0.3932 (  7660 PWs)   bands (ev):

   -33.2461  -0.7829   2.0692   5.2660   9.4917  10.7383  12.8990  13.8394
    15.4006  16.3635  17.1581  17.2211

          k = 0.0554-0.9974-0.0197 (  7669 PWs)   bands (ev):

   -33.2490  -1.2641   1.6094   5.7830  10.7178  11.6902  13.2322  14.5443
    15.0052  15.3503  17.4659  18.0332

          k = 0.9420-0.9974-0.3342 (  7676 PWs)   bands (ev):

   -33.2424  -0.2184   2.9199   5.7435   7.1664  10.3410  11.6999  13.2075
    13.4054  15.4171  16.7538  17.9641

          k = 0.4987-0.8311-0.1180 (  7697 PWs)   bands (ev):

   -33.2365   1.7569   3.7287   4.8535   6.6276   8.5836  10.7957  10.8746
    11.7237  15.2525  15.4573  18.0454

          k = 0.0554-0.8311 0.0393 (  7661 PWs)   bands (ev):

   -33.2449  -0.1068   1.7630   4.1980   9.7451  11.5432  11.7710  14.6110
    15.6297  15.9400  16.3396  18.0346

          k = 0.9420-0.8311-0.2752 (  7688 PWs)   bands (ev):

   -33.2387   0.7374   3.6120   5.2630   7.1782   8.8567  10.4393  11.5659
    12.5337  14.9586  17.1231  18.5520

          k = 0.4987-0.6649-0.0590 (  7693 PWs)   bands (ev):

   -33.2350   2.5288   3.5399   5.5253   6.9770   7.4231   9.3747  10.1816
    11.3746  14.7881  16.6259  19.0499

          k = 0.0554-0.6649 0.0983 (  7652 PWs)   bands (ev):

   -33.2432   0.5458   1.5041   4.7070   7.5932  10.6426  13.2078  13.7653
    14.7025  16.5490  17.3665  17.6155

          k = 0.9420-0.6649-0.2163 (  7700 PWs)   bands (ev):

   -33.2372   1.7882   2.6251   6.0069   7.2585   8.2378   9.3138  11.5654
    12.1639  14.5045  17.3171  19.7786

          k =-0.6649 0.6649-0.0000 (  7696 PWs)   bands (ev):

   -33.2336   3.7586   4.3180   5.0712   5.1828   7.7585   8.6291  10.5413
    11.1675  13.7283  16.2488  20.0644

          k =-1.1082 0.6649 0.1573 (  7671 PWs)   bands (ev):

   -33.2409   0.9426   1.8418   5.2000   7.4116  10.7026  11.2679  11.5436
    13.5924  15.5305  18.3026  19.5300

          k =-1.1082 0.8311 0.2163 (  7683 PWs)   bands (ev):

   -33.2426  -0.2396   3.1621   5.0684   7.9419   9.6409  11.1341  12.5979
    13.7438  15.8788  18.7918  19.1187

          k =-0.2216 0.8311-0.0983 (  7664 PWs)   bands (ev):

   -33.2425   0.1713   2.3134   4.5473   9.2490   9.5738  12.0320  13.1603
    13.9814  15.6265  17.6811  18.0830

          k =-1.1082 0.9974 0.2752 (  7665 PWs)   bands (ev):

   -33.2465  -1.2014   2.8054   6.2537   8.4844   9.8449  11.8009  13.2529
    15.4542  16.4912  18.2192  18.8820

          k =-0.2216 0.9974-0.0393 (  7676 PWs)   bands (ev):

   -33.2465  -0.8848   1.9380   6.0697   8.3376  11.5836  13.2080  14.4258
    15.2275  15.9193  16.6609  16.9970

          k =-1.1082 1.1636 0.3342 (  7673 PWs)   bands (ev):

   -33.2505  -1.7522   1.9182   7.6462   8.8344  10.8507  13.4487  14.1758
    16.2275  16.6613  17.4031  17.6685

          k =-0.2216 1.1636 0.0197 (  7676 PWs)   bands (ev):

   -33.2504  -1.5797   1.4648   7.5455   8.7559  12.3389  14.3517  14.6272
    15.5490  16.4849  16.6054  17.3861

          k =-1.1082 0.0000-0.0786 (  7697 PWs)   bands (ev):

   -33.2521  -1.8756   1.4436   7.4347  10.5973  11.7051  13.9292  14.3465
    14.9068  16.5231  16.7905  17.3598

     the Fermi energy is    12.7858 ev

!    total energy              =     -39.37173032 Ry
     estimated scf accuracy    <          4.0E-09 Ry
     smearing contrib. (-TS)   =      -0.00000780 Ry
     internal energy E=F+TS    =     -39.37172252 Ry

     The total energy is F=E-TS. E is the sum of the following terms:
     one-electron contribution =      10.40819527 Ry
     hartree contribution      =       3.17516496 Ry
     xc contribution           =     -13.63053618 Ry
     ewald contribution        =     -39.32454658 Ry

     convergence has been achieved in   8 iterations

     Forces acting on atoms (cartesian axes, Ry/au):

     atom    1 type  1   force =     0.00000000    0.00000000    0.00000000
     atom    2 type  2   force =     0.00000000    0.00000000   -0.02046218
     atom    3 type  2   force =     0.00000000    0.00000000    0.02046218
     atom    4 type  2   force =    -0.00000000   -0.00000000    0.00000000
     The non-local contrib.  to forces
     atom    1 type  1   force =    -0.00000000    0.00000000   -0.00000000
     atom    2 type  2   force =     0.00000000   -0.00000000   -0.02692062
     atom    3 type  2   force =     0.00000000   -0.00000000    0.02692062
     atom    4 type  2   force =     0.00000000    0.00000000    0.00000000
     The ionic contribution  to forces
     atom    1 type  1   force =    -0.00000000   -0.00000000   -0.00000000
     atom    2 type  2   force =     0.00000000    0.00000000   -0.17657524
     atom    3 type  2   force =     0.00000000    0.00000000    0.17657524
     atom    4 type  2   force =     0.00000000    0.00000000   -0.00000000
     The local contribution  to forces
     atom    1 type  1   force =     0.00000000    0.00000000   -0.00000000
     atom    2 type  2   force =    -0.00000000   -0.00000000    0.17797158
     atom    3 type  2   force =     0.00000000    0.00000000   -0.17797158
     atom    4 type  2   force =    -0.00000000   -0.00000000   -0.00000000
     The core correction contribution to forces
     atom    1 type  1   force =     0.00000000    0.00000000    0.00000000
     atom    2 type  2   force =     0.00000000   -0.00000000    0.00506816
     atom    3 type  2   force =    -0.00000000   -0.00000000   -0.00506816
     atom    4 type  2   force =    -0.00000000   -0.00000000    0.00000000
     The Hubbard contrib.    to forces
     atom    1 type  1   force =     0.00000000    0.00000000    0.00000000
     atom    2 type  2   force =     0.00000000    0.00000000    0.00000000
     atom    3 type  2   force =     0.00000000    0.00000000    0.00000000
     atom    4 type  2   force =     0.00000000    0.00000000    0.00000000
     The SCF correction term to forces
     atom    1 type  1   force =    -0.00000000    0.00000000    0.00000000
     atom    2 type  2   force =    -0.00000000    0.00000000   -0.00000607
     atom    3 type  2   force =     0.00000000   -0.00000000    0.00000607
     atom    4 type  2   force =    -0.00000000    0.00000000   -0.00000000

[...]

   -34.9355  -2.7934   2.5596   4.8088   5.5047   8.7868   9.9219  12.7998
    12.8448  14.4407  16.0591  17.6841

          k =-0.4277 0.3208 0.2591 (  3746 PWs)   bands (ev):

   -34.9304  -1.0212   2.0122   4.1536   6.0166   7.5214   9.3103  10.3502
    11.2624  13.1305  15.5994  16.2595

          k = 0.4277 0.3208-0.0370 (  3748 PWs)   bands (ev):

   -34.9304  -1.3873   3.6328   4.6297   5.5219   6.5944   7.6742   9.0046
    11.0948  15.9679  17.1023  17.9539

          k = 0.0000 0.4811 0.1665 (  3767 PWs)   bands (ev):

   -34.9329  -1.6921   1.6849   3.4990   5.8473   8.7036  10.7751  12.5583
    13.3673  13.8806  14.7439  16.2665

          k =-0.4277 0.4811 0.3146 (  3738 PWs)   bands (ev):

   -34.9281   0.1619   2.1278   3.9625   5.2459   7.2960   8.9364   9.5017
    10.2348  12.8631  14.0303  15.7114

          k = 0.4277 0.4811 0.0185 (  3732 PWs)   bands (ev):

   -34.9282  -0.3818   3.6589   4.8578   4.9960   6.9100   7.1762   7.5982
     9.9456  14.9740  15.6930  17.7893

          k =-0.0000-0.6415-0.2221 (  3754 PWs)   bands (ev):

   -34.9318  -0.5249   0.3021   3.4363   5.5801   9.9991  10.9312  11.8287
    12.2058  14.5002  15.3066  15.5571

          k =-0.4277-0.6415-0.0740 (  3733 PWs)   bands (ev):

   -34.9272   0.9145   1.8636   4.2286   6.0438   6.2591   7.7054   8.5871
     9.8491  13.2187  14.7467  16.3175

          k = 0.1604-0.1604 0.0000 (  3746 PWs)   bands (ev):

   -34.9371  -3.2764   3.6123   3.8748   7.5400   7.6088  10.1853  10.8572
    13.9648  15.3005  15.9392  16.6401

          k =-0.2673-0.1604 0.1480 (  3761 PWs)   bands (ev):

   -34.9355  -2.7842   2.2047   5.7329   6.0820   7.7602   9.5901  11.2638
    14.4759  15.0697  15.6078  17.0684

          k = 0.5881-0.1604-0.1480 (  3750 PWs)   bands (ev):

   -34.9311  -0.6820   0.9664   3.6863   5.7211   8.9882   9.8138  10.6173
    12.0217  13.8509  16.3113  16.8528

          k =-0.2673-0.0000 0.2036 (  3774 PWs)   bands (ev):

   -34.9365  -2.8956   1.4892   5.4713   6.7467   9.4801   9.9413  12.5599
    13.2280  13.9794  16.7044  16.9052

          k = 0.5881 0.0000-0.0925 (  3756 PWs)   bands (ev):

   -34.9320  -0.9605   0.8794   3.4566   5.7830   8.3064  11.7712  12.3136
    12.7871  14.2951  14.9321  15.4920

          k = 0.1604 0.1604 0.1110 (  3762 PWs)   bands (ev):

   -34.9371  -3.2083   2.3636   5.3204   7.4736   7.4746  10.4968  11.0811
    13.9619  15.1801  15.6972  16.6506

          k =-0.2673 0.1604 0.2591 (  3760 PWs)   bands (ev):

   -34.9354  -2.5634   1.1736   5.5759   7.5617   7.7233  10.4897  11.9017
    14.0516  14.8283  15.1292  16.7231

          k = 0.5881 0.1604-0.0370 (  3742 PWs)   bands (ev):

   -34.9311  -0.7871   1.1681   3.5963   6.1774   7.8659  10.0246  10.3889
    12.6608  14.5662  15.5979  17.2006

          k = 0.1604 0.3208 0.1665 (  3756 PWs)   bands (ev):

   -34.9345  -2.4984   2.1483   4.9658   6.3868   7.9639   9.2071  11.4495
    14.3192  14.5385  15.4170  18.0157

          k =-0.2673 0.3208 0.3146 (  3756 PWs)   bands (ev):

   -34.9330  -1.7946   1.2065   5.0582   6.1313   8.5251  10.3924  11.4974
    12.9636  13.4004  15.3061  15.7510

          k = 0.5881 0.3208 0.0185 (  3739 PWs)   bands (ev):

   -34.9289  -0.1681   1.8135   4.1096   6.4695   7.7370   7.9167   7.9891
    10.7833  14.7993  15.3715  16.8937

          k = 0.1604-0.8019-0.2221 (  3747 PWs)   bands (ev):

   -34.9320  -1.3625   1.5660   3.4975   6.4069   8.8571   9.4105  11.4690
    12.2603  13.8189  15.8623  16.8286

          k =-0.2673-0.8019-0.0740 (  3753 PWs)   bands (ev):

   -34.9305  -0.6108   1.1483   3.4501   6.9975   7.9693   9.7354  10.8488
    11.9300  12.8212  14.8803  15.5176

          k = 0.5881-0.8019-0.3701 (  3734 PWs)   bands (ev):

   -34.9267   0.8649   2.7779   4.5494   5.0301   6.3375   7.2323   8.1745
     9.5294  13.2566  14.8562  16.8242

          k = 0.1604-0.6415-0.1665 (  3750 PWs)   bands (ev):

   -34.9309  -0.3182   0.5246   3.5819   5.8087   9.5240   9.9384  10.5265
    11.5301  13.8542  16.4170  16.6655

          k =-0.2673-0.6415-0.0185 (  3735 PWs)   bands (ev):

   -34.9295   0.0267   0.9738   3.6288   6.8874   8.0583   8.3331   9.0314
    11.5357  14.5177  15.1012  16.6943

          k = 0.5881-0.6415-0.3146 (  3727 PWs)   bands (ev):

   -34.9257   2.0205   3.0945   3.6842   4.2304   6.3747   7.2185   8.4457
     8.8851  13.2466  14.2027  16.2998

          k = 0.1604-0.4811-0.1110 (  3747 PWs)   bands (ev):

   -34.9320  -1.5698   2.1773   3.8685   5.6769   8.1356   9.0722  11.2156
    12.7133  14.3744  15.9157  17.6043

          k =-0.2673-0.4811 0.0370 (  3746 PWs)   bands (ev):

   -34.9306  -1.2635   2.7933   4.3482   5.7108   7.5804   7.6179   9.4759
    11.4167  15.5751  16.6857  17.7797

          k = 0.5881-0.4811-0.2591 (  3726 PWs)   bands (ev):

   -34.9267   1.1695   2.2804   4.1813   5.5364   5.8493   7.7384   8.9894
     9.2783  13.0601  14.6742  15.9971

          k = 0.1604-0.3208-0.0555 (  3768 PWs)   bands (ev):

   -34.9345  -2.6355   3.3593   4.6915   5.3043   8.1418   8.5954  11.0261
    14.3210  14.7462  16.1289  18.0648

          k =-0.2673-0.3208 0.0925 (  3760 PWs)   bands (ev):

   -34.9330  -2.2327   3.2086   5.2646   5.7394   6.5113   8.6484   9.9104
    12.8364  15.7455  17.1395  18.4603

          k = 0.5881-0.3208-0.2036 (  3737 PWs)   bands (ev):

   -34.9289   0.0417   1.4389   4.1774   5.9267   7.3401   8.4579   9.5354
    10.9215  12.4631  15.7141  17.7303

          k = 0.3208-0.3208 0.0000 (  3770 PWs)   bands (ev):

   -34.9321  -2.0299   4.3299   4.4974   5.6727   6.0669   8.2162   9.3552
    12.1376  16.4451  17.3998  18.7440

          k =-0.1069-0.3208 0.1480 (  3763 PWs)   bands (ev):

   -34.9351  -2.6469   2.2423   4.8804   6.0521   8.7718   9.0974  12.0396
    13.8399  14.9533  15.1277  17.9095

          k = 0.7484-0.3208-0.1480 (  3741 PWs)   bands (ev):

   -34.9292  -0.1246   1.4802   3.7207   6.5742   7.0725   9.0927   9.9412
    11.1235  12.3361  15.4053  16.1524

          k =-0.1069-0.1604 0.2036 (  3756 PWs)   bands (ev):

   -34.9376  -3.1769   1.3175   6.6810   7.2007   8.1266  11.2385  12.0266
    13.3272  14.5031  14.9593  17.1913

          k = 0.7484-0.1604-0.0925 (  3760 PWs)   bands (ev):

   -34.9314  -0.6034   0.6470   3.1017   7.1182   9.0614   9.5328  11.5165
    12.0691  13.9939  15.4417  16.1655

          k =-0.1069 0.0000 0.2591 (  3749 PWs)   bands (ev):

   -34.9387  -3.2767   0.6855   7.4731   7.8396   8.9066  11.9362  12.4547
    13.2516  13.2830  14.1452  16.6932

          k = 0.7484 0.0000-0.0370 (  3747 PWs)   bands (ev):

   -34.9323  -0.6988   0.2825   2.8515   7.4680   8.9538  10.8144  12.7410
    13.4777  13.8472  14.0558  15.6821

          k =-0.1069 0.1604 0.3146 (  3758 PWs)   bands (ev):

   -34.9376  -2.9442   0.4500   7.0197   7.9414   8.5000  12.1291  12.6083
    13.4090  13.8429  14.4668  15.7811

          k = 0.7484 0.1604 0.0185 (  3760 PWs)   bands (ev):

   -34.9314  -0.4612   0.4612   3.0102   7.6926   8.8204   9.1076  11.6067
    12.8866  14.0552  14.5838  16.1685

          k = 0.3208-0.9623-0.2221 (  3745 PWs)   bands (ev):

   -34.9321  -1.7555   2.0729   5.2674   5.6478   7.4497   9.3230  10.3858
    12.2253  14.2927  16.3728  16.8739

          k =-0.1069-0.9623-0.0740 (  3750 PWs)   bands (ev):

   -34.9350  -2.1897   0.5589   4.5999   8.4734   9.0402  11.1739  11.9102
    13.8971  14.0850  14.2748  15.5944

          k = 0.7484-0.9623-0.3701 (  3748 PWs)   bands (ev):

   -34.9292   0.0846   1.1882   3.5311   6.6352   7.5264   9.1551   9.7330
    11.2500  12.8707  14.8012  15.6063

          k = 0.3208-0.8019-0.1665 (  3739 PWs)   bands (ev):

   -34.9297  -0.5887   1.8237   3.8140   6.3119   7.2879   9.3436  10.1560
    11.1508  12.5757  15.4256  16.1537

          k =-0.1069-0.8019-0.0185 (  3761 PWs)   bands (ev):

   -34.9325  -1.0381   0.5712   3.0232   8.1534   9.2896   9.5003  12.6139
    13.0363  14.0144  14.6677  15.0785

          k = 0.7484-0.8019-0.3146 (  3727 PWs)   bands (ev):

   -34.9270   0.9533   2.3039   3.8080   5.3828   6.3483   8.4548   9.0835
     9.4274  13.1427  13.8528  15.8070

          k = 0.3208-0.6415-0.1110 (  3738 PWs)   bands (ev):

   -34.9287   0.2948   1.1871   3.9836   6.3268   7.4990   8.2766   9.0153
    10.9315  13.0726  15.8816  16.3551

          k =-0.1069-0.6415 0.0370 (  3747 PWs)   bands (ev):

   -34.9314  -0.4592   0.4713   3.2368   6.5360   8.1475  10.7244  11.3149
    13.1622  14.2729  15.2308  15.9781

          k = 0.7484-0.6415-0.2591 (  3724 PWs)   bands (ev):

   -34.9261   1.6821   2.6043   4.1570   4.6647   6.1336   7.5102   8.4351
     9.0071  13.3889  14.7591  15.7752

          k = 0.3208-0.4811-0.0555 (  3741 PWs)   bands (ev):

   -34.9297  -1.0000   2.9958   4.5311   5.7607   6.9517   7.6539   8.7915
    10.8320  15.2598  16.9113  17.4404

          k =-0.1069-0.4811 0.0925 (  3759 PWs)   bands (ev):

   -34.9325  -1.7087   2.1438   3.8123   5.5160   7.9600   9.9084  11.9590
    13.3225  14.2380  15.1888  17.2984

          k = 0.7484-0.4811-0.2036 (  3729 PWs)   bands (ev):

   -34.9270   0.7361   2.6495   3.9948   5.4807   6.1004   8.0005   8.7540
     9.6169  13.0532  14.7811  16.0050

          k = 0.4811-0.4811 0.0000 (  3722 PWs)   bands (ev):

   -34.9275  -0.0072   3.8394   4.4555   5.0017   6.9629   7.1846   7.2246
     9.6992  14.5055  15.2048  17.8557

          k = 0.0535-0.4811 0.1480 (  3758 PWs)   bands (ev):

   -34.9328  -1.7016   1.8092   3.5821   5.7435   8.4940  10.5009  12.6091
    13.1852  14.1905  14.5802  16.5901

          k = 0.9088-0.4811-0.1480 (  3738 PWs)   bands (ev):

   -34.9289  -0.2358   1.9747   3.9338   5.6817   7.4048   9.0365   9.8536
    10.7288  12.6055  14.7130  15.8554

          k = 0.0535-0.3208 0.2036 (  3766 PWs)   bands (ev):

   -34.9354  -2.6156   1.6419   4.7408   6.7661   9.3437   9.5364  12.7848
    13.2381  14.0559  15.8075  17.1794

          k = 0.9088-0.3208-0.0925 (  3752 PWs)   bands (ev):

   -34.9312  -1.1418   1.3368   4.5348   5.6533   8.6380  10.1747  11.4958
    11.7769  12.7204  14.3504  15.1993

          k = 0.0535-0.1604 0.2591 (  3758 PWs)   bands (ev):

   -34.9380  -3.1335   0.7858   7.0333   7.5521   8.7120  11.6316  12.5205
    13.0894  14.0070  14.5291  16.5655

          k = 0.9088-0.1604-0.0370 (  3756 PWs)   bands (ev):

   -34.9336  -1.7056   0.6740   4.0160   7.9338   9.0502  10.5701  12.2754
    13.2413  14.0273  14.4429  15.1615

          k = 0.0535-0.0000 0.3146 (  3743 PWs)   bands (ev):

   -34.9390  -3.2341   0.2490   8.3535   8.4590   8.7479  11.8561  12.4720
    13.3308  13.5849  13.6647  16.2041

          k = 0.9088-0.0000 0.0185 (  3756 PWs)   bands (ev):

   -34.9345  -1.9117   0.4731   3.8287   9.1054   9.7063  10.4322  12.4167
    13.0393  13.2331  15.2393  15.4678

          k = 0.0535-1.1227-0.0740 (  3755 PWs)   bands (ev):

   -34.9379  -2.9191   0.1254   6.9041   8.5616   9.3463  12.0614  12.8144
    12.8520  14.0952  14.3112  15.0027

          k = 0.9088-1.1227-0.3701 (  3755 PWs)   bands (ev):

   -34.9336  -1.7551   0.7829   4.0360   7.9484   8.7398  10.6980  11.8828
    13.4180  13.9765  14.7772  15.1682

          k = 0.0535-0.9623-0.0185 (  3748 PWs)   bands (ev):

   -34.9354  -2.2046   0.3678   4.5142   9.1246   9.4996  11.0180  12.3099
    13.1378  13.2944  14.8995  15.9429

          k = 0.9088-0.9623-0.3146 (  3750 PWs)   bands (ev):

   -34.9312  -1.2269   1.5387   4.5788   5.6818   8.3279   9.8935  11.1621
    11.7043  12.9881  14.8133  15.6484

          k = 0.4811-0.8019-0.1110 (  3741 PWs)   bands (ev):

   -34.9275   0.6008   2.2206   3.8309   5.1561   6.9424   9.0648   9.0906
     9.7491  13.1961  13.4853  15.7115

          k = 0.0535-0.8019 0.0370 (  3754 PWs)   bands (ev):

   -34.9328  -1.1268   0.5318   2.9737   8.0076   9.4527  10.1114  12.4931
    13.4993  13.9838  14.1449  15.4545

          k = 0.9088-0.8019-0.2591 (  3744 PWs)   bands (ev):

   -34.9289  -0.3380   2.1900   4.0331   5.7121   7.1583   8.8155   9.6572
    10.6500  12.7622  15.1459  16.1636

          k = 0.4811-0.6415-0.0555 (  3734 PWs)   bands (ev):

   -34.9266   1.2769   2.2669   4.1615   5.5175   5.9741   7.6677   8.4548
     9.5056  13.0345  14.2900  16.6604

          k = 0.0535-0.6415 0.0925 (  3753 PWs)   bands (ev):

   -34.9317  -0.5206   0.3757   3.2590   6.1327   8.6540  11.4408  11.9485
    12.5565  14.5344  15.1970  15.3878

          k = 0.9088-0.6415-0.2036 (  3743 PWs)   bands (ev):

   -34.9279   0.6074   1.4408   4.4099   5.8314   6.8020   7.7787   9.5237
    10.3431  12.3912  15.3548  17.2537

          k =-0.6415 0.6415-0.0000 (  3736 PWs)   bands (ev):

   -34.9256   2.1923   3.3405   3.4849   4.0456   6.5391   6.6451   8.7629
     9.2391  12.2482  13.9027  17.6586

          k =-1.0692 0.6415 0.1480 (  3746 PWs)   bands (ev):

   -34.9303  -0.1582   0.6971   3.6924   5.9739   9.0892   9.2881   9.7956
    11.6660  13.2390  16.3445  17.1203

          k =-1.0692 0.8019 0.2036 (  3750 PWs)   bands (ev):

   -34.9313  -1.2410   1.8317   3.6967   6.3492   8.0871   9.1606  10.7906
    11.9703  13.5240  16.7622  16.8646

          k =-0.2138 0.8019-0.0925 (  3748 PWs)   bands (ev):

   -34.9313  -0.8666   1.0287   3.3146   7.6009   7.9373   9.9095  11.4677
    11.8814  13.3145  15.2495  16.1508

          k =-1.0692 0.9623 0.2591 (  3757 PWs)   bands (ev):

   -34.9338  -2.1387   1.4444   4.9698   6.9710   7.7698  10.0170  11.3907
    13.6499  13.9793  16.0340  16.4841

          k =-0.2138 0.9623-0.0370 (  3754 PWs)   bands (ev):

   -34.9338  -1.8511   0.6643   4.8218   6.8427   9.3946  11.0845  12.2834
    13.3512  13.4188  14.4484  15.1812

          k =-1.0692 1.1227 0.3146 (  3759 PWs)   bands (ev):

   -34.9363  -2.6552   0.6472   6.2975   7.2991   8.5596  11.5478  12.1951
    13.7078  14.5535  15.4000  15.7136

          k =-0.2138 1.1227 0.0185 (  3760 PWs)   bands (ev):

   -34.9363  -2.4985   0.2368   6.2172   7.2255   9.8922  11.9573  12.3623
    13.8031  14.1152  14.4625  15.6169

          k =-1.0692-0.0000-0.0740 (  3750 PWs)   bands (ev):

   -34.9373  -2.7727   0.2165   6.0609   9.0139   9.3196  11.9059  12.2790
    12.6837  14.4009  14.5257  15.3919

     the Fermi energy is    10.9545 ev

!    total energy              =     -39.54660949 Ry
     estimated scf accuracy    <          1.2E-11 Ry
     smearing contrib. (-TS)   =      -0.00015813 Ry
     internal energy E=F+TS    =     -39.54645136 Ry

     The total energy is F=E-TS. E is the sum of the following terms:
     one-electron contribution =       8.03369179 Ry
     hartree contribution      =       3.32556699 Ry
     xc contribution           =     -13.31958876 Ry
     ewald contribution        =     -37.58612138 Ry

     convergence has been achieved in   8 iterations

     Forces acting on atoms (cartesian axes, Ry/au):

     atom    1 type  1   force =     0.00000000    0.00000000    0.00000000
     atom    2 type  2   force =    -0.00000000    0.00000000   -0.00000867
     atom    3 type  2   force =    -0.00000000    0.00000000    0.00000867
     atom    4 type  2   force =     0.00000000    0.00000000    0.00000000
     The non-local contrib.  to forces
     atom    1 type  1   force =     0.00000000    0.00000000   -0.00000000
     atom    2 type  2   force =    -0.00000000    0.00000000    0.00537684
     atom    3 type  2   force =     0.00000000   -0.00000000   -0.00537684
     atom    4 type  2   force =     0.00000000    0.00000000   -0.00000000
     The ionic contribution  to forces
     atom    1 type  1   force =    -0.00000000    0.00000000   -0.00000000
     atom    2 type  2   force =    -0.00000000   -0.00000000   -0.16994310
     atom    3 type  2   force =     0.00000000    0.00000000    0.16994310
     atom    4 type  2   force =    -0.00000000   -0.00000000    0.00000000
     The local contribution  to forces
     atom    1 type  1   force =     0.00000000   -0.00000000    0.00000000
     atom    2 type  2   force =     0.00000000    0.00000000    0.16232394
     atom    3 type  2   force =    -0.00000000   -0.00000000   -0.16232394
     atom    4 type  2   force =     0.00000000   -0.00000000    0.00000000
     The core correction contribution to forces
     atom    1 type  1   force =     0.00000000    0.00000000    0.00000000
     atom    2 type  2   force =    -0.00000000    0.00000000    0.00223463
     atom    3 type  2   force =    -0.00000000    0.00000000   -0.00223463
     atom    4 type  2   force =    -0.00000000    0.00000000    0.00000000
     The Hubbard contrib.    to forces
     atom    1 type  1   force =     0.00000000    0.00000000    0.00000000
     atom    2 type  2   force =     0.00000000    0.00000000    0.00000000
     atom    3 type  2   force =     0.00000000    0.00000000    0.00000000
     atom    4 type  2   force =     0.00000000    0.00000000    0.00000000
     The SCF correction term to forces
     atom    1 type  1   force =    -0.00000000    0.00000000   -0.00000000
     atom    2 type  2   force =    -0.00000000   -0.00000000   -0.00000097
     atom    3 type  2   force =     0.00000000    0.00000000    0.00000097
     atom    4 type  2   force =     0.00000000   -0.00000000    0.00000000

     Total force =     0.000012     Total SCF correction =     0.000001
     SCF correction compared to forces is large: reduce conv_thr to get better values


     Computing stress (Cartesian axis) and pressure

          total   stress  (Ry/bohr**3)                   (kbar)     P=      500.13
   0.00340032  -0.00000000  -0.00000000          500.20       -0.00       -0.00
  -0.00000000   0.00340032  -0.00000000           -0.00      500.20       -0.00
  -0.00000000   0.00000000   0.00339888           -0.00        0.00      499.99


     Writing all to output data dir ./output/LiSi.save/

     init_run     :      4.07s CPU      7.79s WALL (       2 calls)
     electrons    :    270.11s CPU    300.47s WALL (      14 calls)
     update_pot   :      7.26s CPU      7.37s WALL (      12 calls)
     forces       :      6.40s CPU      6.51s WALL (      14 calls)
     stress       :     32.18s CPU     33.34s WALL (      14 calls)

     Called by init_run:
     wfcinit      :      2.54s CPU      5.91s WALL (       2 calls)
     potinit      :      0.47s CPU      0.66s WALL (       2 calls)
     hinit0       :      0.98s CPU      1.11s WALL (       2 calls)

     Called by electrons:
     c_bands      :    232.71s CPU    258.42s WALL (     101 calls)
     sum_band     :     34.99s CPU     38.96s WALL (     101 calls)
     v_of_rho     :      2.55s CPU      3.26s WALL (     111 calls)
     mix_rho      :      0.12s CPU      0.16s WALL (     101 calls)

     Called by c_bands:
     init_us_2    :      4.62s CPU      5.11s WALL (   19720 calls)
     init_us_2:cp :      4.59s CPU      5.09s WALL (   19720 calls)
     cegterg      :    220.84s CPU    243.72s WALL (    8585 calls)

     Called by *egterg:
     cdiaghg      :      5.25s CPU      5.58s WALL (   33951 calls)
     h_psi        :    205.38s CPU    230.67s WALL (   35481 calls)
     g_psi        :      0.59s CPU      0.61s WALL (   26726 calls)

     Called by h_psi:
     h_psi:calbec :      7.64s CPU      8.37s WALL (   35481 calls)
     vloc_psi     :    191.02s CPU    215.13s WALL (   35481 calls)
     add_vuspsi   :      6.28s CPU      6.69s WALL (   35481 calls)

     General routines
     calbec       :      9.45s CPU     10.22s WALL (   41431 calls)
     fft          :      1.89s CPU      2.81s WALL (    1462 calls)
     ffts         :      0.06s CPU      0.08s WALL (     101 calls)
     fftw         :    195.24s CPU    220.08s WALL (  703910 calls)

     Parallel routines

     PWSCF        :   5m20.42s CPU   5m56.44s WALL


   This run was terminated on:  11:17:25  29Dec2024            

=------------------------------------------------------------------------------=
   JOB DONE.
=------------------------------------------------------------------------------=
