
     Program PWSCF v.7.2 starts on 29Dec2024 at 18: 5:42 

     This program is part of the open-source Quantum ESPRESSO suite
     for quantum simulation of materials; please cite
         "P. Giannozzi et al., J. Phys.:Condens. Matter 21 395502 (2009);
         "P. Giannozzi et al., J. Phys.:Condens. Matter 29 465901 (2017);
         "P. Giannozzi et al., J. Chem. Phys. 152 154105 (2020);
          URL http://www.quantum-espresso.org", 
     in publications or presentations arising from this work. More details at
     http://www.quantum-espresso.org/quote

     Parallel version (MPI & OpenMP), running on       8 processor cores
     Number of MPI processes:                 8
     Threads/MPI process:                     1

     MPI processes distributed on     1 nodes
     481710 MiB available memory on the printing compute node when the environment starts

     Waiting for input...
     Reading input from standard input

     Current dimensions of program PWSCF are:
     Max number of different atomic species (ntypx) = 10
     Max number of k-points (npk) =  40000
     Max angular momentum in pseudopotentials (lmaxx) =  4

     R & G space division:  proc/nbgrp/npool/nimage =       8
     Subspace diagonalization in iterative solution of the eigenvalue problem:
     a serial algorithm will be used


     Parallelization info
     --------------------
     sticks:   dense  smooth     PW     G-vecs:    dense   smooth      PW
     Min         464     464    128                21132    21132    3095
     Max         466     466    129                21133    21133    3099
     Sum        3721    3721   1027               169057   169057   24769

     Using Slab Decomposition



     bravais-lattice index     =            5
     lattice parameter (alat)  =      12.0883  a.u.
     unit-cell volume          =    1747.2745 (a.u.)^3
     number of atoms/cell      =            8
     number of atomic types    =            2
     number of electrons       =        30.00
     number of Kohn-Sham states=           19
     kinetic-energy cutoff     =      80.0000  Ry
     charge density cutoff     =     320.0000  Ry
     scf convergence threshold =      1.0E-08
     mixing beta               =       0.7000
     number of iterations used =            8  plain     mixing
     energy convergence thresh.=      1.0E-04
     force convergence thresh. =      1.0E-03
     press convergence thresh. =      1.0E+00
     Exchange-correlation= PBE
                           (   1   4   3   4   0   0   0)
     nstep                     =           50


     celldm(1)=  12.088341  celldm(2)=   0.000000  celldm(3)=   0.000000
     celldm(4)=  -0.082585  celldm(5)=   0.000000  celldm(6)=   0.000000

     crystal axes: (cart. coord. in units of alat)
               a(1) = (   0.735726  -0.424771   0.527519 )  
               a(2) = (   0.000000   0.849543   0.527519 )  
               a(3) = (  -0.735726  -0.424771   0.527519 )  

     reciprocal axes: (cart. coord. in units 2 pi/alat)
               b(1) = (  0.679601 -0.392368  0.631888 )  
               b(2) = (  0.000000  0.784736  0.631888 )  
               b(3) = ( -0.679601 -0.392368  0.631888 )  


     PseudoPot. # 1 for Li read from file:
     ../pseudo/Li_ONCV_PBE_sr.upf
     MD5 check sum: 50ff420e78310ffa21704f3361e624a4
     Pseudo is Norm-conserving, Zval =  3.0
     Generated using ONCVPSP code by D. R. Hamann
     Using radial grid of 1944 points,  4 beta functions with: 
                l(1) =   0
                l(2) =   0
                l(3) =   1
                l(4) =   1

     PseudoPot. # 2 for Si read from file:
     ../pseudo/Si_ONCV_PBE_sr.upf
     MD5 check sum: e543d271109d17c80368dfa7c482276d
     Pseudo is Norm-conserving + core correction, Zval =  4.0
     Generated using ONCVPSP code by D. R. Hamann
     Using radial grid of 1510 points,  6 beta functions with: 
                l(1) =   0
                l(2) =   0
                l(3) =   1
                l(4) =   1
                l(5) =   2
                l(6) =   2

     atomic species   valence    mass     pseudopotential
        Li             3.00     6.94100     Li( 1.00)
        Si             4.00    28.08550     Si( 1.00)

      6 Sym. Ops., with inversion, found



   Cartesian axes

     site n.     atom                  positions (alat units)
         1           Li  tau(   1) = (   0.0000000  -0.0000000   0.3512140  )
         2           Li  tau(   2) = (  -0.0000000  -0.0000000   1.2313443  )
         3           Si  tau(   3) = (   0.5119055  -1.0371862   1.0272781  )
         4           Si  tau(   4) = (  -1.2476313  -0.2371283   0.5552801  )
         5           Si  tau(   5) = (  -0.0934489  -0.3123982   1.0272781  )
         6           Si  tau(   6) = (  -0.6422768  -0.9619163   0.5552801  )
         7           Si  tau(   7) = (  -0.4184566  -1.1990445   1.0272781  )
         8           Si  tau(   8) = (  -0.3172692  -0.0752699   0.5552801  )

     number of k points=    40  Marzari-Vanderbilt smearing, width (Ry)=  0.0200
                       cart. coord. in units 2pi/alat
        k(    1) = (   0.0000000   0.0000000   0.0000000), wk =   0.0092593
        k(    2) = (  -0.1132668  -0.0653946   0.1053147), wk =   0.0555556
        k(    3) = (  -0.2265337  -0.1307893   0.2106294), wk =   0.0555556
        k(    4) = (   0.3398005   0.1961839  -0.3159441), wk =   0.0277778
        k(    5) = (  -0.1132668   0.0653946   0.2106294), wk =   0.0555556
        k(    6) = (  -0.2265337   0.0000000   0.3159441), wk =   0.0555556
        k(    7) = (   0.3398005   0.3269732  -0.2106294), wk =   0.0555556
        k(    8) = (   0.2265337   0.2615786  -0.1053147), wk =   0.0555556
        k(    9) = (   0.1132668   0.1961839   0.0000000), wk =   0.0555556
        k(   10) = (  -0.2265337   0.1307893   0.4212588), wk =   0.0555556
        k(   11) = (   0.3398005   0.4577625  -0.1053147), wk =   0.0555556
        k(   12) = (   0.2265337   0.3923678   0.0000000), wk =   0.0555556
        k(   13) = (   0.3398005  -0.1961839  -0.6318883), wk =   0.0277778
        k(   14) = (  -0.0000000   0.0000000   0.3159441), wk =   0.0185185
        k(   15) = (  -0.1132668  -0.0653946   0.4212588), wk =   0.0555556
        k(   16) = (   0.4530673   0.2615786  -0.1053147), wk =   0.0555556
        k(   17) = (   0.3398005   0.1961839   0.0000000), wk =   0.0555556
        k(   18) = (   0.2265337   0.1307893   0.1053147), wk =   0.0555556
        k(   19) = (  -0.1132668   0.0653946   0.5265736), wk =   0.0555556
        k(   20) = (   0.4530673   0.3923678   0.0000000), wk =   0.0555556
        k(   21) = (   0.3398005   0.3269732   0.1053147), wk =   0.0555556
        k(   22) = (   0.2265337   0.2615786   0.2106294), wk =   0.0555556
        k(   23) = (   0.4530673  -0.2615786  -0.5265736), wk =   0.0555556
        k(   24) = (   0.3398005  -0.3269732  -0.4212588), wk =   0.0555556
        k(   25) = (   0.2265337  -0.3923678  -0.3159441), wk =   0.0555556
        k(   26) = (   0.3398005  -0.1961839  -0.3159441), wk =   0.0555556
        k(   27) = (  -0.0000000   0.0000000   0.6318883), wk =   0.0185185
        k(   28) = (   0.5663342   0.3269732   0.1053147), wk =   0.0555556
        k(   29) = (   0.4530673   0.2615786   0.2106294), wk =   0.0555556
        k(   30) = (   0.5663342  -0.3269732  -0.4212588), wk =   0.0555556
        k(   31) = (   0.4530673  -0.3923678  -0.3159441), wk =   0.0555556
        k(   32) = (   0.0000000   0.0000000  -0.9478324), wk =   0.0092593
        k(   33) = (  -0.2265337   0.0000000  -0.3159441), wk =   0.0555556
        k(   34) = (   0.3398005  -0.3269732   0.2106294), wk =   0.0555556
        k(   35) = (   0.2265337  -0.2615786   0.1053147), wk =   0.0555556
        k(   36) = (   0.3398005  -0.4577625   0.1053147), wk =   0.0555556
        k(   37) = (   0.4530673  -0.3923678  -0.0000000), wk =   0.0555556
        k(   38) = (   0.3398005  -0.3269732  -0.1053147), wk =   0.0555556
        k(   39) = (   0.2265337  -0.2615786  -0.2106294), wk =   0.0555556
        k(   40) = (   0.3398005   0.3269732   0.4212588), wk =   0.0555556

     Dense  grid:   169057 G-vectors     FFT dimensions: (  72,  72,  72)

     Estimated max dynamical RAM per process >      63.65 MB

     Estimated total dynamical RAM >     509.19 MB

     Initial potential from superposition of free atoms

     starting charge      29.9872, renormalised to      30.0000
     Starting wfcs are   28 randomized atomic wfcs

     total cpu time spent up to now is        4.1 secs

     Self-consistent Calculation

     iteration #  1     ecut=    80.00 Ry     beta= 0.70
     Davidson diagonalization with overlap
     ethr =  1.00E-02,  avg # of iterations =  2.0

     Threshold (ethr) on eigenvalues was too large:
     Diagonalizing with lowered threshold

     Davidson diagonalization with overlap
     ethr =  3.24E-04,  avg # of iterations =  4.0

     total cpu time spent up to now is       11.2 secs

     total energy              =     -78.62180737 Ry
     estimated scf accuracy    <       0.13254564 Ry

     iteration #  2     ecut=    80.00 Ry     beta= 0.70
     Davidson diagonalization with overlap
     ethr =  4.42E-04,  avg # of iterations =  2.0

     total cpu time spent up to now is       14.7 secs

     total energy              =     -78.65139094 Ry
     estimated scf accuracy    <       0.02696765 Ry

     iteration #  3     ecut=    80.00 Ry     beta= 0.70
     Davidson diagonalization with overlap
     ethr =  8.99E-05,  avg # of iterations =  2.0

     total cpu time spent up to now is       18.0 secs

     total energy              =     -78.65649040 Ry
     estimated scf accuracy    <       0.00071355 Ry

     iteration #  4     ecut=    80.00 Ry     beta= 0.70
     Davidson diagonalization with overlap
     c_bands:  1 eigenvalues not converged
     c_bands:  1 eigenvalues not converged
     ethr =  2.38E-06,  avg # of iterations =  8.4

     total cpu time spent up to now is       23.2 secs

     total energy              =     -78.65682965 Ry
     estimated scf accuracy    <       0.00016969 Ry

     iteration #  5     ecut=    80.00 Ry     beta= 0.70
     Davidson diagonalization with overlap
     ethr =  5.66E-07,  avg # of iterations =  3.2

     total cpu time spent up to now is       26.7 secs

     total energy              =     -78.65685156 Ry
     estimated scf accuracy    <       0.00002310 Ry

     iteration #  6     ecut=    80.00 Ry     beta= 0.70
     Davidson diagonalization with overlap
     ethr =  7.70E-08,  avg # of iterations =  4.5

     total cpu time spent up to now is       30.8 secs

     total energy              =     -78.65686156 Ry
     estimated scf accuracy    <       0.00000862 Ry

     iteration #  7     ecut=    80.00 Ry     beta= 0.70
     Davidson diagonalization with overlap
     ethr =  2.87E-08,  avg # of iterations =  2.7

     total cpu time spent up to now is       34.2 secs

     total energy              =     -78.65686349 Ry
     estimated scf accuracy    <       0.00000001 Ry

     iteration #  8     ecut=    80.00 Ry     beta= 0.70
     Davidson diagonalization with overlap
     ethr =  3.60E-11,  avg # of iterations = 11.8

     total cpu time spent up to now is       42.0 secs

     total energy              =     -78.65686363 Ry
     estimated scf accuracy    <       0.00000009 Ry

     iteration #  9     ecut=    80.00 Ry     beta= 0.70
     Davidson diagonalization with overlap
     ethr =  3.60E-11,  avg # of iterations =  3.1

     total cpu time spent up to now is       46.0 secs

     End of self-consistent calculation

          k = 0.0000 0.0000 0.0000 ( 21091 PWs)   bands (ev):

   -44.7260 -44.7260  -6.7624  -4.7146  -4.7146  -4.5019  -4.3593  -4.3593
    -0.6059   0.0136   0.0136   0.2861   0.6646   0.6646   1.5141   1.5141
     1.5505   1.9435   1.9435

          k =-0.1133-0.0654 0.1053 ( 21107 PWs)   bands (ev):

   -44.7260 -44.7260  -6.6909  -5.0238  -4.6772  -4.5542  -4.3487  -4.1548
    -0.5482  -0.2411   0.0305   0.4958   0.6043   0.7672   1.2333   1.3975
     1.7317   2.0555   2.2479

          k =-0.2265-0.1308 0.2106 ( 21104 PWs)   bands (ev):

   -44.7260 -44.7260  -6.4917  -5.5084  -4.6042  -4.5164  -4.3445  -4.0621
    -0.7423  -0.0603   0.1498   0.2394   0.6797   0.8605   1.0028   1.6789
     1.8566   1.9285   2.5480

          k = 0.3398 0.1962-0.3159 ( 21146 PWs)   bands (ev):

   -44.7260 -44.7260  -6.3081  -5.7991  -4.5834  -4.4224  -4.3938  -4.0598
    -0.8390   0.0896   0.0924   0.2253   0.6461   0.7383   1.3760   1.5505
     1.9005   1.9366   2.4275

          k =-0.1133 0.0654 0.2106 ( 21131 PWs)   bands (ev):

   -44.7260 -44.7260  -6.6124  -5.0920  -4.8664  -4.6129  -4.2321  -4.0993
    -0.4690  -0.1131   0.0019   0.3882   0.6695   0.9130   1.0101   1.3354
     1.5279   2.0925   2.7027

          k =-0.2265 0.0000 0.3159 ( 21112 PWs)   bands (ev):

   -44.7260 -44.7260  -6.4087  -5.4848  -4.8620  -4.6012  -4.1911  -4.0813
    -0.4371  -0.1997   0.0869   0.1404   0.6622   0.8733   1.4288   1.5475
     1.7355   2.1016   2.4230

          k = 0.3398 0.3270-0.2106 ( 21099 PWs)   bands (ev):

   -44.7260 -44.7260  -6.2358  -5.7495  -4.8059  -4.5368  -4.2923  -4.0623
    -0.6157  -0.0846   0.0989   0.1497   0.5621   0.9387   1.3995   1.6078
     1.9377   2.0335   2.5623

          k = 0.2265 0.2616-0.1053 ( 21098 PWs)   bands (ev):

   -44.7260 -44.7260  -6.4327  -5.4422  -4.8604  -4.4486  -4.4073  -4.0259
    -0.6430  -0.2271   0.1245   0.3335   0.6150   0.7905   1.1409   1.6827
     1.9614   2.0963   2.6335

          k = 0.1133 0.1962 0.0000 ( 21091 PWs)   bands (ev):

   -44.7260 -44.7260  -6.6267  -4.9834  -4.9418  -4.5646  -4.3040  -4.0760
    -0.5017  -0.3906  -0.0342   0.3334   0.6583   0.8714   1.4617   1.6542
     1.9071   1.9427   2.1308

          k =-0.2265 0.1308 0.4213 ( 21113 PWs)   bands (ev):

   -44.7260 -44.7260  -6.1998  -5.4761  -5.1841  -4.7086  -4.2114  -4.0187
    -0.4609  -0.1823   0.0401   0.2173   0.7915   1.0773   1.3850   1.5248
     1.9099   2.1100   2.5523

          k = 0.3398 0.4578-0.1053 ( 21121 PWs)   bands (ev):

   -44.7260 -44.7260  -6.0275  -5.6285  -5.2103  -4.7390  -4.2175  -4.0648
    -0.3680  -0.2144   0.0874   0.1592   0.5722   0.9920   1.3121   1.8321
     2.0585   2.5774   2.6405

          k = 0.2265 0.3924 0.0000 ( 21107 PWs)   bands (ev):

   -44.7260 -44.7260  -6.2424  -5.3342  -5.2690  -4.5936  -4.3635  -3.9945
    -0.5574  -0.1345   0.1266   0.2950   0.6426   0.7484   1.0202   1.8513
     2.1056   2.4641   2.7375

          k = 0.3398-0.1962-0.6319 ( 21140 PWs)   bands (ev):

   -44.7260 -44.7260  -5.7827  -5.6174  -5.4614  -4.8623  -4.1902  -4.0654
    -0.3965  -0.2320   0.0203   0.2952   0.7929   0.8360   1.4620   1.8103
     2.0763   2.6094   2.6808

          k =-0.0000 0.0000 0.3159 ( 21099 PWs)   bands (ev):

   -44.7260 -44.7260  -6.5293  -5.0564  -5.0564  -4.6619  -4.1642  -4.1642
    -0.3572   0.2508   0.2508   0.4306   0.6114   0.6114   1.0724   1.0724
     1.2656   2.4566   2.6997

          k =-0.1133-0.0654 0.4213 ( 21110 PWs)   bands (ev):

   -44.7260 -44.7260  -6.3248  -5.4571  -4.9091  -4.6933  -4.3305  -4.0754
    -0.3486   0.0487   0.3085   0.4407   0.4796   1.0240   1.1322   1.3481
     1.5362   2.2263   2.4397

          k = 0.4531 0.2616-0.1053 ( 21083 PWs)   bands (ev):

   -44.7260 -44.7260  -6.1646  -5.6990  -4.7243  -4.6544  -4.5617  -4.0404
    -0.5095   0.0451   0.1408   0.4753   0.4853   0.8799   1.4020   1.5330
     1.7518   2.2096   2.4511

          k = 0.3398 0.1962 0.0000 ( 21127 PWs)   bands (ev):

   -44.7260 -44.7260  -6.3677  -5.3921  -4.8272  -4.7337  -4.4000  -4.0159
    -0.5474  -0.1426   0.1320   0.1780   0.6787   0.7878   1.3633   1.6407
     1.8173   2.3250   2.7055

          k = 0.2265 0.1308 0.1053 ( 21115 PWs)   bands (ev):

   -44.7260 -44.7260  -6.5551  -5.0123  -4.9496  -4.7863  -4.2259  -4.0350
    -0.4365  -0.3270  -0.1388   0.2067   0.6800   0.9861   1.4138   1.6723
     1.8438   2.0625   2.4252

          k =-0.1133 0.0654 0.5266 ( 21121 PWs)   bands (ev):

   -44.7260 -44.7260  -6.1215  -5.4217  -5.1620  -4.7431  -4.4122  -4.1484
    -0.2969   0.0991   0.1727   0.4931   0.8417   0.8713   1.2719   1.5000
     1.7791   2.1574   2.4479

          k = 0.4531 0.3924 0.0000 ( 21111 PWs)   bands (ev):

   -44.7260 -44.7260  -5.9598  -5.5777  -5.1338  -4.7525  -4.5136  -4.1415
    -0.3039  -0.0978   0.1610   0.4413   0.5908   0.7954   1.5931   1.9305
     2.1083   2.2049   2.6663

          k = 0.3398 0.3270 0.1053 ( 21107 PWs)   bands (ev):

   -44.7260 -44.7260  -6.1707  -5.3076  -5.2209  -4.7245  -4.4563  -4.0512
    -0.3839  -0.2275   0.0637   0.2522   0.3739   1.1175   1.4101   2.1137
     2.1729   2.2595   2.5660

          k = 0.2265 0.2616 0.2106 ( 21116 PWs)   bands (ev):

   -44.7260 -44.7260  -6.3546  -5.4090  -4.9311  -4.7442  -4.2357  -4.0245
    -0.4429  -0.3369  -0.0218   0.0822   0.5161   1.1702   1.4632   1.9167
     1.9822   2.1535   2.3513

          k = 0.4531-0.2616-0.5266 ( 21126 PWs)   bands (ev):

   -44.7260 -44.7260  -5.7159  -5.5441  -5.4338  -4.8776  -4.3618  -4.2180
    -0.4156  -0.1464   0.0362   0.2248   0.7893   1.2839   1.6155   1.8495
     2.1727   2.4957   2.7758

          k = 0.3398-0.3270-0.4213 ( 21113 PWs)   bands (ev):

   -44.7260 -44.7260  -5.9568  -5.5778  -5.1944  -4.8192  -4.3649  -4.0878
    -0.4800  -0.3529  -0.0183   0.2738   0.7743   1.1650   1.5398   1.9418
     2.2236   2.4581   2.7675

          k = 0.2265-0.3924-0.3159 ( 21124 PWs)   bands (ev):

   -44.7260 -44.7260  -6.1643  -5.7012  -4.9024  -4.6628  -4.3327  -4.0003
    -0.5700  -0.3671  -0.0101   0.3279   0.5303   1.2788   1.3632   1.5010
     2.1647   2.3704   2.6825

          k = 0.3398-0.1962-0.3159 ( 21119 PWs)   bands (ev):

   -44.7260 -44.7260  -6.1459  -5.3902  -5.1860  -4.8485  -4.2369  -4.0838
    -0.5070  -0.3008  -0.1145   0.3952   0.4528   1.3607   1.5596   1.8080
     2.0156   2.4916   2.7173

          k =-0.0000 0.0000 0.6319 ( 21087 PWs)   bands (ev):

   -44.7260 -44.7260  -5.9316  -5.2321  -5.2321  -4.9526  -4.4650  -4.4650
    -0.5014   0.3450   0.5773   0.5773   0.7269   1.0807   1.0807   1.8936
     1.8936   2.4437   2.6138

          k = 0.5663 0.3270 0.1053 ( 21129 PWs)   bands (ev):

   -44.7260 -44.7260  -5.7662  -5.4521  -4.9784  -4.9552  -4.8077  -4.3971
    -0.5898   0.0089   0.3067   0.7030   0.8189   1.0499   1.8111   1.9873
     2.2116   2.3837   2.6147

          k = 0.4531 0.2616 0.2106 ( 21115 PWs)   bands (ev):

   -44.7260 -44.7260  -5.9656  -5.2760  -5.1728  -4.9791  -4.5460  -4.2387
    -0.5699  -0.1306   0.1458   0.1986   0.6670   1.3529   1.7478   2.1222
     2.3300   2.5813   2.6144

          k = 0.5663-0.3270-0.4213 ( 21124 PWs)   bands (ev):

   -44.7260 -44.7260  -5.5325  -5.3615  -5.3313  -4.9198  -4.7283  -4.5792
    -0.7193  -0.2276   0.4574   0.5874   1.1288   1.4834   1.5898   2.2049
     2.4645   2.4837   2.7778

          k = 0.4531-0.3924-0.3159 ( 21132 PWs)   bands (ev):

   -44.7260 -44.7260  -5.7492  -5.4473  -5.2182  -4.9243  -4.5833  -4.3690
    -0.6833  -0.1682   0.1571   0.3305   0.8543   1.5627   1.9091   1.9703
     2.5017   2.5513   2.5949

          k = 0.0000 0.0000-0.9478 ( 21108 PWs)   bands (ev):

   -44.7260 -44.7260  -5.4026  -5.2252  -5.0604  -5.0604  -4.9191  -4.9191
    -0.8158  -0.3928   1.0546   1.0546   1.0656   1.3342   1.3342   2.5429
     2.5429   2.8162   2.8880

          k =-0.2265 0.0000-0.3159 ( 21112 PWs)   bands (ev):

   -44.7260 -44.7260  -6.4086  -5.4898  -4.8102  -4.6410  -4.2898  -3.9819
    -0.6583  -0.0750   0.1292   0.5050   0.5719   0.7839   1.2919   1.4308
     1.7175   1.9833   2.6176

          k = 0.3398-0.3270 0.2106 ( 21099 PWs)   bands (ev):

   -44.7260 -44.7260  -6.2362  -5.7500  -4.7448  -4.5958  -4.3737  -3.9706
    -0.7697  -0.0659   0.1056   0.3998   0.6019   1.0244   1.2183   1.4915
     1.7646   2.2762   2.4098

          k = 0.2265-0.2616 0.1053 ( 21098 PWs)   bands (ev):

   -44.7260 -44.7260  -6.4330  -5.4403  -4.8480  -4.5251  -4.3558  -4.0108
    -0.7018  -0.0810   0.0445   0.3012   0.4261   1.0932   1.2984   1.5366
     1.7615   2.2120   2.6317

          k = 0.3398-0.4578 0.1053 ( 21121 PWs)   bands (ev):

   -44.7260 -44.7260  -6.0282  -5.6319  -5.1890  -4.7586  -4.2855  -3.9849
    -0.5779  -0.1486   0.0072   0.5392   0.7237   0.8922   1.1071   1.8584
     2.0564   2.2797   2.6008

          k = 0.4531-0.3924-0.0000 ( 21111 PWs)   bands (ev):

   -44.7260 -44.7260  -5.9596  -5.5812  -5.1191  -4.7633  -4.5298  -4.1233
    -0.3575  -0.1777   0.2984   0.4515   0.6124   0.9800   1.3395   1.8649
     2.1015   2.2426   2.4493

          k = 0.3398-0.3270-0.1053 ( 21107 PWs)   bands (ev):

   -44.7260 -44.7260  -6.1702  -5.3166  -5.2191  -4.6887  -4.4894  -4.0485
    -0.3626  -0.2592  -0.0754   0.4440   0.6319   0.8442   1.2319   2.0282
     2.2213   2.3989   2.7063

          k = 0.2265-0.2616-0.2106 ( 21116 PWs)   bands (ev):

   -44.7260 -44.7260  -6.3542  -5.4173  -4.9115  -4.7353  -4.2985  -3.9802
    -0.5820  -0.2740  -0.0840   0.4208   0.6168   0.8918   1.3593   1.5496
     2.1229   2.2760   2.6270

          k = 0.3398 0.3270 0.4213 ( 21113 PWs)   bands (ev):

   -44.7260 -44.7260  -5.9558  -5.5750  -5.2161  -4.7946  -4.3340  -4.1310
    -0.4615  -0.2130  -0.1065   0.3331   0.4571   1.3820   1.5675   1.8653
     2.1717   2.5681   2.7185

     the Fermi energy is     1.5360 ev

!    total energy              =     -78.65686365 Ry
     estimated scf accuracy    <          2.9E-09 Ry
     smearing contrib. (-TS)   =      -0.00202972 Ry
     internal energy E=F+TS    =     -78.65483393 Ry

     The total energy is F=E-TS. E is the sum of the following terms:
     one-electron contribution =     -16.24288892 Ry
     hartree contribution      =      12.26760109 Ry
     xc contribution           =     -23.26934698 Ry
     ewald contribution        =     -51.41019912 Ry

     convergence has been achieved in   9 iterations

     Forces acting on atoms (cartesian axes, Ry/au):

     atom    1 type  1   force =     0.00000000    0.00000000   -0.04765588
     atom    2 type  1   force =     0.00000000    0.00000000    0.04765588
     atom    3 type  2   force =    -0.00598624    0.01243288   -0.03075843
     atom    4 type  2   force =     0.00598624   -0.01243288    0.03075843
     atom    5 type  2   force =    -0.00777407   -0.01140067   -0.03075843
     atom    6 type  2   force =     0.00777407    0.01140067    0.03075843
     atom    7 type  2   force =     0.01376031   -0.00103221   -0.03075843
     atom    8 type  2   force =    -0.01376031    0.00103221    0.03075843
     The non-local contrib.  to forces
     atom    1 type  1   force =    -0.00000000    0.00000000   -0.12153013
     atom    2 type  1   force =     0.00000000   -0.00000000    0.12153013
     atom    3 type  2   force =    -0.00929044    0.01335567   -0.07200469
     atom    4 type  2   force =     0.00929044   -0.01335567    0.07200469
     atom    5 type  2   force =    -0.00692113   -0.01472359   -0.07200469
     atom    6 type  2   force =     0.00692113    0.01472359    0.07200469
     atom    7 type  2   force =     0.01621157    0.00136792   -0.07200469
     atom    8 type  2   force =    -0.01621157   -0.00136792    0.07200469
     The ionic contribution  to forces
     atom    1 type  1   force =    -0.00000000   -0.00000000   -1.18414089
     atom    2 type  1   force =     0.00000000    0.00000000    1.18414089
     atom    3 type  2   force =    -0.64188057    0.50240833   -0.08903207
     atom    4 type  2   force =     0.64188057   -0.50240833    0.08903207
     atom    5 type  2   force =    -0.11415809   -0.80708904   -0.08903207
     atom    6 type  2   force =     0.11415809    0.80708904    0.08903207
     atom    7 type  2   force =     0.75603866    0.30468072   -0.08903207
     atom    8 type  2   force =    -0.75603866   -0.30468072    0.08903207
     The local contribution  to forces
     atom    1 type  1   force =     0.00000000    0.00000000    1.25801525
     atom    2 type  1   force =    -0.00000000    0.00000000   -1.25801525
     atom    3 type  2   force =     0.64438369   -0.50226580    0.12570939
     atom    4 type  2   force =    -0.64438369    0.50226580   -0.12570939
     atom    5 type  2   force =     0.11278309    0.80918555    0.12570939
     atom    6 type  2   force =    -0.11278309   -0.80918555   -0.12570939
     atom    7 type  2   force =    -0.75716679   -0.30691975    0.12570939
     atom    8 type  2   force =     0.75716679    0.30691975   -0.12570939
     The core correction contribution to forces
     atom    1 type  1   force =     0.00000000    0.00000000    0.00000000
     atom    2 type  1   force =     0.00000000    0.00000000    0.00000000
     atom    3 type  2   force =     0.00079875   -0.00106850    0.00458703
     atom    4 type  2   force =    -0.00079875    0.00106850   -0.00458703
     atom    5 type  2   force =     0.00052598    0.00122599    0.00458703
     atom    6 type  2   force =    -0.00052598   -0.00122599   -0.00458703
     atom    7 type  2   force =    -0.00132473   -0.00015749    0.00458703
     atom    8 type  2   force =     0.00132473    0.00015749   -0.00458703
     The Hubbard contrib.    to forces
     atom    1 type  1   force =     0.00000000    0.00000000    0.00000000
     atom    2 type  1   force =     0.00000000    0.00000000    0.00000000
     atom    3 type  2   force =     0.00000000    0.00000000    0.00000000
     atom    4 type  2   force =     0.00000000    0.00000000    0.00000000
     atom    5 type  2   force =     0.00000000    0.00000000    0.00000000
     atom    6 type  2   force =     0.00000000    0.00000000    0.00000000
     atom    7 type  2   force =     0.00000000    0.00000000    0.00000000
     atom    8 type  2   force =     0.00000000    0.00000000    0.00000000
     The SCF correction term to forces
     atom    1 type  1   force =    -0.00000000   -0.00000000   -0.00000012
     atom    2 type  1   force =    -0.00000000    0.00000000    0.00000012
     atom    3 type  2   force =     0.00000233    0.00000319   -0.00001809
     atom    4 type  2   force =    -0.00000233   -0.00000319    0.00001809
     atom    5 type  2   force =    -0.00000392    0.00000042   -0.00001809
     atom    6 type  2   force =     0.00000392   -0.00000042    0.00001809
     atom    7 type  2   force =     0.00000159   -0.00000361   -0.00001809
     atom    8 type  2   force =    -0.00000159    0.00000361    0.00001809

     Total force =     0.106589     Total SCF correction =     0.000045


     Computing stress (Cartesian axis) and pressure

          total   stress  (Ry/bohr**3)                   (kbar)     P=      -76.20
  -0.00055950   0.00000000  -0.00000000          -82.31        0.00       -0.00
  -0.00000000  -0.00055950  -0.00000000           -0.00      -82.31       -0.00
  -0.00000000  -0.00000000  -0.00043497           -0.00       -0.00      -63.99


     BFGS Geometry Optimization
     Energy error            =      0.0E+00 Ry
     Gradient error          =      4.8E-02 Ry/Bohr
     Cell gradient error     =      5.8E+02 kbar

     number of scf cycles    =   1
     number of bfgs steps    =   0

     enthalpy           new  =     -72.7179982004 Ry

     new trust radius        =       0.5000000000 bohr
ibrav =      5
 celldm(1) =     11.37169520
 celldm(4) =     -0.08137923
Input lattice vectors:
     0.69172349    -0.39936674     0.49696210
     0.00000000     0.79873348     0.49696210
    -0.69172349    -0.39936674     0.49696210
New lattice vectors in INITIAL alat:
     0.69172349    -0.39936674     0.49696210
     0.00000000     0.79873348     0.49696210
    -0.69172349    -0.39936674     0.49696210
New lattice vectors in NEW alat (for information only):
     0.73531600    -0.42453489     0.52828072
     0.00000000     0.84906978     0.52828072
    -0.73531600    -0.42453489     0.52828072
Discrepancy in bohr =     0.000000    0.000000    0.000000
     new conv_thr            =       0.0000000100 Ry

     new unit-cell volume =   1455.05376 a.u.^3 (   215.61672 Ang^3 )
     density =      1.40469 g/cm^3

CELL_PARAMETERS (alat= 12.08834097)
   0.691723488  -0.399366742   0.496962098
   0.000000000   0.798733483   0.496962098
  -0.691723488  -0.399366742   0.496962098

ATOMIC_POSITIONS (crystal)
Li            0.2204224800        0.2204224800        0.2204224800
Li            0.7795775200        0.7795775200        0.7795775200
Si            1.4025560113       -0.1652759236        0.7071797988
Si           -0.4025560113        0.1652759236        1.2928202012
Si            0.7071797988        0.4025560113        0.8347240764
Si            0.2928202012       -0.4025560113        1.1652759236
Si            0.8347240764       -0.2928202012        1.4025560113
Si            0.1652759236        0.2928202012        0.5974439887



     Writing config-only to output data dir ./output/LiSi.save/
     NEW-OLD atomic charge density approx. for the potential
     extrapolated charge   23.97762, renormalised to   30.00000

     total cpu time spent up to now is       59.0 secs

     Self-consistent Calculation

     iteration #  1     ecut=    80.00 Ry     beta= 0.70
     Davidson diagonalization with overlap
     c_bands:  1 eigenvalues not converged
     c_bands:  1 eigenvalues not converged
     c_bands:  1 eigenvalues not converged
     c_bands:  1 eigenvalues not converged
     c_bands:  1 eigenvalues not converged
     c_bands:  1 eigenvalues not converged
     c_bands:  2 eigenvalues not converged
     c_bands:  1 eigenvalues not converged
     c_bands:  1 eigenvalues not converged
     c_bands:  1 eigenvalues not converged
     ethr =  1.00E-06,  avg # of iterations = 17.0

     total cpu time spent up to now is       72.3 secs

     total energy              =     -78.38257282 Ry
     estimated scf accuracy    <       0.34017575 Ry

     iteration #  2     ecut=    80.00 Ry     beta= 0.70
     Davidson diagonalization with overlap
     ethr =  1.13E-03,  avg # of iterations =  4.0

     total cpu time spent up to now is       76.7 secs

     total energy              =     -78.78005652 Ry
     estimated scf accuracy    <       0.83813258 Ry

     iteration #  3     ecut=    80.00 Ry     beta= 0.70
     Davidson diagonalization with overlap
     ethr =  1.13E-03,  avg # of iterations =  2.0

     total cpu time spent up to now is       79.8 secs

     total energy              =     -78.80089442 Ry
     estimated scf accuracy    <       0.13466976 Ry

     iteration #  4     ecut=    80.00 Ry     beta= 0.70
     Davidson diagonalization with overlap
     ethr =  4.49E-04,  avg # of iterations =  2.0

     total cpu time spent up to now is       82.9 secs

     total energy              =     -78.81469842 Ry
     estimated scf accuracy    <       0.01611579 Ry

     iteration #  5     ecut=    80.00 Ry     beta= 0.70
     Davidson diagonalization with overlap
     ethr =  5.37E-05,  avg # of iterations =  3.6

     total cpu time spent up to now is       86.4 secs

     total energy              =     -78.81890678 Ry
     estimated scf accuracy    <       0.00138150 Ry

     iteration #  6     ecut=    80.00 Ry     beta= 0.70
     Davidson diagonalization with overlap
     ethr =  4.61E-06,  avg # of iterations =  5.5

     total cpu time spent up to now is       90.2 secs

     total energy              =     -78.81871043 Ry
     estimated scf accuracy    <       0.00123289 Ry

     iteration #  7     ecut=    80.00 Ry     beta= 0.70
     Davidson diagonalization with overlap
     ethr =  4.11E-06,  avg # of iterations =  2.0

     total cpu time spent up to now is       93.3 secs

     total energy              =     -78.81891389 Ry
     estimated scf accuracy    <       0.00002859 Ry

     iteration #  8     ecut=    80.00 Ry     beta= 0.70
     Davidson diagonalization with overlap
     ethr =  9.53E-08,  avg # of iterations =  5.9

     total cpu time spent up to now is       98.0 secs

     total energy              =     -78.81894233 Ry
     estimated scf accuracy    <       0.00001530 Ry

     iteration #  9     ecut=    80.00 Ry     beta= 0.70
     Davidson diagonalization with overlap
     ethr =  5.10E-08,  avg # of iterations =  2.0

     total cpu time spent up to now is      101.2 secs

     total energy              =     -78.81894547 Ry
     estimated scf accuracy    <       0.00000019 Ry

     iteration # 10     ecut=    80.00 Ry     beta= 0.70
     Davidson diagonalization with overlap
     ethr =  6.17E-10,  avg # of iterations =  5.9

     total cpu time spent up to now is      105.7 secs

     total energy              =     -78.81894563 Ry
     estimated scf accuracy    <       0.00000009 Ry

     iteration # 11     ecut=    80.00 Ry     beta= 0.70
     Davidson diagonalization with overlap
     ethr =  3.06E-10,  avg # of iterations =  2.0

     total cpu time spent up to now is      108.5 secs

     End of self-consistent calculation

          k = 0.0000 0.0000 0.0000 ( 21091 PWs)   bands (ev):

   -43.4584 -43.4583  -6.3413  -3.6462  -3.6462  -3.3186  -3.2145  -3.2145
    -0.0320   0.8805   0.8805   1.2016   1.5899   1.5899   2.5205   2.5205
     2.7491   3.0891   3.0891

          k =-0.1205-0.0696 0.1118 ( 21107 PWs)   bands (ev):

   -43.4584 -43.4583  -6.2539  -4.1111  -3.5927  -3.3960  -3.1854  -2.8693
     0.0821   0.4798   0.8409   1.4325   1.5259   1.7741   2.1912   2.4707
     2.9074   3.2290   3.4852

          k =-0.2409-0.1391 0.2236 ( 21104 PWs)   bands (ev):

   -43.4584 -43.4583  -6.0094  -4.7642  -3.4753  -3.3449  -3.1445  -2.7456
    -0.1520   0.6873   0.9726   1.0072   1.6492   1.7435   2.0469   2.9033
     3.0591   3.1218   3.8322

          k = 0.3614 0.2087-0.3354 ( 21146 PWs)   bands (ev):

   -43.4584 -43.4584  -5.7825  -5.1400  -3.4301  -3.2091  -3.2020  -2.7639
    -0.2769   0.7772   0.8628   1.0630   1.6191   1.7154   2.3876   2.6501
     3.1256   3.2605   3.7347

          k =-0.1205 0.0696 0.2236 ( 21131 PWs)   bands (ev):

   -43.4584 -43.4583  -6.1561  -4.2179  -3.8934  -3.4768  -2.9818  -2.7622
     0.2057   0.6464   0.7721   1.2043   1.6532   1.8878   2.0032   2.3809
     2.6605   3.2536   4.0829

          k =-0.2409 0.0000 0.3354 ( 21112 PWs)   bands (ev):

   -43.4584 -43.4584  -5.9037  -4.7440  -3.8766  -3.4617  -2.9217  -2.7410
     0.2737   0.4868   0.9130   0.9305   1.5488   1.7708   2.6220   2.6670
     2.9505   3.2770   3.7086

          k = 0.3614 0.3478-0.2236 ( 21099 PWs)   bands (ev):

   -43.4584 -43.4584  -5.6932  -5.0757  -3.7720  -3.3993  -3.0460  -2.7545
     0.0363   0.6120   0.9195   0.9810   1.4783   1.9053   2.4667   2.7831
     3.0966   3.2995   3.9184

          k = 0.2409 0.2782-0.1118 ( 21098 PWs)   bands (ev):

   -43.4584 -43.4583  -5.9399  -4.6665  -3.8550  -3.2598  -3.2314  -2.6931
    -0.0239   0.4774   0.9587   1.2078   1.5412   1.7563   2.1566   2.8559
     3.1487   3.2861   3.9857

          k = 0.1205 0.2087 0.0000 ( 21091 PWs)   bands (ev):

   -43.4584 -43.4583  -6.1771  -4.0335  -3.9933  -3.4239  -3.0892  -2.7497
     0.1289   0.2908   0.7204   1.2225   1.6390   1.9106   2.5713   2.7547
     3.0812   3.0894   3.3160

          k =-0.2409 0.1391 0.4472 ( 21113 PWs)   bands (ev):

   -43.4584 -43.4584  -5.6413  -4.7431  -4.3237  -3.6200  -2.9489  -2.6384
     0.1803   0.5167   0.8634   1.0702   1.8317   2.0279   2.4749   2.7521
     2.9895   3.4202   3.8817

          k = 0.3614 0.4869-0.1118 ( 21121 PWs)   bands (ev):

   -43.4584 -43.4584  -5.4338  -4.9211  -4.3427  -3.7060  -2.9470  -2.7313
     0.2757   0.5388   0.9180   1.0406   1.4978   2.0624   2.3724   2.9968
     3.2570   3.9469   3.9939

          k = 0.2409 0.4173 0.0000 ( 21107 PWs)   bands (ev):

   -43.4584 -43.4583  -5.7070  -4.4892  -4.4551  -3.5088  -3.1495  -2.6323
     0.0514   0.6701   0.9898   1.2066   1.5005   1.6911   2.0999   2.9369
     3.3694   3.7501   4.1192

          k = 0.3614-0.2087-0.6707 ( 21140 PWs)   bands (ev):

   -43.4584 -43.4584  -5.1251  -4.9303  -4.6506  -3.8902  -2.9084  -2.7187
     0.2437   0.4732   0.9196   1.0863   1.8478   1.9113   2.5466   3.0849
     3.2994   3.9652   4.0016

          k = 0.0000-0.0000 0.3354 ( 21099 PWs)   bands (ev):

   -43.4584 -43.4584  -6.0500  -4.1739  -4.1739  -3.5786  -2.8532  -2.8532
     0.3756   1.0829   1.0829   1.3872   1.5047   1.5047   2.0515   2.0515
     2.3241   3.6407   4.0442

          k =-0.1205-0.0696 0.4472 ( 21110 PWs)   bands (ev):

   -43.4584 -43.4584  -5.7934  -4.7116  -3.9748  -3.6241  -3.1049  -2.7358
     0.4281   0.8469   1.0935   1.2689   1.4687   2.0481   2.1894   2.4041
     2.7241   3.4154   3.7223

          k = 0.4819 0.2782-0.1118 ( 21083 PWs)   bands (ev):

   -43.4584 -43.4584  -5.6022  -5.0053  -3.6858  -3.6069  -3.4404  -2.7043
     0.1977   0.8704   0.9237   1.3345   1.5169   1.9257   2.4170   2.6196
     2.8856   3.4732   3.7851

          k = 0.3614 0.2087 0.0000 ( 21127 PWs)   bands (ev):

   -43.4584 -43.4583  -5.8609  -4.5833  -3.8485  -3.6813  -3.2255  -2.6644
     0.1086   0.5732   1.0055   1.0529   1.7228   1.7762   2.3510   2.6715
     2.9866   3.5893   4.0527

          k = 0.2409 0.1391 0.1118 ( 21115 PWs)   bands (ev):

   -43.4584 -43.4583  -6.0892  -4.1034  -3.9690  -3.7716  -2.9499  -2.6774
     0.2106   0.3611   0.6040   1.0306   1.6855   2.1069   2.4487   2.7345
     3.0400   3.2230   3.7048

          k =-0.1205 0.0696 0.5590 ( 21121 PWs)   bands (ev):

   -43.4584 -43.4584  -5.5327  -4.6752  -4.3130  -3.6962  -3.2647  -2.8522
     0.4796   0.9503   1.0170   1.3970   1.8529   1.9599   2.4239   2.6359
     2.9245   3.3171   3.6361

          k = 0.4819 0.4173 0.0000 ( 21111 PWs)   bands (ev):

   -43.4584 -43.4584  -5.3429  -4.8459  -4.2622  -3.7314  -3.4189  -2.8586
     0.4667   0.6535   1.0982   1.3933   1.5757   1.7977   2.7307   3.0974
     3.3910   3.4786   4.0362

          k = 0.3614 0.3478 0.1118 ( 21107 PWs)   bands (ev):

   -43.4584 -43.4584  -5.6178  -4.4470  -4.3934  -3.6858  -3.3361  -2.7177
     0.3257   0.4876   0.9535   1.1635   1.2947   2.2243   2.4137   3.3230
     3.3942   3.5360   3.8763

          k = 0.2409 0.2782 0.2236 ( 21116 PWs)   bands (ev):

   -43.4584 -43.4584  -5.8422  -4.6390  -3.9229  -3.7198  -2.9873  -2.6583
     0.2447   0.3018   0.7296   0.9724   1.4307   2.2364   2.5207   3.1046
     3.1900   3.3534   3.6668

          k = 0.4819-0.2782-0.5590 ( 21126 PWs)   bands (ev):

   -43.4584 -43.4584  -5.0377  -4.8374  -4.6112  -3.9094  -3.2012  -2.9758
     0.2881   0.6307   0.9009   1.1101   1.8481   2.4818   2.7703   3.1226
     3.4002   3.8404   4.1307

          k = 0.3614-0.3478-0.4472 ( 21113 PWs)   bands (ev):

   -43.4584 -43.4584  -5.3498  -4.8550  -4.3064  -3.8138  -3.1925  -2.7804
     0.1720   0.3509   0.8269   1.1881   1.8298   2.1899   2.7028   3.1736
     3.4744   3.7428   4.1665

          k = 0.2409-0.4173-0.3354 ( 21124 PWs)   bands (ev):

   -43.4584 -43.4584  -5.6067  -5.0156  -3.8753  -3.6146  -3.1260  -2.6300
     0.0937   0.2526   0.7754   1.2418   1.4727   2.3374   2.3725   2.6537
     3.4325   3.6274   4.1380

          k = 0.3614-0.2087-0.3354 ( 21119 PWs)   bands (ev):

   -43.4584 -43.4584  -5.5823  -4.6304  -4.2948  -3.8315  -2.9902  -2.7696
     0.1026   0.4051   0.6982   1.3504   1.4162   2.3758   2.7833   2.9469
     3.1370   3.8582   4.1641

          k = 0.0000-0.0000 0.6707 ( 21087 PWs)   bands (ev):

   -43.4584 -43.4584  -5.2798  -4.4317  -4.4317  -3.9929  -3.3440  -3.3440
     0.1978   1.2704   1.6077   1.6077   1.9013   2.2096   2.2096   3.0433
     3.0433   3.5419   3.9455

          k = 0.6024 0.3478 0.1118 ( 21129 PWs)   bands (ev):

   -43.4584 -43.4584  -5.0875  -4.6703  -4.0831  -4.0385  -3.8164  -3.2646
     0.0780   0.8566   1.2962   1.7882   1.9897   2.2042   3.0662   3.1982
     3.4601   3.6590   3.9198

          k = 0.4819 0.2782 0.2236 ( 21115 PWs)   bands (ev):

   -43.4584 -43.4584  -5.3618  -4.3720  -4.3460  -4.0640  -3.4696  -3.0309
     0.0709   0.7149   1.0272   1.1310   1.7420   2.5710   2.8362   3.3429
     3.6214   3.9091   3.9798

          k = 0.6024-0.3478-0.4472 ( 21124 PWs)   bands (ev):

   -43.4584 -43.4584  -4.7837  -4.5666  -4.5166  -3.9717  -3.7541  -3.5260
    -0.1000   0.5598   1.5100   1.6958   2.3479   2.8059   2.8934   3.4463
     3.7327   3.8103   4.1196

          k = 0.4819-0.4173-0.3354 ( 21132 PWs)   bands (ev):

   -43.4584 -43.4584  -5.0921  -4.6739  -4.3153  -3.9918  -3.5333  -3.2311
    -0.0730   0.6433   1.1001   1.3135   1.9961   2.7978   3.1606   3.2022
     3.7883   3.9104   3.9959

          k = 0.0000 0.0000-1.0061 ( 21108 PWs)   bands (ev):

   -43.4584 -43.4584  -4.5146  -4.4043  -4.2359  -4.2359  -3.9762  -3.9762
    -0.2230   0.3554   2.3404   2.3404   2.4336   2.5477   2.5477   3.9043
     3.9043   4.1122   4.1232

          k =-0.2409-0.0000-0.3354 ( 21112 PWs)   bands (ev):

   -43.4584 -43.4584  -5.9037  -4.7472  -3.8326  -3.5072  -3.0391  -2.5897
    -0.0454   0.6271   0.9216   1.3766   1.5276   1.6817   2.4534   2.5730
     2.8162   3.1644   3.9597

          k = 0.3614-0.3478 0.2236 ( 21099 PWs)   bands (ev):

   -43.4584 -43.4584  -5.6936  -5.0755  -3.7030  -3.4850  -3.1540  -2.5879
    -0.1971   0.6336   0.9164   1.2337   1.6355   1.9778   2.2747   2.6411
     2.9112   3.4805   3.8047

          k = 0.2409-0.2782 0.1118 ( 21098 PWs)   bands (ev):

   -43.4584 -43.4583  -5.9401  -4.6647  -3.8415  -3.3696  -3.1561  -2.6599
    -0.1164   0.6680   0.8547   1.1764   1.2923   2.1442   2.4373   2.5825
     2.8606   3.4605   3.9781

          k = 0.3614-0.4869 0.1118 ( 21121 PWs)   bands (ev):

   -43.4584 -43.4584  -5.4349  -4.9212  -4.3270  -3.7268  -3.0408  -2.5996
     0.0272   0.5704   0.8606   1.3889   1.8101   1.8564   2.1864   3.0724
     3.2393   3.5799   3.9028

          k = 0.4819-0.4173-0.0000 ( 21111 PWs)   bands (ev):

   -43.4584 -43.4584  -5.3431  -4.8469  -4.2528  -3.7420  -3.4321  -2.8366
     0.4131   0.5861   1.1860   1.3859   1.5803   2.2117   2.3244   3.0713
     3.3328   3.5241   3.6892

          k = 0.3614-0.3478-0.1118 ( 21107 PWs)   bands (ev):

   -43.4584 -43.4584  -5.6174  -4.4559  -4.3917  -3.6486  -3.3688  -2.7187
     0.3399   0.4985   0.7376   1.4151   1.6126   1.8336   2.2648   3.2299
     3.4636   3.6665   4.0340

          k = 0.2409-0.2782-0.2236 ( 21116 PWs)   bands (ev):

   -43.4584 -43.4584  -5.8419  -4.6450  -3.9002  -3.7199  -3.0567  -2.5960
     0.0465   0.3978   0.6748   1.3676   1.5863   1.8139   2.4918   2.6539
     3.3406   3.5436   3.9189

          k = 0.3614 0.3478 0.4472 ( 21113 PWs)   bands (ev):

   -43.4584 -43.4584  -5.3486  -4.8549  -4.3252  -3.7845  -3.1589  -2.8412
     0.1876   0.5222   0.7449   1.2051   1.4846   2.4464   2.7420   3.0566
     3.3916   3.9585   4.0860

     the Fermi energy is     2.6611 ev

!    total energy              =     -78.81894563 Ry
     estimated scf accuracy    <          8.6E-09 Ry
     smearing contrib. (-TS)   =      -0.00074024 Ry
     internal energy E=F+TS    =     -78.81820539 Ry

     The total energy is F=E-TS. E is the sum of the following terms:
     one-electron contribution =     -11.77501356 Ry
     hartree contribution      =      11.35094551 Ry
     xc contribution           =     -23.63548536 Ry
     ewald contribution        =     -54.75865198 Ry

     convergence has been achieved in  11 iterations

     Forces acting on atoms (cartesian axes, Ry/au):

     atom    1 type  1   force =     0.00000000   -0.00000000   -0.07879401
     atom    2 type  1   force =     0.00000000   -0.00000000    0.07879401
     atom    3 type  2   force =    -0.01767443    0.02309410   -0.04173317
     atom    4 type  2   force =     0.01767443   -0.02309410    0.04173317
     atom    5 type  2   force =    -0.01116286   -0.02685356   -0.04173317
     atom    6 type  2   force =     0.01116286    0.02685356    0.04173317
     atom    7 type  2   force =     0.02883729    0.00375946   -0.04173317
     atom    8 type  2   force =    -0.02883729   -0.00375946    0.04173317
     The non-local contrib.  to forces
     atom    1 type  1   force =    -0.00000000   -0.00000000   -0.12206512
     atom    2 type  1   force =    -0.00000000   -0.00000000    0.12206512
     atom    3 type  2   force =    -0.02751368    0.02831306   -0.08868380
     atom    4 type  2   force =     0.02751368   -0.02831306    0.08868380
     atom    5 type  2   force =    -0.01076299   -0.03798408   -0.08868380
     atom    6 type  2   force =     0.01076299    0.03798408    0.08868380
     atom    7 type  2   force =     0.03827667    0.00967102   -0.08868380
     atom    8 type  2   force =    -0.03827667   -0.00967102    0.08868380
     The ionic contribution  to forces
     atom    1 type  1   force =    -0.00000000   -0.00000000   -1.31958641
     atom    2 type  1   force =     0.00000000    0.00000000    1.31958641
     atom    3 type  2   force =    -0.71008577    0.55299615   -0.09451657
     atom    4 type  2   force =     0.71008577   -0.55299615    0.09451657
     atom    5 type  2   force =    -0.12386583   -0.89145039   -0.09451657
     atom    6 type  2   force =     0.12386583    0.89145039    0.09451657
     atom    7 type  2   force =     0.83395160    0.33845424   -0.09451657
     atom    8 type  2   force =    -0.83395160   -0.33845424    0.09451657
     The local contribution  to forces
     atom    1 type  1   force =     0.00000000    0.00000000    1.36281239
     atom    2 type  1   force =    -0.00000000    0.00000000   -1.36281239
     atom    3 type  2   force =     0.71792003   -0.55614224    0.13585772
     atom    4 type  2   force =    -0.71792003    0.55614224   -0.13585772
     atom    5 type  2   force =     0.12267329    0.89980811    0.13585772
     atom    6 type  2   force =    -0.12267329   -0.89980811   -0.13585772
     atom    7 type  2   force =    -0.84059332   -0.34366587    0.13585772
     atom    8 type  2   force =     0.84059332    0.34366587   -0.13585772
     The core correction contribution to forces
     atom    1 type  1   force =     0.00000000    0.00000000    0.00000000
     atom    2 type  1   force =     0.00000000    0.00000000    0.00000000
     atom    3 type  2   force =     0.00196602   -0.00204753    0.00562647
     atom    4 type  2   force =    -0.00196602    0.00204753   -0.00562647
     atom    5 type  2   force =     0.00079020    0.00272638    0.00562647
     atom    6 type  2   force =    -0.00079020   -0.00272638   -0.00562647
     atom    7 type  2   force =    -0.00275622   -0.00067886    0.00562647
     atom    8 type  2   force =     0.00275622    0.00067886   -0.00562647
     The Hubbard contrib.    to forces
     atom    1 type  1   force =     0.00000000    0.00000000    0.00000000
     atom    2 type  1   force =     0.00000000    0.00000000    0.00000000
     atom    3 type  2   force =     0.00000000    0.00000000    0.00000000
     atom    4 type  2   force =     0.00000000    0.00000000    0.00000000
     atom    5 type  2   force =     0.00000000    0.00000000    0.00000000
     atom    6 type  2   force =     0.00000000    0.00000000    0.00000000
     atom    7 type  2   force =     0.00000000    0.00000000    0.00000000
     atom    8 type  2   force =     0.00000000    0.00000000    0.00000000
     The SCF correction term to forces
     atom    1 type  1   force =    -0.00000000   -0.00000000    0.00004513
     atom    2 type  1   force =     0.00000000    0.00000000   -0.00004513
     atom    3 type  2   force =     0.00003897   -0.00002534   -0.00001699
     atom    4 type  2   force =    -0.00003897    0.00002534    0.00001699
     atom    5 type  2   force =     0.00000246    0.00004642   -0.00001699
     atom    6 type  2   force =    -0.00000246   -0.00004642    0.00001699
     atom    7 type  2   force =    -0.00004143   -0.00002108   -0.00001699
     atom    8 type  2   force =     0.00004143    0.00002108    0.00001699

     Total force =     0.167156     Total SCF correction =     0.000137


     Computing stress (Cartesian axis) and pressure

          total   stress  (Ry/bohr**3)                   (kbar)     P=      -76.48
  -0.00056923  -0.00000000  -0.00000000          -83.74       -0.00       -0.00
   0.00000000  -0.00056923  -0.00000000            0.00      -83.74       -0.00
   0.00000000  -0.00000000  -0.00042124            0.00       -0.00      -61.97

     Energy error            =      1.2E+00 Ry
     Gradient error          =      7.9E-02 Ry/Bohr
     Cell gradient error     =      5.8E+02 kbar

     number of scf cycles    =   2
     number of bfgs steps    =   1

     enthalpy           old  =     -72.7179982004 Ry
     enthalpy           new  =     -73.8733184093 Ry

     CASE: enthalpy          _new < enthalpy          _old


     WARNING: bfgs curvature condition failed, Theta= 0.980
     new trust radius        =       0.7279535495 bohr
ibrav =      5
 celldm(1) =     10.30043776
 celldm(4) =     -0.07848014
Input lattice vectors:
     0.62572003    -0.36125963     0.45170237
    -0.00000000     0.72251926     0.45170237
    -0.62572003    -0.36125963     0.45170237
New lattice vectors in INITIAL alat:
     0.62572003    -0.36125963     0.45170237
     0.00000000     0.72251926     0.45170237
    -0.62572003    -0.36125963     0.45170237
New lattice vectors in NEW alat (for information only):
     0.73432967    -0.42396543     0.53010682
     0.00000000     0.84793087     0.53010682
    -0.73432967    -0.42396543     0.53010682
Discrepancy in bohr =     0.000000    0.000000    0.000000
     new conv_thr            =       0.0000000079 Ry

     new unit-cell volume =   1082.18926 a.u.^3 (   160.36390 Ang^3 )
     density =      1.88867 g/cm^3

CELL_PARAMETERS (alat= 12.08834097)
   0.625720032  -0.361259629   0.451702374
   0.000000000   0.722519258   0.451702374
  -0.625720032  -0.361259629   0.451702374

ATOMIC_POSITIONS (crystal)
Li            0.2154907049        0.2154907049        0.2154907049
Li            0.7845092951        0.7845092951        0.7845092951
Si            1.3978484706       -0.1658970647        0.7051189138
Si           -0.3978484706        0.1658970647        1.2948810862
Si            0.7051189138        0.3978484706        0.8341029353
Si            0.2948810862       -0.3978484706        1.1658970647
Si            0.8341029353       -0.2948810862        1.3978484706
Si            0.1658970647        0.2948810862        0.6021515294



     Writing config-only to output data dir ./output/LiSi.save/
     NEW-OLD atomic charge density approx. for the potential
     extrapolated charge   19.66801, renormalised to   30.00000

     total cpu time spent up to now is      120.3 secs

     Self-consistent Calculation

     iteration #  1     ecut=    80.00 Ry     beta= 0.70
     Davidson diagonalization with overlap
     c_bands:  1 eigenvalues not converged
     c_bands:  1 eigenvalues not converged
     c_bands:  1 eigenvalues not converged
     c_bands:  1 eigenvalues not converged
     c_bands:  1 eigenvalues not converged
     c_bands:  1 eigenvalues not converged
     c_bands:  1 eigenvalues not converged
     c_bands:  1 eigenvalues not converged
     c_bands:  1 eigenvalues not converged
     c_bands:  1 eigenvalues not converged
     c_bands:  1 eigenvalues not converged
     c_bands:  1 eigenvalues not converged
     c_bands:  1 eigenvalues not converged
     c_bands:  1 eigenvalues not converged
     ethr =  1.00E-06,  avg # of iterations = 18.0

     total cpu time spent up to now is      133.9 secs

     total energy              =     -77.76836309 Ry
     estimated scf accuracy    <       1.19320627 Ry

     iteration #  2     ecut=    80.00 Ry     beta= 0.70
     Davidson diagonalization with overlap
     ethr =  3.98E-03,  avg # of iterations =  3.8

     total cpu time spent up to now is      138.1 secs

     total energy              =     -78.88668933 Ry
     estimated scf accuracy    <       2.40878683 Ry

     iteration #  3     ecut=    80.00 Ry     beta= 0.70
     Davidson diagonalization with overlap
     ethr =  3.98E-03,  avg # of iterations =  2.0

     total cpu time spent up to now is      141.1 secs

     total energy              =     -78.96499907 Ry
     estimated scf accuracy    <       0.32197282 Ry

     iteration #  4     ecut=    80.00 Ry     beta= 0.70
     Davidson diagonalization with overlap
     ethr =  1.07E-03,  avg # of iterations =  2.1

     total cpu time spent up to now is      144.3 secs

     total energy              =     -79.01888178 Ry
     estimated scf accuracy    <       0.01548372 Ry

     iteration #  5     ecut=    80.00 Ry     beta= 0.70
     Davidson diagonalization with overlap
     ethr =  5.16E-05,  avg # of iterations =  5.3

     total cpu time spent up to now is      148.5 secs

     total energy              =     -79.02706706 Ry
     estimated scf accuracy    <       0.00253905 Ry

     iteration #  6     ecut=    80.00 Ry     beta= 0.70
     Davidson diagonalization with overlap
     ethr =  8.46E-06,  avg # of iterations =  4.8

     total cpu time spent up to now is      152.3 secs

     total energy              =     -79.02786448 Ry
     estimated scf accuracy    <       0.00179354 Ry

     iteration #  7     ecut=    80.00 Ry     beta= 0.70
     Davidson diagonalization with overlap
     ethr =  5.98E-06,  avg # of iterations =  2.6

     total cpu time spent up to now is      155.3 secs

     total energy              =     -79.02805176 Ry
     estimated scf accuracy    <       0.00008038 Ry

     iteration #  8     ecut=    80.00 Ry     beta= 0.70
     Davidson diagonalization with overlap
     ethr =  2.68E-07,  avg # of iterations =  5.3

     total cpu time spent up to now is      159.6 secs

     total energy              =     -79.02810397 Ry
     estimated scf accuracy    <       0.00001857 Ry

     iteration #  9     ecut=    80.00 Ry     beta= 0.70
     Davidson diagonalization with overlap
     ethr =  6.19E-08,  avg # of iterations =  2.0

     total cpu time spent up to now is      162.6 secs

     total energy              =     -79.02810542 Ry
     estimated scf accuracy    <       0.00000191 Ry

     iteration # 10     ecut=    80.00 Ry     beta= 0.70
     Davidson diagonalization with overlap
     ethr =  6.36E-09,  avg # of iterations =  3.9

     total cpu time spent up to now is      166.2 secs

     End of self-consistent calculation

          k = 0.0000 0.0000 0.0000 ( 21091 PWs)   bands (ev):

   -41.0961 -41.0958  -5.5496  -1.6738  -1.6738  -1.1930  -1.1930  -0.9730
     1.1408   2.8808   2.8808   3.0514   3.5684   3.5684   4.5284   4.5284
     5.2228   5.3848   5.3848

          k =-0.1332-0.0769 0.1230 ( 21107 PWs)   bands (ev):

   -41.0961 -41.0958  -5.4353  -2.4807  -1.5864  -1.1535  -1.0922  -0.4494
     1.4466   2.0230   2.6091   3.3536   3.4809   3.8800   4.1217   4.7256
     5.3165   5.5705   6.0106

          k =-0.2664-0.1538 0.2460 ( 21104 PWs)   bands (ev):

   -41.0961 -41.0958  -5.1137  -3.4320  -1.3563  -1.0584  -0.9169  -0.2719
     1.1002   2.2980   2.5311   2.7670   3.4653   3.7008   4.2649   5.1984
     5.4874   5.8485   6.3710

          k = 0.3995 0.2307-0.3690 ( 21146 PWs)   bands (ev):

   -41.0961 -41.0958  -4.8119  -3.9545  -1.1979  -0.9224  -0.8745  -0.3853
     0.9036   2.1456   2.3926   2.8462   3.7534   3.8435   4.4500   4.8977
     5.4900   5.7998   6.5307

          k =-0.1332 0.0769 0.2460 ( 21131 PWs)   bands (ev):

   -41.0961 -41.0958  -5.3044  -2.6731  -2.1384  -1.2807  -0.6487  -0.1555
     1.6889   2.2411   2.3347   2.9344   3.5472   3.7647   4.2643   4.6108
     4.9386   5.6090   6.7241

          k =-0.2664 0.0000 0.3690 ( 21112 PWs)   bands (ev):

   -41.0961 -41.0958  -4.9687  -3.4247  -2.0917  -1.2630  -0.5451  -0.1216
     1.7371   1.9232   2.5953   2.7503   3.3146   3.5802   4.8547   4.9227
     5.5724   5.7267   6.3670

          k = 0.3995 0.3845-0.2460 ( 21099 PWs)   bands (ev):

   -41.0961 -41.0958  -4.6942  -3.8650  -1.8585  -1.2641  -0.6613  -0.3139
     1.4349   2.0790   2.5584   2.8042   3.4575   3.8761   4.6377   5.1414
     5.4085   5.8085   6.6233

          k = 0.2664 0.3076-0.1230 ( 21098 PWs)   bands (ev):

   -41.0961 -41.0958  -5.0275  -3.2734  -2.0094  -1.0382  -0.9725  -0.2093
     1.3272   2.0153   2.7309   2.9642   3.3886   3.8931   4.2145   5.1805
     5.5383   5.7224   6.7443

          k = 0.1332 0.2307 0.0000 ( 21091 PWs)   bands (ev):

   -41.0961 -41.0958  -5.3373  -2.3071  -2.2958  -1.2475  -0.8414  -0.1748
     1.4646   1.7441   2.3229   3.1053   3.7097   3.9512   4.9715   4.9901
     5.3861   5.4576   5.7372

          k =-0.2664 0.1538 0.4920 ( 21113 PWs)   bands (ev):

   -41.0961 -41.0958  -4.6142  -3.4511  -2.7552  -1.5610  -0.5483   0.0851
     1.4988   2.0110   2.5475   2.8579   3.8862   3.9905   4.6881   5.0738
     5.2361   6.2385   6.5284

          k = 0.3995 0.5382-0.1230 ( 21121 PWs)   bands (ev):

   -41.0961 -41.0958  -4.3508  -3.6566  -2.7506  -1.8332  -0.5071  -0.1634
     1.6289   2.1030   2.5954   2.9622   3.4791   4.2168   4.4981   5.3564
     5.6185   6.5087   6.7707

          k = 0.2664 0.4613 0.0000 ( 21107 PWs)   bands (ev):

   -41.0961 -41.0958  -4.7240  -3.0239  -2.9200  -1.5372  -0.8164  -0.0352
     1.3799   2.3349   2.8720   3.1468   3.2466   3.6004   4.3289   5.0477
     5.9446   6.3165   6.9315

          k = 0.3995-0.2307-0.7379 ( 21140 PWs)   bands (ev):

   -41.0961 -41.0958  -3.9306  -3.7180  -3.1356  -2.1610  -0.4163  -0.0856
     1.5691   1.9352   2.6765   2.8612   3.9856   4.0297   4.8506   5.6453
     5.8284   6.6058   6.7005

          k =-0.0000-0.0000 0.3690 ( 21099 PWs)   bands (ev):

   -41.0961 -41.0958  -5.1584  -2.6165  -2.6165  -1.5288  -0.3005  -0.3005
     1.9165   2.6449   2.6449   3.3497   3.5488   3.5488   4.0768   4.0768
     4.4438   5.8931   6.7335

          k =-0.1332-0.0769 0.4920 ( 21110 PWs)   bands (ev):

   -41.0961 -41.0958  -4.8118  -3.3879  -2.3282  -1.6059  -0.7802  -0.1617
     2.1129   2.4308   2.7750   2.9698   3.5880   4.0788   4.3848   4.4984
     5.2845   5.7257   6.2388

          k = 0.5327 0.3076-0.1230 ( 21083 PWs)   bands (ev):

   -41.0961 -41.0958  -4.5704  -3.7566  -1.8845  -1.5966  -1.3665  -0.1827
     1.7423   2.5184   2.6934   3.1404   3.7542   4.0558   4.4713   4.7801
     5.1872   5.8755   6.5450

          k = 0.3995 0.2307 0.0000 ( 21127 PWs)   bands (ev):

   -41.0961 -41.0958  -4.9254  -3.1197  -2.1100  -1.7177  -1.0444  -0.0658
     1.5000   2.1156   2.8479   2.9709   3.8230   3.9028   4.3111   4.7454
     5.3659   6.1223   6.7401

          k = 0.2664 0.1538 0.1230 ( 21115 PWs)   bands (ev):

   -41.0961 -41.0958  -5.2221  -2.4957  -2.1571  -1.9168  -0.4656  -0.0133
     1.5601   1.7814   2.1865   2.7500   3.7294   4.3896   4.6740   4.8725
     5.4258   5.6138   6.2620

          k =-0.1332 0.0769 0.6150 ( 21121 PWs)   bands (ev):

   -41.0961 -41.0958  -4.4507  -3.3615  -2.7907  -1.7417  -1.1787  -0.4082
     2.0702   2.6957   2.9574   3.3683   3.9192   4.0935   4.6185   5.1631
     5.2929   5.6241   5.9757

          k = 0.5327 0.4613 0.0000 ( 21111 PWs)   bands (ev):

   -41.0961 -41.0958  -4.2213  -3.5309  -2.6831  -1.8942  -1.4184  -0.4729
     2.0793   2.2924   3.1571   3.3068   3.7042   3.9170   4.9713   5.4538
     5.9270   6.0309   6.6625

          k = 0.3995 0.3845 0.1230 ( 21107 PWs)   bands (ev):

   -41.0961 -41.0958  -4.6058  -2.9492  -2.8352  -1.7695  -1.3357  -0.1809
     1.8630   2.0334   2.8713   3.0491   3.2943   4.3083   4.5953   5.7014
     5.8637   6.1552   6.4928

          k = 0.2664 0.3076 0.2460 ( 21116 PWs)   bands (ev):

   -41.0961 -41.0958  -4.8963  -3.2673  -2.0082  -1.8757  -0.6583   0.0474
     1.6054   1.7717   2.2510   2.9205   3.3275   4.2581   4.5941   5.5672
     5.7096   5.7931   6.4027

          k = 0.5327-0.3076-0.6150 ( 21126 PWs)   bands (ev):

   -41.0961 -41.0958  -3.8105  -3.5929  -3.0698  -2.1763  -1.0836  -0.6887
     1.7843   2.3335   2.7647   2.9398   4.0846   4.9386   5.0997   5.7494
     5.9137   6.5651   6.8358

          k = 0.3995-0.3845-0.4920 ( 21113 PWs)   bands (ev):

   -41.0961 -41.0958  -4.2446  -3.5705  -2.6633  -1.9473  -1.0737  -0.3451
     1.6110   1.9152   2.6542   2.9888   4.0349   4.3497   5.0655   5.5803
     5.9183   6.4743   6.9038

          k = 0.2664-0.4613-0.3690 ( 21124 PWs)   bands (ev):

   -41.0961 -41.0958  -4.5829  -3.7870  -1.9097  -1.7153  -0.9092   0.0533
     1.5447   1.6003   2.3675   2.9940   3.5718   4.3237   4.6115   4.9970
     5.9268   6.1784   7.0697

          k = 0.3995-0.2307-0.3690 ( 21119 PWs)   bands (ev):

   -41.0961 -41.0958  -4.5496  -3.2933  -2.6532  -1.9117  -0.6578  -0.3345
     1.4565   1.8968   2.5163   3.1775   3.5365   4.3901   5.0806   5.3178
     5.4668   6.7618   7.0599

          k =-0.0000-0.0000 0.7379 ( 21087 PWs)   bands (ev):

   -41.0961 -41.0958  -4.0843  -3.0308  -3.0308  -2.1767  -1.3237  -1.3237
     1.6471   3.1158   3.8939   3.8939   4.3693   4.6097   4.6097   5.3679
     5.3679   5.6519   6.5894

          k = 0.6659 0.3845 0.1230 ( 21129 PWs)   bands (ev):

   -41.0961 -41.0958  -3.8649  -3.2500  -2.5738  -2.2749  -2.0368  -1.2427
     1.4835   2.5390   3.5262   4.0985   4.5954   4.7086   5.3335   5.7244
     5.9710   6.4043   6.5185

          k = 0.5327 0.3076 0.2460 ( 21115 PWs)   bands (ev):

   -41.0961 -41.0958  -4.2650  -2.9045  -2.6384  -2.4248  -1.5458  -0.8633
     1.4357   2.4596   3.0111   3.1949   4.0235   4.9034   5.2586   5.7482
     6.2445   6.5064   6.6823

          k = 0.6659-0.3845-0.4920 ( 21124 PWs)   bands (ev):

   -41.0961 -41.0958  -3.4525  -3.2281  -2.9054  -2.2533  -2.0263  -1.6554
     1.2212   2.1162   3.8156   4.2019   4.9708   5.4208   5.7539   5.9969
     6.2691   6.4780   6.8488

          k = 0.5327-0.4613-0.3690 ( 21132 PWs)   bands (ev):

   -41.0961 -41.0958  -3.9052  -3.3169  -2.5620  -2.3262  -1.6765  -1.2161
     1.2403   2.2496   3.2388   3.5062   4.4618   5.2764   5.6168   5.7117
     6.3271   6.6676   6.9658

          k = 0.0000 0.0000-1.1069 ( 21108 PWs)   bands (ev):

   -41.0960 -41.0958  -2.9164  -2.8126  -2.8126  -2.7823  -2.2926  -2.2926
     1.0439   1.8357   5.1809   5.1809   5.1994   5.1994   5.4113   6.6036
     6.6430   6.6608   6.6608

          k =-0.2664-0.0000-0.3690 ( 21112 PWs)   bands (ev):

   -41.0961 -41.0958  -4.9687  -3.4247  -2.0769  -1.3022  -0.6390   0.1566
     1.2612   2.0376   2.5896   3.0862   3.3358   3.6413   4.8513   4.9459
     5.0304   5.6700   6.6020

          k = 0.3995-0.3845 0.2460 ( 21099 PWs)   bands (ev):

   -41.0961 -41.0958  -4.6946  -3.8636  -1.8200  -1.3483  -0.8058   0.1086
     1.0010   2.0737   2.5373   2.9856   3.7902   3.9210   4.5009   4.9250
     5.2846   5.8223   6.6937

          k = 0.2664-0.3076 0.1230 ( 21098 PWs)   bands (ev):

   -41.0961 -41.0958  -5.0276  -3.2720  -2.0019  -1.1500  -0.9095  -0.0962
     1.1570   2.2069   2.5888   2.9184   3.2727   4.1320   4.5855   4.9691
     5.0899   6.0070   6.6563

          k = 0.3995-0.5382 0.1230 ( 21121 PWs)   bands (ev):

   -41.0961 -41.0958  -4.3522  -3.6523  -2.7496  -1.8458  -0.6332   0.1292
     1.2852   2.0549   2.6716   3.1387   3.6729   4.1705   4.3917   5.4702
     5.5663   6.2705   6.5752

          k = 0.5327-0.4613-0.0000 ( 21111 PWs)   bands (ev):

   -41.0961 -41.0958  -4.2219  -3.5283  -2.6856  -1.8977  -1.4194  -0.4576
     2.0529   2.2586   3.1270   3.3222   3.6460   4.2616   4.8650   5.4463
     5.6981   6.1066   6.2972

          k = 0.3995-0.3845-0.1230 ( 21107 PWs)   bands (ev):

   -41.0961 -41.0958  -4.6056  -2.9508  -2.8383  -1.7454  -1.3500  -0.2003
     1.8703   2.0823   2.6031   3.3056   3.6927   3.8365   4.4927   5.6211
     6.0073   6.2231   6.6029

          k = 0.2664-0.3076-0.2460 ( 21116 PWs)   bands (ev):

   -41.0961 -41.0958  -4.8962  -3.2689  -1.9858  -1.8926  -0.6926   0.1228
     1.4233   1.8132   2.2151   3.2948   3.5138   3.7653   4.6314   5.1492
     5.7715   6.1804   6.4591

          k = 0.3995 0.3845 0.4920 ( 21113 PWs)   bands (ev):

   -41.0961 -41.0958  -4.2434  -3.5739  -2.6697  -1.9232  -1.0591  -0.4148
     1.6146   2.0743   2.6476   2.9565   3.7099   4.5835   5.1198   5.4872
     5.7849   6.7260   6.8275

     the Fermi energy is     4.9855 ev

!    total energy              =     -79.02810607 Ry
     estimated scf accuracy    <          4.1E-09 Ry
     smearing contrib. (-TS)   =      -0.00062516 Ry
     internal energy E=F+TS    =     -79.02748090 Ry

     The total energy is F=E-TS. E is the sum of the following terms:
     one-electron contribution =      -3.61131202 Ry
     hartree contribution      =       9.86418208 Ry
     xc contribution           =     -24.38757039 Ry
     ewald contribution        =     -60.89278058 Ry

     convergence has been achieved in  10 iterations

     Forces acting on atoms (cartesian axes, Ry/au):

     atom    1 type  1   force =     0.00000000    0.00000000   -0.14193109
     atom    2 type  1   force =    -0.00000000   -0.00000000    0.14193109
     atom    3 type  2   force =    -0.04211103    0.04398868   -0.06131005
     atom    4 type  2   force =     0.04211103   -0.04398868    0.06131005
     atom    5 type  2   force =    -0.01703980   -0.05846356   -0.06131005
     atom    6 type  2   force =     0.01703980    0.05846356    0.06131005
     atom    7 type  2   force =     0.05915082    0.01447488   -0.06131005
     atom    8 type  2   force =    -0.05915082   -0.01447488    0.06131005
     The non-local contrib.  to forces
     atom    1 type  1   force =     0.00000000    0.00000000   -0.11463361
     atom    2 type  1   force =    -0.00000000    0.00000000    0.11463361
     atom    3 type  2   force =    -0.05853513    0.05669246   -0.11209753
     atom    4 type  2   force =     0.05853513   -0.05669246    0.11209753
     atom    5 type  2   force =    -0.01982954   -0.07903914   -0.11209753
     atom    6 type  2   force =     0.01982954    0.07903914    0.11209753
     atom    7 type  2   force =     0.07836467    0.02234668   -0.11209753
     atom    8 type  2   force =    -0.07836467   -0.02234668    0.11209753
     The ionic contribution  to forces
     atom    1 type  1   force =    -0.00000000   -0.00000000   -1.50541370
     atom    2 type  1   force =     0.00000000    0.00000000    1.50541370
     atom    3 type  2   force =    -0.78804828    0.60531297   -0.09906564
     atom    4 type  2   force =     0.78804828   -0.60531297    0.09906564
     atom    5 type  2   force =    -0.13019227   -0.98512631   -0.09906564
     atom    6 type  2   force =     0.13019227    0.98512631    0.09906564
     atom    7 type  2   force =     0.91824055    0.37981334   -0.09906564
     atom    8 type  2   force =    -0.91824055   -0.37981334    0.09906564
     The local contribution  to forces
     atom    1 type  1   force =     0.00000000    0.00000000    1.47808386
     atom    2 type  1   force =    -0.00000000   -0.00000000   -1.47808386
     atom    3 type  2   force =     0.80050962   -0.61409450    0.14284139
     atom    4 type  2   force =    -0.80050962    0.61409450   -0.14284139
     atom    5 type  2   force =     0.13156663    1.00030892    0.14284139
     atom    6 type  2   force =    -0.13156663   -1.00030892   -0.14284139
     atom    7 type  2   force =    -0.93207625   -0.38621442    0.14284139
     atom    8 type  2   force =     0.93207625    0.38621442   -0.14284139
     The core correction contribution to forces
     atom    1 type  1   force =     0.00000000    0.00000000    0.00000000
     atom    2 type  1   force =     0.00000000    0.00000000    0.00000000
     atom    3 type  2   force =     0.00393922   -0.00390948    0.00703255
     atom    4 type  2   force =    -0.00393922    0.00390948   -0.00703255
     atom    5 type  2   force =     0.00141610    0.00536621    0.00703255
     atom    6 type  2   force =    -0.00141610   -0.00536621   -0.00703255
     atom    7 type  2   force =    -0.00535532   -0.00145673    0.00703255
     atom    8 type  2   force =     0.00535532    0.00145673   -0.00703255
     The Hubbard contrib.    to forces
     atom    1 type  1   force =     0.00000000    0.00000000    0.00000000
     atom    2 type  1   force =     0.00000000    0.00000000    0.00000000
     atom    3 type  2   force =     0.00000000    0.00000000    0.00000000
     atom    4 type  2   force =     0.00000000    0.00000000    0.00000000
     atom    5 type  2   force =     0.00000000    0.00000000    0.00000000
     atom    6 type  2   force =     0.00000000    0.00000000    0.00000000
     atom    7 type  2   force =     0.00000000    0.00000000    0.00000000
     atom    8 type  2   force =     0.00000000    0.00000000    0.00000000
     The SCF correction term to forces
     atom    1 type  1   force =    -0.00000000    0.00000000    0.00003237
     atom    2 type  1   force =    -0.00000000    0.00000000   -0.00003237
     atom    3 type  2   force =     0.00002354   -0.00001277   -0.00002083
     atom    4 type  2   force =    -0.00002354    0.00001277    0.00002083
     atom    5 type  2   force =    -0.00000071    0.00002678   -0.00002083
     atom    6 type  2   force =     0.00000071   -0.00002678    0.00002083
     atom    7 type  2   force =    -0.00002283   -0.00001400   -0.00002083
     atom    8 type  2   force =     0.00002283    0.00001400    0.00002083

     Total force =     0.291706     Total SCF correction =     0.000095


     Computing stress (Cartesian axis) and pressure

          total   stress  (Ry/bohr**3)                   (kbar)     P=      -45.06
  -0.00037692  -0.00000000   0.00000000          -55.45       -0.00        0.00
   0.00000000  -0.00037692  -0.00000000            0.00      -55.45       -0.00
   0.00000000  -0.00000000  -0.00016507            0.00       -0.00      -24.28

     Energy error            =      1.5E+00 Ry
     Gradient error          =      1.4E-01 Ry/Bohr
     Cell gradient error     =      5.6E+02 kbar

     number of scf cycles    =   3
     number of bfgs steps    =   2

     enthalpy           old  =     -73.8733184093 Ry
     enthalpy           new  =     -75.3498195427 Ry

     CASE: enthalpy          _new < enthalpy          _old

     new trust radius        =       0.8000000000 bohr
ibrav =      5
 celldm(1) =      9.07298189
 celldm(4) =     -0.07254385
Input lattice vectors:
     0.54963689    -0.31733301     0.40066693
     0.00000000     0.63466601     0.40066693
    -0.54963689    -0.31733301     0.40066693
New lattice vectors in INITIAL alat:
     0.54963689    -0.31733301     0.40066693
     0.00000000     0.63466601     0.40066693
    -0.54963689    -0.31733301     0.40066693
New lattice vectors in NEW alat (for information only):
     0.73230590    -0.42279701     0.53382653
     0.00000000     0.84559401     0.53382653
    -0.73230590    -0.42279701     0.53382653
Discrepancy in bohr =     0.000000    0.000000    0.000000
     new conv_thr            =       0.0000000100 Ry

     new unit-cell volume =    740.67208 a.u.^3 (   109.75628 Ang^3 )
     density =      2.75951 g/cm^3

CELL_PARAMETERS (alat= 12.08834097)
   0.549636889  -0.317333006   0.400666929
   0.000000000   0.634666012   0.400666929
  -0.549636889  -0.317333006   0.400666929

ATOMIC_POSITIONS (crystal)
Li            0.2053648713        0.2053648713        0.2053648713
Li            0.7946351287        0.7946351287        0.7946351287
Si            1.3883013856       -0.1663566590        0.7020586224
Si           -0.3883013856        0.1663566590        1.2979413776
Si            0.7020586224        0.3883013856        0.8336433410
Si            0.2979413776       -0.3883013856        1.1663566590
Si            0.8336433410       -0.2979413776        1.3883013856
Si            0.1663566590        0.2979413776        0.6116986144



     Writing config-only to output data dir ./output/LiSi.save/
     NEW-OLD atomic charge density approx. for the potential

     negative rho (up, down):  7.861E-03 0.000E+00
     extrapolated charge   16.17317, renormalised to   30.00000

     total cpu time spent up to now is      177.9 secs

     Self-consistent Calculation

     iteration #  1     ecut=    80.00 Ry     beta= 0.70
     Davidson diagonalization with overlap
     c_bands:  1 eigenvalues not converged
     c_bands:  1 eigenvalues not converged
     c_bands:  1 eigenvalues not converged
     c_bands:  1 eigenvalues not converged
     c_bands:  1 eigenvalues not converged
     c_bands:  1 eigenvalues not converged
     c_bands:  2 eigenvalues not converged
     c_bands:  2 eigenvalues not converged
     c_bands:  1 eigenvalues not converged
     c_bands:  1 eigenvalues not converged
     c_bands:  1 eigenvalues not converged
     c_bands:  1 eigenvalues not converged
     c_bands:  1 eigenvalues not converged
     c_bands:  1 eigenvalues not converged
     c_bands:  1 eigenvalues not converged
     c_bands:  1 eigenvalues not converged
     ethr =  1.00E-06,  avg # of iterations = 18.4

     total cpu time spent up to now is      190.5 secs

     total energy              =     -77.23547471 Ry
     estimated scf accuracy    <       2.41865809 Ry

     iteration #  2     ecut=    80.00 Ry     beta= 0.70
     Davidson diagonalization with overlap
     ethr =  8.06E-03,  avg # of iterations =  3.3

     total cpu time spent up to now is      194.1 secs

     total energy              =     -78.84481929 Ry
     estimated scf accuracy    <       3.06638385 Ry

     iteration #  3     ecut=    80.00 Ry     beta= 0.70
     Davidson diagonalization with overlap
     ethr =  8.06E-03,  avg # of iterations =  2.0

     total cpu time spent up to now is      196.7 secs

     total energy              =     -79.00538099 Ry
     estimated scf accuracy    <       0.30593559 Ry

     iteration #  4     ecut=    80.00 Ry     beta= 0.70
     Davidson diagonalization with overlap
     ethr =  1.02E-03,  avg # of iterations =  3.1

     total cpu time spent up to now is      199.8 secs

     total energy              =     -79.09797807 Ry
     estimated scf accuracy    <       0.01036932 Ry

     iteration #  5     ecut=    80.00 Ry     beta= 0.70
     Davidson diagonalization with overlap
     ethr =  3.46E-05,  avg # of iterations =  6.0

     total cpu time spent up to now is      204.0 secs

     total energy              =     -79.09992911 Ry
     estimated scf accuracy    <       0.00918590 Ry

     iteration #  6     ecut=    80.00 Ry     beta= 0.70
     Davidson diagonalization with overlap
     ethr =  3.06E-05,  avg # of iterations =  2.1

     total cpu time spent up to now is      207.0 secs

     total energy              =     -79.10262011 Ry
     estimated scf accuracy    <       0.00093578 Ry

     iteration #  7     ecut=    80.00 Ry     beta= 0.70
     Davidson diagonalization with overlap
     ethr =  3.12E-06,  avg # of iterations =  4.9

     total cpu time spent up to now is      210.1 secs

     total energy              =     -79.10275754 Ry
     estimated scf accuracy    <       0.00002235 Ry

     iteration #  8     ecut=    80.00 Ry     beta= 0.70
     Davidson diagonalization with overlap
     ethr =  7.45E-08,  avg # of iterations =  3.9

     total cpu time spent up to now is      213.5 secs

     total energy              =     -79.10277196 Ry
     estimated scf accuracy    <       0.00000959 Ry

     iteration #  9     ecut=    80.00 Ry     beta= 0.70
     Davidson diagonalization with overlap
     ethr =  3.20E-08,  avg # of iterations =  2.5

     total cpu time spent up to now is      216.3 secs

     total energy              =     -79.10277328 Ry
     estimated scf accuracy    <       0.00000030 Ry

     iteration # 10     ecut=    80.00 Ry     beta= 0.70
     Davidson diagonalization with overlap
     ethr =  9.97E-10,  avg # of iterations =  4.6

     total cpu time spent up to now is      219.9 secs

     End of self-consistent calculation

          k = 0.0000 0.0000 0.0000 ( 21091 PWs)   bands (ev):

   -37.2995 -37.2967  -4.2071   1.2877   1.2877   1.5555   1.5555   2.8253
     3.2246   6.3586   6.7651   6.7651   7.1086   7.1086   8.0874   8.0874
     9.3769   9.3770   9.4566

          k =-0.1516-0.0875 0.1387 ( 21107 PWs)   bands (ev):

   -37.2994 -37.2968  -4.0568  -0.0711   1.3950   1.7525   2.3430   2.7955
     4.2819   5.0068   5.9747   6.6699   6.9764   7.4409   7.9062   8.7056
     9.3432   9.6453  10.4159

          k =-0.3032-0.1751 0.2773 ( 21104 PWs)   bands (ev):

   -37.2993 -37.2969  -3.6322  -1.3938   1.7544   2.2345   2.6419   3.0123
     3.7129   5.1557   5.3393   6.2750   6.5235   7.3717   8.3506   9.0793
     9.7637  10.2789  10.4733

          k = 0.4548 0.2626-0.4160 ( 21146 PWs)   bands (ev):

   -37.2992 -37.2970  -3.2301  -2.1034   2.1787   2.5199   2.7574   3.0446
     3.1789   4.5032   5.0374   6.0090   7.6361   8.0257   8.3264   8.9467
     9.4432   9.7076  10.6716

          k =-0.1516 0.0875 0.2773 ( 21131 PWs)   bands (ev):

   -37.2993 -37.2969  -3.8821  -0.3824   0.4380   2.1441   2.4983   3.7613
     4.6715   5.1492   5.2760   6.1528   6.7364   7.2462   8.0704   8.6251
     8.7528   9.8765  11.0415

          k =-0.3032 0.0000 0.4160 ( 21112 PWs)   bands (ev):

   -37.2992 -37.2970  -3.4360  -1.4063   0.5134   2.2339   2.7310   3.8387
     4.2388   4.7414   5.8687   6.1905   6.3957   6.8550   8.4011   8.8518
     9.6776  10.3080  11.0981

          k = 0.4548 0.4377-0.2773 ( 21099 PWs)   bands (ev):

   -37.2991 -37.2970  -3.0755  -1.9824   0.9343   1.9775   2.8752   3.0574
     4.1699   4.7846   5.4476   6.3981   6.9025   7.5218   8.3629   9.2853
     9.3488  10.0238  11.0202

          k = 0.3032 0.3501-0.1387 ( 21098 PWs)   bands (ev):

   -37.2992 -37.2969  -3.5231  -1.1607   0.7149   2.2303   2.4946   2.8975
     4.2472   5.0146   5.8859   6.1263   6.8116   7.7260   7.8421   9.1815
     9.3803  10.0203  11.1152

          k = 0.1516 0.2626 0.0000 ( 21091 PWs)   bands (ev):

   -37.2994 -37.2968  -3.9299   0.1476   0.2938   2.0842   2.2197   3.7674
     4.0762   4.4306   5.4572   6.4760   7.2633   7.5072   8.9313   9.1270
     9.3282   9.5884  10.2128

          k =-0.3032 0.1751 0.5546 ( 21113 PWs)   bands (ev):

   -37.2991 -37.2970  -2.9609  -1.4818  -0.3742   1.5845   2.9138   3.8657
     4.2800   5.0319   5.5770   6.0818   7.1445   7.6887   8.4472   8.5670
     9.3241  10.6696  11.4827

          k = 0.4548 0.6127-0.1387 ( 21121 PWs)   bands (ev):

   -37.2990 -37.2970  -2.6250  -1.7144  -0.3274   0.9153   3.1365   3.5395
     4.3060   4.9679   5.6257   6.3921   7.1281   7.8160   8.0831   9.4286
     9.7417  10.6208  11.7414

          k = 0.3032 0.5252 0.0000 ( 21107 PWs)   bands (ev):

   -37.2991 -37.2969  -3.1270  -0.8993  -0.5032   1.3214   2.7914   3.1822
     4.4663   5.3721   6.1819   6.4770   6.5977   7.0763   8.1146   8.6423
    10.2857  10.6090  11.9167

          k = 0.4548-0.2626-0.8319 ( 21140 PWs)   bands (ev):

   -37.2990 -37.2970  -2.0587  -1.8513  -0.7765   0.3587   3.4496   3.9599
     4.0834   4.6337   5.4093   6.2936   7.3628   7.6356   9.1547  10.0380
    10.1163  11.0343  11.2379

          k =-0.0000 0.0000 0.4160 ( 21099 PWs)   bands (ev):

   -37.2992 -37.2969  -3.6843  -0.3119  -0.3119   1.5268   3.6662   3.6662
     4.7435   5.2228   5.2228   6.8912   7.4405   7.4405   7.6765   7.6765
     7.9020   9.6449  11.3305

          k =-0.1516-0.0875 0.5546 ( 21110 PWs)   bands (ev):

   -37.2991 -37.2970  -3.2192  -1.3673   0.0793   1.4366   2.6977   3.5218
     5.1119   5.2875   6.0714   6.1658   7.1007   7.7663   8.0200   8.3033
     9.5383   9.6990  10.3818

          k = 0.6065 0.3501-0.1387 ( 21083 PWs)   bands (ev):

   -37.2991 -37.2970  -2.9101  -1.8263   0.6743   1.4834   1.6862   3.2263
     4.7863   5.5406   6.1109   6.4206   7.2323   7.9796   8.1813   8.5481
     9.3220   9.8921  11.0279

          k = 0.4548 0.2626 0.0000 ( 21127 PWs)   bands (ev):

   -37.2992 -37.2969  -3.3904  -0.9154   0.4156   1.2340   2.1075   3.6089
     4.2194   5.1172   6.2169   6.4910   7.3900   7.5873   7.7209   8.5410
[...]
     Davidson diagonalization with overlap
     ethr =  6.75E-05,  avg # of iterations =  2.1

     total cpu time spent up to now is     1047.3 secs

     total energy              =     -79.14869142 Ry
     estimated scf accuracy    <       0.00170997 Ry

     iteration #  4     ecut=    80.00 Ry     beta= 0.70
     Davidson diagonalization with overlap
     ethr =  5.70E-06,  avg # of iterations =  2.5

     total cpu time spent up to now is     1048.1 secs

     total energy              =     -79.14885882 Ry
     estimated scf accuracy    <       0.00006702 Ry

     iteration #  5     ecut=    80.00 Ry     beta= 0.70
     Davidson diagonalization with overlap
     ethr =  2.23E-07,  avg # of iterations =  4.0

     total cpu time spent up to now is     1049.2 secs

     total energy              =     -79.14890127 Ry
     estimated scf accuracy    <       0.00001504 Ry

     iteration #  6     ecut=    80.00 Ry     beta= 0.70
     Davidson diagonalization with overlap
     ethr =  5.01E-08,  avg # of iterations =  2.3

     total cpu time spent up to now is     1050.1 secs

     total energy              =     -79.14890453 Ry
     estimated scf accuracy    <       0.00000005 Ry

     iteration #  7     ecut=    80.00 Ry     beta= 0.70
     Davidson diagonalization with overlap
     ethr =  1.57E-10,  avg # of iterations =  6.8

     total cpu time spent up to now is     1051.7 secs

     total energy              =     -79.14890470 Ry
     estimated scf accuracy    <       0.00000019 Ry

     iteration #  8     ecut=    80.00 Ry     beta= 0.70
     Davidson diagonalization with overlap
     ethr =  1.57E-10,  avg # of iterations =  2.6

     total cpu time spent up to now is     1052.6 secs

     total energy              =     -79.14890473 Ry
     estimated scf accuracy    <          2.1E-09 Ry

     iteration #  9     ecut=    80.00 Ry     beta= 0.70
     Davidson diagonalization with overlap
     ethr =  6.96E-12,  avg # of iterations =  4.3

     total cpu time spent up to now is     1053.8 secs

     total energy              =     -79.14890473 Ry
     estimated scf accuracy    <          3.6E-10 Ry

     iteration # 10     ecut=    80.00 Ry     beta= 0.70
     Davidson diagonalization with overlap
     ethr =  1.19E-12,  avg # of iterations =  2.0

     total cpu time spent up to now is     1054.6 secs

     End of self-consistent calculation

          k = 0.0000 0.0000 0.0000 (  6667 PWs)   bands (ev):

   -33.2038 -33.0522  -2.8748   3.7161   3.7161   3.9690   3.9690   6.0558
     6.1870  10.5807  10.5807  10.7677  10.7677  11.1405  12.0892  12.3339
    12.3339  12.7567  12.7567

          k =-0.1726-0.0997 0.1438 (  6680 PWs)   bands (ev):

   -33.2035 -33.0524  -2.6949   2.1015   3.9107   4.1379   5.0332   5.8997
     7.3082   8.9994   9.4351   9.8049  10.3317  11.8784  12.3833  12.4970
    12.7649  13.6627  14.6356

          k =-0.3453-0.1993 0.2877 (  6650 PWs)   bands (ev):

   -33.2029 -33.0528  -2.1903   0.5393   4.4667   4.5956   5.6278   6.0758
     7.0536   7.9133   8.6668   8.8068  10.5643  12.2765  12.6944  12.9259
    13.1513  14.7198  15.3746

          k = 0.5179 0.2990-0.4315 (  6650 PWs)   bands (ev):

   -33.2026 -33.0530  -1.7242  -0.2906   4.8949   5.1650   5.7892   5.9357
     6.5448   7.1805   8.1523   8.4809  12.3715  12.5515  12.8420  12.8464
    13.7505  13.9618  14.8553

          k =-0.1726 0.0997 0.2877 (  6665 PWs)   bands (ev):

   -33.2032 -33.0527  -2.5027   1.7787   2.8768   4.6585   5.5456   6.4341
     7.5560   8.0353   9.2773   9.4096  10.6711  11.2857  11.9566  12.4048
    13.8520  14.4255  14.9948

          k =-0.3453-0.0000 0.4315 (  6668 PWs)   bands (ev):

   -33.2026 -33.0530  -1.9835   0.5805   3.0067   4.9796   5.7813   6.0362
     7.5058   7.7880   8.7792  10.0257  10.3508  11.1880  11.4189  13.0080
    14.5508  14.8609  15.3869

          k = 0.5179 0.4983-0.2877 (  6651 PWs)   bands (ev):

   -33.2023 -33.0532  -1.5285  -0.1551   3.3612   4.7546   5.7993   6.0388
     7.1880   7.3493   8.9437   9.7917  11.0614  11.1795  12.1196  12.6610
    14.1995  15.2979  15.7201

          k = 0.3453 0.3987-0.1438 (  6657 PWs)   bands (ev):

   -33.2026 -33.0530  -2.0255   0.7557   2.8955   5.2684   5.4792   5.5633
     7.7794   8.2075   8.5581  10.0019  10.6288  10.9744  11.6938  12.9522
    13.9912  14.4945  15.4930

          k = 0.1726 0.2990 0.0000 (  6671 PWs)   bands (ev):

   -33.2033 -33.0526  -2.5249   2.3160   2.4203   4.8303   4.8939   6.7528
     7.4106   8.3100   9.3069   9.5169  10.4026  11.1168  12.5193  12.8563
    13.6438  14.2674  14.3981

          k =-0.3453 0.1993 0.5754 (  6666 PWs)   bands (ev):

   -33.2020 -33.0534  -1.4329   0.5200   1.9145   4.0870   6.0008   6.0940
     7.9463   8.0621   9.2847   9.5234  10.5478  10.8997  11.6513  13.3372
    13.8247  15.2261  16.9793

          k = 0.5179 0.6977-0.1438 (  6645 PWs)   bands (ev):

   -33.2017 -33.0535  -0.9586   0.1597   1.7554   3.4784   6.3324   6.3867
     7.5621   7.6537   9.3589   9.4624  10.8462  11.3332  11.8276  13.2039
    14.5888  15.6260  16.5153

          k = 0.3453 0.5980 0.0000 (  6644 PWs)   bands (ev):

   -33.2021 -33.0533  -1.5195   1.1000   1.3868   4.1931   5.8274   5.8634
     8.0825   8.3324   9.3734   9.4991  10.5661  10.9026  11.5754  13.4547
    13.8871  14.4350  17.2246

          k = 0.5179-0.2990-0.8631 (  6666 PWs)   bands (ev):

   -33.2015 -33.0537  -0.2783   0.0970   1.0278   2.8831   6.6467   6.6551
     8.1139   8.1745   8.2460   8.4067  10.6732  11.2530  14.3764  14.7483
    14.8921  15.3438  15.5068

          k = 0.0000-0.0000 0.4315 (  6676 PWs)   bands (ev):

   -33.2029 -33.0529  -2.3002   1.9499   1.9499   4.5466   6.4378   6.4378
     7.7417   7.7417   7.8141  10.3020  11.6547  11.6837  11.6837  12.5486
    12.5486  13.4385  16.3241

          k =-0.1726-0.0997 0.5754 (  6662 PWs)   bands (ev):

   -33.2023 -33.0532  -1.7693   0.6755   2.4754   4.4673   5.3220   6.2053
     7.6352   8.3173   8.8768  10.2816  10.4628  10.8401  12.5152  12.8870
    14.1504  14.4984  15.7706

          k = 0.6905 0.3987-0.1438 (  6656 PWs)   bands (ev):

   -33.2020 -33.0534  -1.3271  -0.0012   3.0274   4.3742   4.4251   5.9758
     7.8487   8.9011   9.1303   9.5975  10.0403  11.1522  13.0677  13.3650
    14.2982  14.8992  15.7122

          k = 0.5179 0.2990 0.0000 (  6655 PWs)   bands (ev):

   -33.2024 -33.0532  -1.8493   0.9765   2.5467   3.9148   5.1849   6.4761
     7.5484   8.3682   9.1255  10.1738  10.5266  11.0246  12.0547  12.8819
    13.9518  15.4357  15.7253

          k = 0.3453 0.1993 0.1438 (  6661 PWs)   bands (ev):

   -33.2030 -33.0528  -2.3423   1.9901   2.6381   3.4034   6.3912   6.7762
     7.5112   7.9486   8.5391   9.1800  11.3712  11.8945  12.4497  12.6166
    12.7929  13.7539  15.3330

          k =-0.1726 0.0997 0.7192 (  6649 PWs)   bands (ev):

   -33.2017 -33.0536  -1.2112   0.7037   1.7591   4.0011   4.5126   5.8027
     7.6438   8.5318   9.4697  10.3096  10.8790  11.8491  12.5165  13.5269
    14.2073  14.8597  15.7786

          k = 0.6905 0.5980 0.0000 (  6634 PWs)   bands (ev):

   -33.2015 -33.0537  -0.7500   0.3460   1.8149   3.3961   4.4417   5.6903
     7.3971   8.4803   9.4778  10.2763  11.6766  12.2445  12.5047  13.5765
    14.8747  16.0029  16.0903

          k = 0.5179 0.4983 0.1438 (  6648 PWs)   bands (ev):

   -33.2018 -33.0535  -1.3281   1.2364   1.5191   3.8568   4.2346   6.2008
     7.2405   8.4807   9.5059  10.7587  11.1364  11.2895  12.3126  13.9232
    14.0678  14.9198  16.1548

          k = 0.3453 0.3987 0.2877 (  6654 PWs)   bands (ev):

   -33.2024 -33.0532  -1.8270   0.7875   3.1457   3.3628   5.6202   6.2525
     7.6494   8.0732   8.9754  10.1272  10.4786  11.4891  11.6923  13.3527
    13.7640  15.4173  15.8617

          k = 0.6905-0.3987-0.7192 (  6656 PWs)   bands (ev):

   -33.2012 -33.0538  -0.0721   0.2917   1.1556   2.8943   4.8438   5.3836
     6.9442   8.1433   9.8053  10.3175  11.7153  12.4834  14.5355  14.8816
    15.0849  15.5119  15.6943

          k = 0.5179-0.4983-0.5754 (  6651 PWs)   bands (ev):

   -33.2015 -33.0537  -0.7704   0.3013   1.9609   3.4750   4.3993   5.5419
     7.3189   8.4505   9.3553  10.6882  11.1586  11.9599  13.2987  13.7902
    14.4901  15.7853  16.3169

          k = 0.3453-0.5980-0.4315 (  6650 PWs)   bands (ev):

   -33.2020 -33.0533  -1.3373  -0.0269   3.4897   3.7539   4.8137   5.7320
     7.9526   8.5719   8.9976   9.4231  10.4247  11.3177  13.3218  13.4830
    14.0192  14.6339  15.5714

          k = 0.5179-0.2990-0.4315 (  6649 PWs)   bands (ev):

   -33.2018 -33.0535  -1.2799   0.7240   2.1525   3.4570   4.8215   5.7089
     7.3401   8.4065   9.8068  10.5470  10.7824  11.4194  12.5197  13.5021
    14.2574  15.7331  16.1205

          k = 0.0000-0.0000 0.8631 (  6616 PWs)   bands (ev):

   -33.2012 -33.0539  -0.6359   1.2449   1.2449   3.4883   4.1268   4.1268
     6.7671   8.1095  11.1116  11.1116  12.9350  13.4311  13.4311  14.0967
    14.3592  14.3592  16.6262

          k = 0.8631 0.4983 0.1438 (  6645 PWs)   bands (ev):

   -33.2009 -33.0540  -0.1581   0.7974   1.7904   3.1152   3.1731   4.3255
     6.2947   7.6972  11.5960  12.5192  12.7328  13.2666  14.3616  14.4766
    15.1320  15.9814  16.4203

          k = 0.6905 0.3987 0.2877 (  6644 PWs)   bands (ev):

   -33.2012 -33.0538  -0.7787   1.2809   1.9313   2.5840   4.0504   4.7238
     6.3431   8.1363  11.1540  11.7171  11.8340  13.0748  14.0318  14.0966
    14.4029  15.0218  16.4611

          k = 0.8631-0.4983-0.5754 (  6667 PWs)   bands (ev):

   -33.2007 -33.0541   0.5396   0.8431   1.4801   2.8523   3.0737   3.6836
     5.8303   7.2934  12.5577  13.0201  13.9743  14.3028  14.9894  15.2286
    15.6737  15.9739  16.2061

          k = 0.6905-0.5980-0.4315 (  6654 PWs)   bands (ev):

   -33.2010 -33.0540  -0.2028   0.7072   2.3196   2.5456   3.5968   4.1226
     6.1455   7.6768  11.9967  12.0375  12.7312  13.4590  14.3906  14.5100
    15.0395  15.6817  16.2345

          k =-0.0000-0.0000-1.2946 (  6692 PWs)   bands (ev):

   -33.2004 -33.0543   1.3740   1.3740   1.5917   1.9673   2.7595   2.7595
     5.4398   6.9334  15.0178  15.0178  15.0673  15.4110  15.4111  15.9097
    15.9097  15.9678  16.6363

          k =-0.3453 0.0000-0.4315 (  6668 PWs)   bands (ev):

   -33.2026 -33.0530  -1.9835   0.5794   3.0222   4.9573   5.6565   6.1123
     7.4491   8.1805   8.7777   9.5385  10.5242  10.9688  11.3127  13.9356
    14.5830  14.7905  15.1541

          k = 0.5179-0.4983 0.2877 (  6651 PWs)   bands (ev):

   -33.2023 -33.0532  -1.5284  -0.1559   3.3902   4.7649   5.6203   5.8814
     7.6096   7.8114   8.5153   9.5037  10.7480  10.9814  12.5650  13.3813
    13.9566  15.0294  15.7554

          k = 0.3453-0.3987 0.1438 (  6657 PWs)   bands (ev):

   -33.2026 -33.0530  -2.0255   0.7549   2.9063   5.2118   5.4141   5.6352
     7.8765   8.3387   8.5579   9.8064  10.5073  11.0122  11.3818  13.5947
    13.9298  14.8722  15.5477

          k = 0.5179-0.6977 0.1438 (  6645 PWs)   bands (ev):

   -33.2017 -33.0535  -0.9583   0.1570   1.7646   3.4785   6.1699   6.2788
     7.9754   8.0903   9.0097   9.1709  10.6182  10.8501  12.7640  13.3349
    14.3581  15.6888  16.8004

          k = 0.6905-0.5980-0.0000 (  6634 PWs)   bands (ev):

   -33.2015 -33.0537  -0.7498   0.3441   1.8211   3.3951   4.4347   5.6538
     7.4666   8.6321   9.2622  10.5465  11.0909  11.9743  13.1038  13.9656
    14.5186  15.8848  16.3656

          k = 0.5179-0.4983-0.1438 (  6648 PWs)   bands (ev):

   -33.2018 -33.0535  -1.3281   1.2409   1.5120   3.8796   4.2198   6.1713
     7.2262   8.6757   9.3603  10.4752  11.2620  11.4753  12.3779  13.8176
    14.1564  14.5704  16.4917

          k = 0.3453-0.3987-0.2877 (  6654 PWs)   bands (ev):

   -33.2024 -33.0532  -1.8269   0.7871   3.1329   3.3832   5.6003   6.2558
     7.5039   8.3611   8.9704  10.0356  10.3348  11.1631  12.2199  13.4396
    13.8848  14.7262  15.9337

          k = 0.5179 0.4983 0.5754 (  6651 PWs)   bands (ev):

   -33.2015 -33.0537  -0.7707   0.3035   1.9504   3.4887   4.3959   5.5802
     7.2513   8.3291   9.5021  10.4791  11.7596  12.1793  12.7017  13.4140
    14.7388  15.6396  16.1638

     the Fermi energy is    13.1006 ev

!    total energy              =     -79.14890473 Ry
     estimated scf accuracy    <          2.0E-12 Ry
     smearing contrib. (-TS)   =       0.00107890 Ry
     internal energy E=F+TS    =     -79.14998363 Ry

     The total energy is F=E-TS. E is the sum of the following terms:
     one-electron contribution =      21.36862161 Ry
     hartree contribution      =       5.98725998 Ry
     xc contribution           =     -27.01053536 Ry
     ewald contribution        =     -79.49532987 Ry

     convergence has been achieved in  10 iterations

     Forces acting on atoms (cartesian axes, Ry/au):

     atom    1 type  1   force =    -0.00000000    0.00000000   -0.00068972
     atom    2 type  1   force =     0.00000000   -0.00000000    0.00068972
     atom    3 type  2   force =     0.00077539   -0.00063690    0.00058612
     atom    4 type  2   force =    -0.00077539    0.00063690   -0.00058612
     atom    5 type  2   force =     0.00016388    0.00098995    0.00058612
     atom    6 type  2   force =    -0.00016388   -0.00098995   -0.00058612
     atom    7 type  2   force =    -0.00093926   -0.00035306    0.00058612
     atom    8 type  2   force =     0.00093926    0.00035306   -0.00058612
     The non-local contrib.  to forces
     atom    1 type  1   force =     0.00000000    0.00000000   -0.03770341
     atom    2 type  1   force =    -0.00000000   -0.00000000    0.03770341
     atom    3 type  2   force =     0.04401695   -0.00162578   -0.01234785
     atom    4 type  2   force =    -0.04401695    0.00162578    0.01234785
     atom    5 type  2   force =    -0.02060050    0.03893269   -0.01234785
     atom    6 type  2   force =     0.02060050   -0.03893269    0.01234785
     atom    7 type  2   force =    -0.02341644   -0.03730690   -0.01234785
     atom    8 type  2   force =     0.02341644    0.03730690    0.01234785
     The ionic contribution  to forces
     atom    1 type  1   force =    -0.00000000    0.00000000    0.09773496
     atom    2 type  1   force =     0.00000000   -0.00000000   -0.09773496
     atom    3 type  2   force =    -0.10108874    0.02196882    0.06628608
     atom    4 type  2   force =     0.10108874   -0.02196882   -0.06628608
     atom    5 type  2   force =     0.03151882   -0.09852983    0.06628608
     atom    6 type  2   force =    -0.03151882    0.09852983   -0.06628608
     atom    7 type  2   force =     0.06956993    0.07656101    0.06628608
     atom    8 type  2   force =    -0.06956993   -0.07656101   -0.06628608
     The local contribution  to forces
     atom    1 type  1   force =     0.00000000    0.00000000   -0.06072056
     atom    2 type  1   force =     0.00000000   -0.00000000    0.06072056
     atom    3 type  2   force =     0.05977113   -0.02138529   -0.05341601
     atom    4 type  2   force =    -0.05977113    0.02138529    0.05341601
     atom    5 type  2   force =    -0.01136536    0.06245596   -0.05341601
     atom    6 type  2   force =     0.01136536   -0.06245596    0.05341601
     atom    7 type  2   force =    -0.04840577   -0.04107067   -0.05341601
     atom    8 type  2   force =     0.04840577    0.04107067    0.05341601
     The core correction contribution to forces
     atom    1 type  1   force =     0.00000000    0.00000000    0.00000000
     atom    2 type  1   force =     0.00000000    0.00000000    0.00000000
     atom    3 type  2   force =    -0.00192327    0.00040499    0.00006359
     atom    4 type  2   force =     0.00192327   -0.00040499   -0.00006359
     atom    5 type  2   force =     0.00061090   -0.00186810    0.00006359
     atom    6 type  2   force =    -0.00061090    0.00186810   -0.00006359
     atom    7 type  2   force =     0.00131237    0.00146311    0.00006359
     atom    8 type  2   force =    -0.00131237   -0.00146311   -0.00006359
     The Hubbard contrib.    to forces
     atom    1 type  1   force =     0.00000000    0.00000000    0.00000000
     atom    2 type  1   force =     0.00000000    0.00000000    0.00000000
     atom    3 type  2   force =     0.00000000    0.00000000    0.00000000
     atom    4 type  2   force =     0.00000000    0.00000000    0.00000000
     atom    5 type  2   force =     0.00000000    0.00000000    0.00000000
     atom    6 type  2   force =     0.00000000    0.00000000    0.00000000
     atom    7 type  2   force =     0.00000000    0.00000000    0.00000000
     atom    8 type  2   force =     0.00000000    0.00000000    0.00000000
     The SCF correction term to forces
     atom    1 type  1   force =    -0.00000000   -0.00000000   -0.00000071
     atom    2 type  1   force =     0.00000000    0.00000000    0.00000071
     atom    3 type  2   force =    -0.00000068    0.00000037    0.00000031
     atom    4 type  2   force =     0.00000068   -0.00000037   -0.00000031
     atom    5 type  2   force =     0.00000002   -0.00000077    0.00000031
     atom    6 type  2   force =    -0.00000002    0.00000077   -0.00000031
     atom    7 type  2   force =     0.00000066    0.00000040    0.00000031
     atom    8 type  2   force =    -0.00000066   -0.00000040   -0.00000031

     Total force =     0.003009     Total SCF correction =     0.000002


     Computing stress (Cartesian axis) and pressure

          total   stress  (Ry/bohr**3)                   (kbar)     P=      499.80
   0.00339478   0.00000000  -0.00000000          499.39        0.00       -0.00
  -0.00000000   0.00339478   0.00000000           -0.00      499.39        0.00
  -0.00000000   0.00000000   0.00340319           -0.00        0.00      500.63


     Writing all to output data dir ./output/LiSi.save/

     init_run     :      4.51s CPU      4.99s WALL (       2 calls)
     electrons    :    676.94s CPU    740.53s WALL (      29 calls)
     update_pot   :     43.60s CPU     43.94s WALL (      27 calls)
     forces       :     35.52s CPU     35.91s WALL (      29 calls)
     stress       :    224.92s CPU    230.97s WALL (      29 calls)

     Called by init_run:
     wfcinit      :      2.26s CPU      2.49s WALL (       2 calls)
     potinit      :      1.06s CPU      1.14s WALL (       2 calls)
     hinit0       :      1.08s CPU      1.18s WALL (       2 calls)

     Called by electrons:
     c_bands      :    610.56s CPU    664.61s WALL (     209 calls)
     sum_band     :     61.16s CPU     69.04s WALL (     209 calls)
     v_of_rho     :      5.24s CPU      6.07s WALL (     231 calls)
     mix_rho      :      0.41s CPU      0.55s WALL (     209 calls)

     Called by c_bands:
     init_us_2    :     16.75s CPU     17.99s WALL (   19120 calls)
     init_us_2:cp :     16.71s CPU     17.97s WALL (   19120 calls)
     cegterg      :    556.01s CPU    606.74s WALL (    8360 calls)

     Called by *egterg:
     cdiaghg      :     16.38s CPU     16.92s WALL (   40904 calls)
     h_psi        :    468.70s CPU    518.24s WALL (   42344 calls)
     g_psi        :      3.09s CPU      3.13s WALL (   33904 calls)

     Called by h_psi:
     h_psi:calbec :     58.60s CPU     60.83s WALL (   42344 calls)
     vloc_psi     :    356.21s CPU    402.86s WALL (   42344 calls)
     add_vuspsi   :     52.20s CPU     52.81s WALL (   42344 calls)

     General routines
     calbec       :     70.29s CPU     72.65s WALL (   48144 calls)
     fft          :      3.09s CPU      4.11s WALL (    3040 calls)
     ffts         :      0.14s CPU      0.20s WALL (     209 calls)
     fftw         :    355.52s CPU    402.64s WALL ( 1225970 calls)

     Parallel routines

     PWSCF        :  16m26.07s CPU  17m37.80s WALL


   This run was terminated on:  18:23:20  29Dec2024            

=------------------------------------------------------------------------------=
   JOB DONE.
=------------------------------------------------------------------------------=
