
     Program PWSCF v.7.2 starts on 29Dec2024 at 14:29:10 

     This program is part of the open-source Quantum ESPRESSO suite
     for quantum simulation of materials; please cite
         "P. Giannozzi et al., J. Phys.:Condens. Matter 21 395502 (2009);
         "P. Giannozzi et al., J. Phys.:Condens. Matter 29 465901 (2017);
         "P. Giannozzi et al., J. Chem. Phys. 152 154105 (2020);
          URL http://www.quantum-espresso.org", 
     in publications or presentations arising from this work. More details at
     http://www.quantum-espresso.org/quote

     Parallel version (MPI & OpenMP), running on       8 processor cores
     Number of MPI processes:                 8
     Threads/MPI process:                     1

     MPI processes distributed on     1 nodes
     482212 MiB available memory on the printing compute node when the environment starts

     Waiting for input...
     Reading input from standard input

     Current dimensions of program PWSCF are:
     Max number of different atomic species (ntypx) = 10
     Max number of k-points (npk) =  40000
     Max angular momentum in pseudopotentials (lmaxx) =  4

     R & G space division:  proc/nbgrp/npool/nimage =       8
     Subspace diagonalization in iterative solution of the eigenvalue problem:
     a serial algorithm will be used


     Parallelization info
     --------------------
     sticks:   dense  smooth     PW     G-vecs:    dense   smooth      PW
     Min         286     286     82                10351    10351    1568
     Max         287     287     83                10352    10352    1569
     Sum        2295    2295    657                82813    82813   12545

     Using Slab Decomposition



     bravais-lattice index     =            5
     lattice parameter (alat)  =       9.5049  a.u.
     unit-cell volume          =     858.1464 (a.u.)^3
     number of atoms/cell      =            8
     number of atomic types    =            2
     number of electrons       =        26.00
     number of Kohn-Sham states=           17
     kinetic-energy cutoff     =      80.0000  Ry
     charge density cutoff     =     320.0000  Ry
     scf convergence threshold =      1.0E-08
     mixing beta               =       0.7000
     number of iterations used =            8  plain     mixing
     energy convergence thresh.=      1.0E-04
     force convergence thresh. =      1.0E-03
     press convergence thresh. =      1.0E+00
     Exchange-correlation= PBE
                           (   1   4   3   4   0   0   0)
     nstep                     =           50


     celldm(1)=   9.504871  celldm(2)=   0.000000  celldm(3)=   0.000000
     celldm(4)=  -0.020487  celldm(5)=   0.000000  celldm(6)=   0.000000

     crystal axes: (cart. coord. in units of alat)
               a(1) = (   0.714313  -0.412409   0.565398 )  
               a(2) = (   0.000000   0.824818   0.565398 )  
               a(3) = (  -0.714313  -0.412409   0.565398 )  

     reciprocal axes: (cart. coord. in units 2 pi/alat)
               b(1) = (  0.699973 -0.404130  0.589555 )  
               b(2) = (  0.000000  0.808259  0.589555 )  
               b(3) = ( -0.699973 -0.404130  0.589555 )  


     PseudoPot. # 1 for Li read from file:
     ../pseudo/Li_ONCV_PBE_sr.upf
     MD5 check sum: 50ff420e78310ffa21704f3361e624a4
     Pseudo is Norm-conserving, Zval =  3.0
     Generated using ONCVPSP code by D. R. Hamann
     Using radial grid of 1944 points,  4 beta functions with: 
                l(1) =   0
                l(2) =   0
                l(3) =   1
                l(4) =   1

     PseudoPot. # 2 for Si read from file:
     ../pseudo/Si_ONCV_PBE_sr.upf
     MD5 check sum: e543d271109d17c80368dfa7c482276d
     Pseudo is Norm-conserving + core correction, Zval =  4.0
     Generated using ONCVPSP code by D. R. Hamann
     Using radial grid of 1510 points,  6 beta functions with: 
                l(1) =   0
                l(2) =   0
                l(3) =   1
                l(4) =   1
                l(5) =   2
                l(6) =   2

     atomic species   valence    mass     pseudopotential
        Li             3.00     6.94100     Li( 1.00)
        Si             4.00    28.08550     Si( 1.00)

     12 Sym. Ops., with inversion, found ( 6 have fractional translation)



   Cartesian axes

     site n.     atom                  positions (alat units)
         1           Li  tau(   1) = (   0.1832957  -0.3174774   1.2721462  )
         2           Li  tau(   2) = (   0.5310177  -0.9197496   0.4240487  )
         3           Li  tau(   3) = (  -0.5310177  -0.0949316   0.1413496  )
         4           Li  tau(   4) = (  -0.8976090  -0.7298864   0.9894470  )
         5           Li  tau(   5) = (  -1.0809047  -0.4124090   0.1413496  )
         6           Li  tau(   6) = (  -0.3477220  -0.4124090   0.9894470  )
         7           Si  tau(   7) = (   0.0000000   0.0000000   0.0000000  )
         8           Si  tau(   8) = (  -0.7143134  -0.4124090   1.4134958  )

     number of k points=    32  Marzari-Vanderbilt smearing, width (Ry)=  0.0200
                       cart. coord. in units 2pi/alat
        k(    1) = (   0.0000000   0.0000000   0.0000000), wk =   0.0092593
        k(    2) = (  -0.1166622  -0.0673549   0.0982591), wk =   0.0555556
        k(    3) = (  -0.2333243  -0.1347099   0.1965183), wk =   0.0555556
        k(    4) = (   0.3499865   0.2020648  -0.2947774), wk =   0.0277778
        k(    5) = (  -0.1166622   0.0673549   0.1965183), wk =   0.0555556
        k(    6) = (  -0.2333243  -0.0000000   0.2947774), wk =   0.1111111
        k(    7) = (   0.3499865   0.3367746  -0.1965183), wk =   0.1111111
        k(    8) = (   0.2333243   0.2694197  -0.0982591), wk =   0.1111111
        k(    9) = (   0.1166622   0.2020648   0.0000000), wk =   0.0555556
        k(   10) = (  -0.2333243   0.1347099   0.3930366), wk =   0.0555556
        k(   11) = (   0.3499865   0.4714845  -0.0982591), wk =   0.1111111
        k(   12) = (   0.2333243   0.4041296   0.0000000), wk =   0.0555556
        k(   13) = (   0.3499865  -0.2020648  -0.5895549), wk =   0.0277778
        k(   14) = (   0.0000000  -0.0000000   0.2947774), wk =   0.0185185
        k(   15) = (  -0.1166622  -0.0673549   0.3930366), wk =   0.0555556
        k(   16) = (   0.4666486   0.2694197  -0.0982591), wk =   0.0555556
        k(   17) = (   0.3499865   0.2020648   0.0000000), wk =   0.0555556
        k(   18) = (   0.2333243   0.1347099   0.0982591), wk =   0.0555556
        k(   19) = (  -0.1166622   0.0673549   0.4912957), wk =   0.0555556
        k(   20) = (   0.4666486   0.4041296   0.0000000), wk =   0.1111111
        k(   21) = (   0.3499865   0.3367746   0.0982591), wk =   0.1111111
        k(   22) = (   0.2333243   0.2694197   0.1965183), wk =   0.1111111
        k(   23) = (   0.4666486  -0.2694197  -0.4912957), wk =   0.0555556
        k(   24) = (   0.3499865  -0.3367746  -0.3930366), wk =   0.1111111
        k(   25) = (   0.2333243  -0.4041296  -0.2947774), wk =   0.0555556
        k(   26) = (   0.3499865  -0.2020648  -0.2947774), wk =   0.0555556
        k(   27) = (   0.0000000  -0.0000000   0.5895549), wk =   0.0185185
        k(   28) = (   0.5833108   0.3367746   0.0982591), wk =   0.0555556
        k(   29) = (   0.4666486   0.2694197   0.1965183), wk =   0.0555556
        k(   30) = (   0.5833108  -0.3367746  -0.3930366), wk =   0.0555556
        k(   31) = (   0.4666486  -0.4041296  -0.2947774), wk =   0.0555556
        k(   32) = (   0.0000000   0.0000000  -0.8843323), wk =   0.0092593

     Dense  grid:    82813 G-vectors     FFT dimensions: (  60,  60,  60)

     Estimated max dynamical RAM per process >      32.26 MB

     Estimated total dynamical RAM >     258.09 MB

     Initial potential from superposition of free atoms

     starting charge      25.9714, renormalised to      26.0000
     Starting wfcs are   20 randomized atomic wfcs

     total cpu time spent up to now is        4.4 secs

     Self-consistent Calculation

     iteration #  1     ecut=    80.00 Ry     beta= 0.70
     Davidson diagonalization with overlap
     ethr =  1.00E-02,  avg # of iterations =  5.5

     Threshold (ethr) on eigenvalues was too large:
     Diagonalizing with lowered threshold

     Davidson diagonalization with overlap
     ethr =  1.23E-04,  avg # of iterations =  6.6

     total cpu time spent up to now is        8.0 secs

     total energy              =    -103.46234406 Ry
     estimated scf accuracy    <       0.02244356 Ry

     iteration #  2     ecut=    80.00 Ry     beta= 0.70
     Davidson diagonalization with overlap
     ethr =  8.63E-05,  avg # of iterations =  2.0

     total cpu time spent up to now is        9.4 secs

     total energy              =    -103.46421442 Ry
     estimated scf accuracy    <       0.00212792 Ry

     iteration #  3     ecut=    80.00 Ry     beta= 0.70
     Davidson diagonalization with overlap
     ethr =  8.18E-06,  avg # of iterations =  4.2

     total cpu time spent up to now is       10.9 secs

     total energy              =    -103.46451329 Ry
     estimated scf accuracy    <       0.00019473 Ry

     iteration #  4     ecut=    80.00 Ry     beta= 0.70
     Davidson diagonalization with overlap
     ethr =  7.49E-07,  avg # of iterations =  2.1

     total cpu time spent up to now is       12.1 secs

     total energy              =    -103.46452102 Ry
     estimated scf accuracy    <       0.00000742 Ry

     iteration #  5     ecut=    80.00 Ry     beta= 0.70
     Davidson diagonalization with overlap
     ethr =  2.85E-08,  avg # of iterations =  3.5

     total cpu time spent up to now is       13.6 secs

     total energy              =    -103.46452417 Ry
     estimated scf accuracy    <       0.00000154 Ry

     iteration #  6     ecut=    80.00 Ry     beta= 0.70
     Davidson diagonalization with overlap
     ethr =  5.93E-09,  avg # of iterations =  2.1

     total cpu time spent up to now is       15.0 secs

     total energy              =    -103.46452455 Ry
     estimated scf accuracy    <       0.00000015 Ry

     iteration #  7     ecut=    80.00 Ry     beta= 0.70
     Davidson diagonalization with overlap
     ethr =  5.71E-10,  avg # of iterations =  2.0

     total cpu time spent up to now is       16.3 secs

     End of self-consistent calculation

          k = 0.0000 0.0000 0.0000 ( 10389 PWs)   bands (ev):

   -42.7430 -42.7246 -42.7246 -42.6843 -42.6843 -42.6837  -4.5379  -2.8320
     1.1072   1.1353   1.1353   3.8458   3.8458   3.8812   3.8812   4.1530
     6.5198

          k =-0.1167-0.0674 0.0983 ( 10393 PWs)   bands (ev):

   -42.7412 -42.7256 -42.7225 -42.6871 -42.6843 -42.6839  -4.4474  -2.9743
     1.0904   1.2354   1.2485   3.1933   3.5686   3.7288   4.2232   4.2611
     7.0284

          k =-0.2333-0.1347 0.1965 ( 10371 PWs)   bands (ev):

   -42.7369 -42.7283 -42.7160 -42.6952 -42.6842 -42.6840  -4.1863  -3.3421
     1.2005   1.5705   1.5759   2.3321   2.9233   3.0159   4.5470   4.9411
     7.4418

          k = 0.3500 0.2021-0.2948 ( 10360 PWs)   bands (ev):

   -42.7323 -42.7323 -42.7060 -42.7060 -42.6841 -42.6841  -3.7912  -3.7912
     1.6216   1.6216   1.9217   1.9217   2.4772   2.4772   4.9354   4.9354
     7.5523

          k =-0.1167 0.0674 0.1965 ( 10408 PWs)   bands (ev):

   -42.7392 -42.7251 -42.7220 -42.6876 -42.6867 -42.6840  -4.3538  -3.0900
     0.7747   1.3586   1.6215   2.6781   3.4273   3.4664   4.5632   4.7081
     6.7440

          k =-0.2333-0.0000 0.2948 ( 10385 PWs)   bands (ev):

   -42.7350 -42.7270 -42.7162 -42.6953 -42.6871 -42.6840  -4.0996  -3.3830
     0.6812   1.6809   1.7555   2.0776   2.9047   3.2249   4.9268   5.3377
     6.4618

          k = 0.3500 0.3368-0.1965 ( 10367 PWs)   bands (ev):

   -42.7320 -42.7292 -42.7064 -42.7060 -42.6871 -42.6841  -3.7697  -3.7299
     0.9696   1.0766   2.0172   2.3653   2.4835   2.9649   5.1752   5.5178
     6.3831

          k = 0.2333 0.2694-0.0983 ( 10371 PWs)   bands (ev):

   -42.7356 -42.7263 -42.7161 -42.6954 -42.6871 -42.6841  -4.1274  -3.3387
     0.7091   1.6439   1.6729   2.0363   2.8929   3.3480   4.9034   5.3817
     6.5199

          k = 0.1167 0.2021 0.0000 ( 10365 PWs)   bands (ev):

   -42.7396 -42.7246 -42.7220 -42.6874 -42.6870 -42.6841  -4.3678  -3.0587
     0.7776   1.3524   1.6075   2.5325   3.3579   3.6412   4.5578   4.7489
     6.6945

          k =-0.2333 0.1347 0.3930 ( 10380 PWs)   bands (ev):

   -42.7321 -42.7230 -42.7149 -42.6968 -42.6939 -42.6840  -3.8885  -3.4906
     0.2958   0.9419   1.9772   2.5338   2.7238   3.4413   5.1782   5.6176
     5.8901

          k = 0.3500 0.4715-0.0983 ( 10367 PWs)   bands (ev):

   -42.7312 -42.7211 -42.7071 -42.7062 -42.6950 -42.6840  -3.6969  -3.6232
     0.3372   0.4284   2.2867   2.4621   2.7540   3.4854   5.2814   5.3542
     5.5807

          k = 0.2333 0.4041 0.0000 ( 10371 PWs)   bands (ev):

   -42.7328 -42.7219 -42.7150 -42.6969 -42.6941 -42.6841  -3.9426  -3.4177
     0.3212   0.8611   1.9630   2.4746   2.7464   3.5421   5.2384   5.6728
     5.7271

          k = 0.3500-0.2021-0.5896 ( 10334 PWs)   bands (ev):

   -42.7308 -42.7134 -42.7077 -42.7074 -42.7014 -42.6840  -3.6554  -3.5670
     0.0925   0.1762   2.4616   2.4722   2.9102   3.7288   4.8410   5.1513
     5.2687

          k = 0.0000-0.0000 0.2948 ( 10416 PWs)   bands (ev):

   -42.7370 -42.7232 -42.7232 -42.6877 -42.6877 -42.6858  -4.2584  -3.1838
     0.8728   0.8728   2.2193   2.3249   3.1998   3.1998   5.0352   5.0352
     7.0564

          k =-0.1167-0.0674 0.3930 ( 10409 PWs)   bands (ev):

   -42.7325 -42.7258 -42.7168 -42.6955 -42.6877 -42.6862  -4.0135  -3.4153
     0.6399   1.1877   1.5268   2.4547   2.8826   3.1727   5.4131   5.6943
     6.4334

          k = 0.4666 0.2694-0.0983 ( 10403 PWs)   bands (ev):

   -42.7295 -42.7281 -42.7066 -42.7063 -42.6876 -42.6865  -3.7439  -3.6727
     0.8518   0.8944   1.7092   1.7971   3.0441   3.2806   5.5897   5.6248
     6.2700

          k = 0.3500 0.2021 0.0000 ( 10354 PWs)   bands (ev):

   -42.7337 -42.7246 -42.7165 -42.6956 -42.6873 -42.6869  -4.0646  -3.3403
     0.6586   1.2447   1.4537   2.3441   2.7054   3.3795   5.4083   5.7543
     6.2358

          k = 0.2333 0.1347 0.0983 ( 10363 PWs)   bands (ev):

   -42.7377 -42.7230 -42.7225 -42.6874 -42.6873 -42.6868  -4.2844  -3.1346
     0.8934   0.9022   2.1175   2.2419   3.1045   3.3086   5.0064   5.0441
     7.0962

          k =-0.1167 0.0674 0.4913 ( 10362 PWs)   bands (ev):

   -42.7289 -42.7219 -42.7160 -42.6971 -42.6939 -42.6869  -3.8143  -3.4955
     0.3984   0.9176   1.2879   2.3386   2.7776   3.3095   5.7990   5.9304
     6.5554

          k = 0.4666 0.4041 0.0000 ( 10350 PWs)   bands (ev):

   -42.7281 -42.7205 -42.7073 -42.7068 -42.6951 -42.6870  -3.6654  -3.5776
     0.4198   0.4829   1.7491   1.8192   2.8794   3.2523   5.5599   6.0423
     6.4086

          k = 0.3500 0.3368 0.0983 ( 10369 PWs)   bands (ev):

   -42.7301 -42.7209 -42.7155 -42.6967 -42.6943 -42.6871  -3.8817  -3.4135
     0.4379   0.8853   1.3365   2.3176   2.7934   3.1220   5.6098   6.0154
     6.4155

          k = 0.2333 0.2694 0.1965 ( 10360 PWs)   bands (ev):

   -42.7334 -42.7253 -42.7163 -42.6954 -42.6873 -42.6871  -4.0488  -3.3678
     0.6845   1.2381   1.5164   2.4210   2.7541   3.1130   5.3866   5.7266
     6.2733

          k = 0.4666-0.2694-0.4913 ( 10347 PWs)   bands (ev):

   -42.7277 -42.7126 -42.7076 -42.7074 -42.7022 -42.6871  -3.6152  -3.5367
     0.2116   0.2834   1.9952   2.0246   2.5588   2.9048   5.8711   5.9724
     6.1088

          k = 0.3500-0.3368-0.3930 ( 10371 PWs)   bands (ev):

   -42.7282 -42.7209 -42.7070 -42.7061 -42.6954 -42.6872  -3.6462  -3.6027
     0.4391   0.5199   1.7897   1.9171   2.7549   3.0519   5.5140   5.9744
     6.5163

          k = 0.2333-0.4041-0.2948 ( 10354 PWs)   bands (ev):

   -42.7289 -42.7289 -42.7062 -42.7062 -42.6872 -42.6872  -3.7109  -3.7109
     0.9131   0.9131   1.7968   1.7968   3.0178   3.0178   5.5812   5.5812
     6.2237

          k = 0.3500-0.2021-0.2948 ( 10384 PWs)   bands (ev):

   -42.7296 -42.7221 -42.7149 -42.6963 -42.6946 -42.6872  -3.8504  -3.4577
     0.4182   0.9714   1.4133   2.3156   2.6633   3.0545   5.6460   5.9856
     6.4500

          k = 0.0000-0.0000 0.5896 ( 10341 PWs)   bands (ev):

   -42.7222 -42.7180 -42.7180 -42.6969 -42.6969 -42.6927  -3.6576  -3.5053
     0.7222   0.7222   0.7777   2.0437   2.0437   3.0723   6.3090   7.2062
     7.2063

          k = 0.5833 0.3368 0.0983 ( 10343 PWs)   bands (ev):

   -42.7206 -42.7185 -42.7076 -42.7074 -42.6964 -42.6944  -3.5826  -3.5017
     0.5820   0.6012   1.2559   1.3149   2.3085   2.5099   6.7811   7.0699
     7.7093

          k = 0.4666 0.2694 0.1965 ( 10350 PWs)   bands (ev):

   -42.7242 -42.7175 -42.7161 -42.6967 -42.6954 -42.6948  -3.7242  -3.4362
     0.7620   0.7901   0.8065   1.9694   2.1234   2.7811   6.0809   7.1893
     7.2266

          k = 0.5833-0.3368-0.3930 ( 10347 PWs)   bands (ev):

   -42.7193 -42.7106 -42.7077 -42.7072 -42.7043 -42.6956  -3.5253  -3.4773
     0.5581   0.6116   1.3703   1.3929   1.8323   1.9388   7.4973   7.6430
     7.7752

          k = 0.4666-0.4041-0.2948 ( 10360 PWs)   bands (ev):

   -42.7199 -42.7199 -42.7067 -42.7067 -42.6957 -42.6957  -3.5454  -3.5454
     0.6263   0.6263   1.3445   1.3445   2.2769   2.2769   6.8189   6.8189
     7.7591

          k = 0.0000 0.0000-0.8843 ( 10342 PWs)   bands (ev):

   -42.7084 -42.7084 -42.7084 -42.7084 -42.7055 -42.7055  -3.4615  -3.4615
     1.1068   1.1068   1.1068   1.1068   1.1995   1.1995   9.0950   9.0956
     9.0959

     the Fermi energy is     2.9952 ev

!    total energy              =    -103.46452457 Ry
     estimated scf accuracy    <          1.9E-10 Ry
     smearing contrib. (-TS)   =      -0.00072706 Ry
     internal energy E=F+TS    =    -103.46379751 Ry

     The total energy is F=E-TS. E is the sum of the following terms:
     one-electron contribution =     -45.71135343 Ry
     hartree contribution      =      20.23274874 Ry
     xc contribution           =     -26.27898844 Ry
     ewald contribution        =     -51.70620438 Ry

     convergence has been achieved in   7 iterations

     Forces acting on atoms (cartesian axes, Ry/au):

     atom    1 type  1   force =    -0.00024016    0.00041596    0.00000000
     atom    2 type  1   force =     0.00024016   -0.00041596   -0.00000000
     atom    3 type  1   force =    -0.00024016   -0.00041596   -0.00000000
     atom    4 type  1   force =     0.00024016    0.00041596    0.00000000
     atom    5 type  1   force =     0.00048031    0.00000000    0.00000000
     atom    6 type  1   force =    -0.00048031   -0.00000000   -0.00000000
     atom    7 type  2   force =     0.00000000    0.00000000    0.00000000
     atom    8 type  2   force =     0.00000000   -0.00000000   -0.00000000
     The non-local contrib.  to forces
     atom    1 type  1   force =    -0.00117471    0.00203466    0.00000000
     atom    2 type  1   force =     0.00117471   -0.00203466   -0.00000000
     atom    3 type  1   force =    -0.00117471   -0.00203466   -0.00000000
     atom    4 type  1   force =     0.00117471    0.00203466    0.00000000
     atom    5 type  1   force =     0.00234942   -0.00000000   -0.00000000
     atom    6 type  1   force =    -0.00234942    0.00000000    0.00000000
     atom    7 type  2   force =     0.00000000   -0.00000000    0.00000000
     atom    8 type  2   force =     0.00000000   -0.00000000    0.00000000
     The ionic contribution  to forces
     atom    1 type  1   force =    -0.01185200    0.02052826   -0.00000000
     atom    2 type  1   force =     0.01185200   -0.02052826   -0.00000000
     atom    3 type  1   force =    -0.01185200   -0.02052826   -0.00000000
     atom    4 type  1   force =     0.01185200    0.02052826    0.00000000
     atom    5 type  1   force =     0.02370399    0.00000000   -0.00000000
     atom    6 type  1   force =    -0.02370399    0.00000000   -0.00000000
     atom    7 type  2   force =     0.00000000    0.00000000    0.00000000
     atom    8 type  2   force =    -0.00000000   -0.00000000    0.00000000
     The local contribution  to forces
     atom    1 type  1   force =     0.01278653   -0.02214691   -0.00000000
     atom    2 type  1   force =    -0.01278653    0.02214691    0.00000000
     atom    3 type  1   force =     0.01278653    0.02214691    0.00000000
     atom    4 type  1   force =    -0.01278653   -0.02214691   -0.00000000
     atom    5 type  1   force =    -0.02557305    0.00000000    0.00000000
     atom    6 type  1   force =     0.02557305    0.00000000   -0.00000000
     atom    7 type  2   force =    -0.00000000   -0.00000000    0.00000000
     atom    8 type  2   force =     0.00000000   -0.00000000    0.00000000
     The core correction contribution to forces
     atom    1 type  1   force =     0.00000000    0.00000000    0.00000000
     atom    2 type  1   force =     0.00000000    0.00000000    0.00000000
     atom    3 type  1   force =     0.00000000    0.00000000    0.00000000
     atom    4 type  1   force =     0.00000000    0.00000000    0.00000000
     atom    5 type  1   force =     0.00000000    0.00000000    0.00000000
     atom    6 type  1   force =     0.00000000    0.00000000    0.00000000
     atom    7 type  2   force =    -0.00000000   -0.00000000   -0.00000000
     atom    8 type  2   force =     0.00000000   -0.00000000    0.00000000
     The Hubbard contrib.    to forces
     atom    1 type  1   force =     0.00000000    0.00000000    0.00000000
     atom    2 type  1   force =     0.00000000    0.00000000    0.00000000
     atom    3 type  1   force =     0.00000000    0.00000000    0.00000000
     atom    4 type  1   force =     0.00000000    0.00000000    0.00000000
     atom    5 type  1   force =     0.00000000    0.00000000    0.00000000
     atom    6 type  1   force =     0.00000000    0.00000000    0.00000000
     atom    7 type  2   force =     0.00000000    0.00000000    0.00000000
     atom    8 type  2   force =     0.00000000    0.00000000    0.00000000
     The SCF correction term to forces
     atom    1 type  1   force =     0.00000003   -0.00000005   -0.00000000
     atom    2 type  1   force =    -0.00000003    0.00000005   -0.00000000
     atom    3 type  1   force =     0.00000003    0.00000005    0.00000000
     atom    4 type  1   force =    -0.00000003   -0.00000005   -0.00000000
     atom    5 type  1   force =    -0.00000005   -0.00000000    0.00000000
     atom    6 type  1   force =     0.00000005    0.00000000   -0.00000000
     atom    7 type  2   force =    -0.00000000   -0.00000000    0.00000000
     atom    8 type  2   force =    -0.00000000   -0.00000000    0.00000000

     Total force =     0.001177     Total SCF correction =     0.000000


     Computing stress (Cartesian axis) and pressure

          total   stress  (Ry/bohr**3)                   (kbar)     P=      -17.53
  -0.00011326  -0.00000000   0.00000000          -16.66       -0.00        0.00
   0.00000000  -0.00011326  -0.00000000            0.00      -16.66       -0.00
   0.00000000  -0.00000000  -0.00013096            0.00       -0.00      -19.26


     BFGS Geometry Optimization
     Energy error            =      0.0E+00 Ry
     Gradient error          =      4.8E-04 Ry/Bohr
     Cell gradient error     =      5.2E+02 kbar

     number of scf cycles    =   1
     number of bfgs steps    =   0

     enthalpy           new  =    -100.5477443304 Ry

     new trust radius        =       0.5000000000 bohr
ibrav =      5
 celldm(1) =      8.69647972
 celldm(4) =     -0.02079219
Input lattice vectors:
     0.65365852    -0.37738992     0.51714648
    -0.00000000     0.75477984     0.51714648
    -0.65365852    -0.37738992     0.51714648
New lattice vectors in INITIAL alat:
     0.65365852    -0.37738992     0.51714648
     0.00000000     0.75477984     0.51714648
    -0.65365852    -0.37738992     0.51714648
New lattice vectors in NEW alat (for information only):
     0.71442011    -0.41247064     0.56521843
     0.00000000     0.82494128     0.56521843
    -0.71442011    -0.41247064     0.56521843
Discrepancy in bohr =     0.000000    0.000000    0.000000
     new conv_thr            =       0.0000000100 Ry

     new unit-cell volume =    657.27142 a.u.^3 (    97.39758 Ang^3 )
     density =      1.66769 g/cm^3

CELL_PARAMETERS (alat=  9.50487119)
   0.653658516  -0.377389920   0.517146475
   0.000000000   0.754779840   0.517146475
  -0.653658516  -0.377389920   0.517146475

ATOMIC_POSITIONS (crystal)
Li            1.0065697929        0.4934302071        0.7500000000
Li            0.9934302071       -0.4934302071        0.2500000000
Li           -0.2500000000        0.0065697929        0.4934302071
Li            0.2500000000       -0.0065697929        1.5065697929
Li           -0.5065697929       -0.2500000000        1.0065697929
Li            0.5065697929        0.2500000000        0.9934302071
Si            0.0000000000        0.0000000000       -0.0000000000
Si            0.5000000000        0.5000000000        1.5000000000



     Writing config-only to output data dir ./output/LiSi.save/
     NEW-OLD atomic charge density approx. for the potential
     extrapolated charge   18.06263, renormalised to   26.00000

     total cpu time spent up to now is       20.8 secs

     Self-consistent Calculation

     iteration #  1     ecut=    80.00 Ry     beta= 0.70
     Davidson diagonalization with overlap
     c_bands:  1 eigenvalues not converged
     c_bands:  1 eigenvalues not converged
     c_bands:  1 eigenvalues not converged
     c_bands:  2 eigenvalues not converged
     ethr =  1.00E-06,  avg # of iterations = 13.0

     total cpu time spent up to now is       24.9 secs

     total energy              =    -103.09170731 Ry
     estimated scf accuracy    <       0.23091599 Ry

     iteration #  2     ecut=    80.00 Ry     beta= 0.70
     Davidson diagonalization with overlap
     ethr =  8.88E-04,  avg # of iterations =  2.2

     total cpu time spent up to now is       26.6 secs

     total energy              =    -103.41846251 Ry
     estimated scf accuracy    <       0.04752936 Ry

     iteration #  3     ecut=    80.00 Ry     beta= 0.70
     Davidson diagonalization with overlap
     ethr =  1.83E-04,  avg # of iterations =  1.7

     total cpu time spent up to now is       27.8 secs

     total energy              =    -103.41995062 Ry
     estimated scf accuracy    <       0.00430423 Ry

     iteration #  4     ecut=    80.00 Ry     beta= 0.70
     Davidson diagonalization with overlap
     ethr =  1.66E-05,  avg # of iterations =  2.6

     total cpu time spent up to now is       29.2 secs

     total energy              =    -103.42037310 Ry
     estimated scf accuracy    <       0.00031886 Ry

     iteration #  5     ecut=    80.00 Ry     beta= 0.70
     Davidson diagonalization with overlap
     ethr =  1.23E-06,  avg # of iterations =  3.7

     total cpu time spent up to now is       30.8 secs

     total energy              =    -103.42041796 Ry
     estimated scf accuracy    <       0.00000646 Ry

     iteration #  6     ecut=    80.00 Ry     beta= 0.70
     Davidson diagonalization with overlap
     ethr =  2.49E-08,  avg # of iterations =  4.1

     total cpu time spent up to now is       32.4 secs

     total energy              =    -103.42042165 Ry
     estimated scf accuracy    <       0.00000225 Ry

     iteration #  7     ecut=    80.00 Ry     beta= 0.70
     Davidson diagonalization with overlap
     ethr =  8.66E-09,  avg # of iterations =  2.0

     total cpu time spent up to now is       33.8 secs

     total energy              =    -103.42042200 Ry
     estimated scf accuracy    <       0.00000002 Ry

     iteration #  8     ecut=    80.00 Ry     beta= 0.70
     Davidson diagonalization with overlap
     ethr =  6.92E-11,  avg # of iterations =  2.6

     total cpu time spent up to now is       35.3 secs

     End of self-consistent calculation

          k = 0.0000 0.0000 0.0000 ( 10389 PWs)   bands (ev):

   -40.6373 -40.5848 -40.5848 -40.4942 -40.4942 -40.4927  -3.5174  -1.1195
     2.2768   2.3491   2.3491   5.5405   5.5405   5.9042   5.9042   6.2655
     9.3955

          k =-0.1275-0.0736 0.1074 ( 10393 PWs)   bands (ev):

   -40.6326 -40.5876 -40.5799 -40.5006 -40.4941 -40.4932  -3.4082  -1.3745
     2.4181   2.4504   2.4824   5.0063   5.4454   5.6358   5.9638   6.2581
     9.3864

          k =-0.2550-0.1472 0.2149 ( 10371 PWs)   bands (ev):

   -40.6210 -40.5956 -40.5654 -40.5190 -40.4939 -40.4934  -3.0873  -1.9561
     2.7582   2.8519   2.8585   4.1456   4.5939   4.7044   6.5882   6.7347
     9.8616

          k = 0.3825 0.2208-0.3223 ( 10360 PWs)   bands (ev):

   -40.6074 -40.6074 -40.5431 -40.5431 -40.4936 -40.4936  -2.5806  -2.5806
     3.2111   3.2111   3.3815   3.3815   4.0587   4.0587   6.9107   6.9107
     9.9435

          k =-0.1275 0.0736 0.2149 ( 10408 PWs)   bands (ev):

   -40.6275 -40.5870 -40.5790 -40.5018 -40.4994 -40.4935  -3.2931  -1.5667
     1.9981   2.6041   3.0716   4.4764   5.2149   5.2411   6.3864   6.7611
     8.6896

          k =-0.2550-0.0000 0.3223 ( 10385 PWs)   bands (ev):

   -40.6159 -40.5930 -40.5662 -40.5193 -40.5004 -40.4935  -2.9766  -2.0168
     1.9710   2.9900   3.3610   3.6804   4.5581   5.0177   6.9382   7.3352
     8.4518

          k = 0.3825 0.3680-0.2149 ( 10367 PWs)   bands (ev):

   -40.6064 -40.6003 -40.5444 -40.5432 -40.5006 -40.4935  -2.5550  -2.4955
     2.3539   2.5552   3.3689   3.9631   4.0699   4.8120   7.1958   7.6030
     8.4567

          k = 0.2550 0.2944-0.1074 ( 10371 PWs)   bands (ev):

   -40.6175 -40.5911 -40.5659 -40.5196 -40.5006 -40.4936  -3.0163  -1.9445
     1.9823   2.9759   3.2235   3.6324   4.5504   5.1519   6.9356   7.3971
     8.5384

          k = 0.1275 0.2208 0.0000 ( 10365 PWs)   bands (ev):

   -40.6284 -40.5856 -40.5791 -40.5013 -40.5001 -40.4936  -3.3127  -1.5102
     1.9711   2.5961   3.0604   4.2863   5.1218   5.4409   6.3880   6.8616
     8.8116

          k =-0.2550 0.1472 0.4297 ( 10380 PWs)   bands (ev):

   -40.6070 -40.5857 -40.5634 -40.5235 -40.5153 -40.4934  -2.7040  -2.1710
     1.5198   2.3651   3.3628   4.1920   4.3236   5.3554   7.3476   7.4085
     8.2057

          k = 0.3825 0.5152-0.1074 ( 10367 PWs)   bands (ev):

   -40.6039 -40.5819 -40.5469 -40.5441 -40.5182 -40.4934  -2.4588  -2.3457
     1.5814   1.7351   3.7369   4.0072   4.3997   5.4889   7.0295   7.5642
     7.9513

          k = 0.2550 0.4416 0.0000 ( 10371 PWs)   bands (ev):

   -40.6093 -40.5823 -40.5637 -40.5237 -40.5158 -40.4935  -2.7834  -2.0536
     1.5174   2.2788   3.3399   4.1204   4.3772   5.4491   7.3686   7.5158
     7.9992

          k = 0.3825-0.2208-0.6446 ( 10334 PWs)   bands (ev):

   -40.6026 -40.5649 -40.5487 -40.5479 -40.5310 -40.4934  -2.4022  -2.2642
     1.2791   1.4208   3.9920   4.0080   4.5549   5.7706   6.3974   7.4953
     7.6518

          k = 0.0000 0.0000 0.3223 ( 10416 PWs)   bands (ev):

   -40.6220 -40.5824 -40.5824 -40.5022 -40.5022 -40.4970  -3.1739  -1.7165
     2.1124   2.1124   3.7922   4.0855   4.8947   4.8947   7.0241   7.0241
     9.2296

          k =-0.1275-0.0736 0.4297 ( 10409 PWs)   bands (ev):

   -40.6100 -40.5901 -40.5681 -40.5198 -40.5022 -40.4982  -2.8649  -2.0650
     1.9233   2.4761   3.1045   3.9882   4.6471   4.8917   7.5785   7.6882
     8.6225

          k = 0.5100 0.2944-0.1074 ( 10403 PWs)   bands (ev):

   -40.6009 -40.5972 -40.5453 -40.5443 -40.5017 -40.4990  -2.5227  -2.4151
     2.2551   2.2804   3.0984   3.2020   4.8052   5.1039   7.7168   7.7473
     8.4571

          k = 0.3825 0.2208 0.0000 ( 10354 PWs)   bands (ev):

   -40.6131 -40.5869 -40.5671 -40.5202 -40.5009 -40.5000  -2.9385  -1.9428
     1.9070   2.5420   3.0281   3.8541   4.4148   5.1385   7.5824   7.7730
     8.4412

          k = 0.2550 0.1472 0.1074 ( 10363 PWs)   bands (ev):

   -40.6237 -40.5819 -40.5805 -40.5013 -40.5010 -40.4997  -3.2105  -1.6311
     2.1001   2.1458   3.6667   3.9916   4.7690   5.0095   6.9980   7.0623
     9.3403

          k =-0.1275 0.0736 0.5371 ( 10362 PWs)   bands (ev):

   -40.5998 -40.5826 -40.5664 -40.5242 -40.5156 -40.4998  -2.6043  -2.1797
     1.6365   2.3307   2.6306   3.8769   4.3900   5.1649   7.9002   8.1915
     8.7916

          k = 0.5100 0.4416 0.0000 ( 10350 PWs)   bands (ev):

   -40.5968 -40.5798 -40.5474 -40.5458 -40.5185 -40.5003  -2.4171  -2.2811
     1.6771   1.7868   3.1717   3.2643   4.5396   5.0304   7.6845   8.4538
     8.6378

          k = 0.3825 0.3680 0.1074 ( 10369 PWs)   bands (ev):

   -40.6033 -40.5792 -40.5652 -40.5234 -40.5166 -40.5006  -2.7043  -2.0483
     1.6523   2.3150   2.6789   3.8552   4.4121   4.8991   7.7358   8.2893
     8.6154

          k = 0.2550 0.2944 0.2149 ( 10360 PWs)   bands (ev):

   -40.6122 -40.5887 -40.5665 -40.5194 -40.5011 -40.5004  -2.9158  -1.9887
     1.9745   2.5117   3.1117   3.9516   4.4614   4.8050   7.5423   7.7301
     8.5228

          k = 0.5100-0.2944-0.5371 ( 10347 PWs)   bands (ev):

   -40.5954 -40.5628 -40.5485 -40.5481 -40.5332 -40.5007  -2.3468  -2.2233
     1.4191   1.5353   3.4773   3.5207   4.1418   4.5602   7.9095   8.4328
     8.5817

          k = 0.3825-0.3680-0.4297 ( 10371 PWs)   bands (ev):

   -40.5969 -40.5810 -40.5465 -40.5439 -40.5194 -40.5009  -2.3880  -2.3207
     1.7114   1.8388   3.2058   3.3825   4.3719   4.7796   7.6654   8.3973
     8.7434

          k = 0.2550-0.4416-0.3223 ( 10354 PWs)   bands (ev):

   -40.5994 -40.5994 -40.5440 -40.5440 -40.5008 -40.5008  -2.4733  -2.4733
     2.3324   2.3324   3.1866   3.1866   4.7624   4.7624   7.7185   7.7185
     8.4374

          k = 0.3825-0.2208-0.3223 ( 10384 PWs)   bands (ev):

   -40.6017 -40.5829 -40.5635 -40.5220 -40.5174 -40.5010  -2.6581  -2.1204
     1.6596   2.4224   2.7606   3.8341   4.2462   4.8249   7.8001   8.2508
     8.6736

          k = 0.0000 0.0000 0.6446 ( 10341 PWs)   bands (ev):

   -40.5845 -40.5720 -40.5720 -40.5238 -40.5238 -40.5125  -2.3926  -2.1940
     2.0049   2.0049   2.1394   3.5291   3.5291   4.8024   8.6672   9.6309
     9.6309

          k = 0.6374 0.3680 0.1074 ( 10343 PWs)   bands (ev):

   -40.5797 -40.5738 -40.5483 -40.5477 -40.5222 -40.5169  -2.3025  -2.1748
     1.8696   1.8908   2.6146   2.6852   3.8585   4.0963   9.2644   9.6148
    10.1941

          k = 0.5100 0.2944 0.2149 ( 10350 PWs)   bands (ev):

   -40.5896 -40.5709 -40.5670 -40.5232 -40.5198 -40.5180  -2.4944  -2.0839
     2.0511   2.0519   2.2179   3.4380   3.6062   4.4362   8.4216   9.5849
     9.6237

          k = 0.6374-0.3680-0.4297 ( 10347 PWs)   bands (ev):

   -40.5758 -40.5569 -40.5487 -40.5476 -40.5393 -40.5204  -2.2197  -2.1429
     1.8286   1.8887   2.7575   2.7960   3.2958   3.4028   9.9654  10.4146
    10.5306

          k = 0.5100-0.4416-0.3223 ( 10360 PWs)   bands (ev):

   -40.5780 -40.5780 -40.5458 -40.5458 -40.5206 -40.5206  -2.2447  -2.2447
     1.9428   1.9428   2.7007   2.7007   3.8149   3.8149   9.3372   9.3372
    10.2531

          k =-0.0000-0.0000-0.9668 ( 10342 PWs)   bands (ev):

   -40.5507 -40.5507 -40.5507 -40.5507 -40.5430 -40.5430  -2.1249  -2.1249
     2.4616   2.4616   2.4616   2.4616   2.5406   2.5406  12.0840  12.0840
    12.0840

     the Fermi energy is     4.7035 ev

!    total energy              =    -103.42042200 Ry
     estimated scf accuracy    <          1.0E-09 Ry
     smearing contrib. (-TS)   =      -0.00011084 Ry
     internal energy E=F+TS    =    -103.42031117 Ry

     The total energy is F=E-TS. E is the sum of the following terms:
     one-electron contribution =     -38.98951283 Ry
     hartree contribution      =      18.87828721 Ry
     xc contribution           =     -26.79596479 Ry
     ewald contribution        =     -56.51312076 Ry

     convergence has been achieved in   8 iterations

     Forces acting on atoms (cartesian axes, Ry/au):

     atom    1 type  1   force =    -0.00052808    0.00091466    0.00000000
     atom    2 type  1   force =     0.00052808   -0.00091466   -0.00000000
     atom    3 type  1   force =    -0.00052808   -0.00091466   -0.00000000
     atom    4 type  1   force =     0.00052808    0.00091466    0.00000000
     atom    5 type  1   force =     0.00105615   -0.00000000    0.00000000
     atom    6 type  1   force =    -0.00105615    0.00000000   -0.00000000
     atom    7 type  2   force =    -0.00000000   -0.00000000   -0.00000000
     atom    8 type  2   force =    -0.00000000    0.00000000   -0.00000000
     The non-local contrib.  to forces
     atom    1 type  1   force =    -0.00178353    0.00308916    0.00000000
     atom    2 type  1   force =     0.00178353   -0.00308916   -0.00000000
     atom    3 type  1   force =    -0.00178353   -0.00308916   -0.00000000
     atom    4 type  1   force =     0.00178353    0.00308916    0.00000000
     atom    5 type  1   force =     0.00356706    0.00000000    0.00000000
     atom    6 type  1   force =    -0.00356706   -0.00000000    0.00000000
     atom    7 type  2   force =     0.00000000    0.00000000    0.00000000
     atom    8 type  2   force =     0.00000000   -0.00000000   -0.00000000
     The ionic contribution  to forces
     atom    1 type  1   force =    -0.01390179    0.02407861   -0.00000000
     atom    2 type  1   force =     0.01390179   -0.02407861   -0.00000000
     atom    3 type  1   force =    -0.01390179   -0.02407861   -0.00000000
     atom    4 type  1   force =     0.01390179    0.02407861   -0.00000000
     atom    5 type  1   force =     0.02780358    0.00000000   -0.00000000
     atom    6 type  1   force =    -0.02780358    0.00000000   -0.00000000
     atom    7 type  2   force =     0.00000000    0.00000000    0.00000000
     atom    8 type  2   force =    -0.00000000    0.00000000   -0.00000000
     The local contribution  to forces
     atom    1 type  1   force =     0.01515667   -0.02625213   -0.00000000
     atom    2 type  1   force =    -0.01515667    0.02625213    0.00000000
     atom    3 type  1   force =     0.01515667    0.02625213    0.00000000
     atom    4 type  1   force =    -0.01515667   -0.02625213   -0.00000000
     atom    5 type  1   force =    -0.03031334    0.00000000    0.00000000
     atom    6 type  1   force =     0.03031334   -0.00000000   -0.00000000
     atom    7 type  2   force =    -0.00000000   -0.00000000    0.00000000
     atom    8 type  2   force =     0.00000000    0.00000000    0.00000000
     The core correction contribution to forces
     atom    1 type  1   force =     0.00000000    0.00000000    0.00000000
     atom    2 type  1   force =     0.00000000    0.00000000    0.00000000
     atom    3 type  1   force =     0.00000000    0.00000000    0.00000000
     atom    4 type  1   force =     0.00000000    0.00000000    0.00000000
     atom    5 type  1   force =     0.00000000    0.00000000    0.00000000
     atom    6 type  1   force =     0.00000000    0.00000000    0.00000000
     atom    7 type  2   force =    -0.00000000   -0.00000000   -0.00000000
     atom    8 type  2   force =     0.00000000   -0.00000000    0.00000000
     The Hubbard contrib.    to forces
     atom    1 type  1   force =     0.00000000    0.00000000    0.00000000
     atom    2 type  1   force =     0.00000000    0.00000000    0.00000000
     atom    3 type  1   force =     0.00000000    0.00000000    0.00000000
     atom    4 type  1   force =     0.00000000    0.00000000    0.00000000
     atom    5 type  1   force =     0.00000000    0.00000000    0.00000000
     atom    6 type  1   force =     0.00000000    0.00000000    0.00000000
     atom    7 type  2   force =     0.00000000    0.00000000    0.00000000
     atom    8 type  2   force =     0.00000000    0.00000000    0.00000000
     The SCF correction term to forces
     atom    1 type  1   force =     0.00000057   -0.00000099   -0.00000000
     atom    2 type  1   force =    -0.00000057    0.00000099   -0.00000000
     atom    3 type  1   force =     0.00000057    0.00000099    0.00000000
     atom    4 type  1   force =    -0.00000057   -0.00000099   -0.00000000
     atom    5 type  1   force =    -0.00000114    0.00000000    0.00000000
     atom    6 type  1   force =     0.00000114   -0.00000000   -0.00000000
     atom    7 type  2   force =     0.00000000    0.00000000   -0.00000000
     atom    8 type  2   force =     0.00000000   -0.00000000    0.00000000

     Total force =     0.002587     Total SCF correction =     0.000003


     Computing stress (Cartesian axis) and pressure

          total   stress  (Ry/bohr**3)                   (kbar)     P=      106.61
   0.00075443  -0.00000000  -0.00000000          110.98       -0.00       -0.00
   0.00000000   0.00075443   0.00000000            0.00      110.98        0.00
   0.00000000   0.00000000   0.00066532            0.00        0.00       97.87

     Energy error            =      6.4E-01 Ry
     Gradient error          =      1.1E-03 Ry/Bohr
     Cell gradient error     =      4.0E+02 kbar

     number of scf cycles    =   2
     number of bfgs steps    =   1

     enthalpy           old  =    -100.5477443304 Ry
     enthalpy           new  =    -101.1864018605 Ry

     CASE: enthalpy          _new < enthalpy          _old

     new trust radius        =       0.7176189322 bohr
ibrav =      5
 celldm(1) =      7.50789710
 celldm(4) =     -0.02442876
Input lattice vectors:
     0.56532470    -0.32639037     0.44476872
    -0.00000000     0.65278073     0.44476872
    -0.56532470    -0.32639037     0.44476872
New lattice vectors in INITIAL alat:
     0.56532470    -0.32639037     0.44476872
     0.00000000     0.65278073     0.44476872
    -0.56532470    -0.32639037     0.44476872
New lattice vectors in NEW alat (for information only):
     0.71569154    -0.41320470     0.56306971
     0.00000000     0.82640940     0.56306971
    -0.71569154    -0.41320470     0.56306971
Discrepancy in bohr =     0.000000    0.000000    0.000000
     new conv_thr            =       0.0000000001 Ry

     new unit-cell volume =    422.82386 a.u.^3 (    62.65603 Ang^3 )
     density =      2.59239 g/cm^3

CELL_PARAMETERS (alat=  9.50487119)
   0.565324697  -0.326390366   0.444768724
   0.000000000   0.652780732   0.444768724
  -0.565324697  -0.326390366   0.444768724

ATOMIC_POSITIONS (crystal)
Li            1.0064070165        0.4935929835        0.7500000000
Li            0.9935929835       -0.4935929835        0.2500000000
Li           -0.2500000000        0.0064070165        0.4935929835
Li            0.2500000000       -0.0064070165        1.5064070165
Li           -0.5064070165       -0.2500000000        1.0064070165
Li            0.5064070165        0.2500000000        0.9935929835
Si           -0.0000000000       -0.0000000000        0.0000000000
Si            0.5000000000        0.5000000000        1.5000000000



     Writing config-only to output data dir ./output/LiSi.save/
     NEW-OLD atomic charge density approx. for the potential

     negative rho (up, down):  3.348E-02 0.000E+00
     extrapolated charge   11.59936, renormalised to   26.00000

     total cpu time spent up to now is       39.7 secs

     Self-consistent Calculation

     iteration #  1     ecut=    80.00 Ry     beta= 0.70
     Davidson diagonalization with overlap
     c_bands:  1 eigenvalues not converged
     c_bands:  1 eigenvalues not converged
     c_bands:  1 eigenvalues not converged
     c_bands:  1 eigenvalues not converged
     ethr =  1.00E-06,  avg # of iterations = 13.6

     negative rho (up, down):  4.675E-05 0.000E+00

     total cpu time spent up to now is       44.2 secs

     total energy              =    -101.90721143 Ry
     estimated scf accuracy    <       1.96058558 Ry

     iteration #  2     ecut=    80.00 Ry     beta= 0.70
     Davidson diagonalization with overlap
     ethr =  7.54E-03,  avg # of iterations =  2.0

     total cpu time spent up to now is       45.7 secs

     total energy              =    -102.83673057 Ry
     estimated scf accuracy    <       0.36836547 Ry

     iteration #  3     ecut=    80.00 Ry     beta= 0.70
     Davidson diagonalization with overlap
     ethr =  1.42E-03,  avg # of iterations =  2.0

     total cpu time spent up to now is       47.1 secs

     total energy              =    -102.88037079 Ry
     estimated scf accuracy    <       0.00534638 Ry

     iteration #  4     ecut=    80.00 Ry     beta= 0.70
     Davidson diagonalization with overlap
     ethr =  2.06E-05,  avg # of iterations =  4.5

     total cpu time spent up to now is       48.7 secs

     total energy              =    -102.88202145 Ry
     estimated scf accuracy    <       0.00106459 Ry

     iteration #  5     ecut=    80.00 Ry     beta= 0.70
     Davidson diagonalization with overlap
     ethr =  4.09E-06,  avg # of iterations =  2.9

     total cpu time spent up to now is       50.2 secs

     total energy              =    -102.88218183 Ry
     estimated scf accuracy    <       0.00011541 Ry

     iteration #  6     ecut=    80.00 Ry     beta= 0.70
     Davidson diagonalization with overlap
     ethr =  4.44E-07,  avg # of iterations =  2.0

     total cpu time spent up to now is       51.4 secs

     total energy              =    -102.88219223 Ry
     estimated scf accuracy    <       0.00000290 Ry

     iteration #  7     ecut=    80.00 Ry     beta= 0.70
     Davidson diagonalization with overlap
     ethr =  1.12E-08,  avg # of iterations =  2.4

     total cpu time spent up to now is       52.7 secs

     total energy              =    -102.88219286 Ry
     estimated scf accuracy    <       0.00000001 Ry

     iteration #  8     ecut=    80.00 Ry     beta= 0.70
     Davidson diagonalization with overlap
     ethr =  4.71E-11,  avg # of iterations =  4.0

     total cpu time spent up to now is       54.3 secs

     total energy              =    -102.88219287 Ry
     estimated scf accuracy    <          2.8E-10 Ry

     iteration #  9     ecut=    80.00 Ry     beta= 0.70
     Davidson diagonalization with overlap
     ethr =  1.09E-12,  avg # of iterations =  2.6

     total cpu time spent up to now is       55.6 secs

     End of self-consistent calculation

          k = 0.0000 0.0000 0.0000 ( 10389 PWs)   bands (ev):

   -36.7118 -36.4644 -36.4644 -36.1697 -36.1697 -36.1651  -0.6970   2.9070
     5.0391   5.2408   5.2408   9.2441   9.2441  10.6254  10.6254  11.2618
    13.3832

          k =-0.1474-0.0851 0.1249 ( 10393 PWs)   bands (ev):

   -36.6925 -36.4785 -36.4478 -36.1911 -36.1694 -36.1666  -0.5791   2.2607
     5.2855   5.4050   5.7722   8.8480   9.5941   9.8090   9.9966  11.1156
    13.6854

          k =-0.2948-0.1702 0.2498 ( 10371 PWs)   bands (ev):

   -36.6416 -36.5185 -36.4001 -36.2515 -36.1686 -36.1670  -0.2210   1.2431
     5.7825   5.8542   6.6416   8.1079   8.4585   8.6138  10.6589  11.4323
    14.4195

          k = 0.4422 0.2553-0.3747 ( 10360 PWs)   bands (ev):

   -36.5772 -36.5772 -36.3291 -36.3291 -36.1676 -36.1676   0.3874   0.3874
     6.2233   6.2233   7.4051   7.4051   7.7893   7.7893  11.4225  11.4225
    15.1491

          k =-0.1474 0.0851 0.2498 ( 10408 PWs)   bands (ev):

   -36.6716 -36.4790 -36.4468 -36.1953 -36.1865 -36.1673  -0.4468   1.8629
     4.9823   5.5325   6.6491   8.4588   9.0326   9.3776  10.4364  11.5675
    12.9636

          k =-0.2948-0.0000 0.3747 ( 10385 PWs)   bands (ev):

   -36.6207 -36.5112 -36.4057 -36.2529 -36.1903 -36.1671  -0.0840   1.1170
     5.0908   6.0215   7.0359   7.5377   8.3714   9.1007  11.1918  12.0849
    12.7893

          k = 0.4422 0.4255-0.2498 ( 10367 PWs)   bands (ev):

   -36.5715 -36.5526 -36.3365 -36.3298 -36.1910 -36.1671   0.3874   0.5062
     5.5307   6.1084   6.4481   7.6650   7.8413   9.1529  11.7109  12.3151
    12.8299

          k = 0.2948 0.3404-0.1249 ( 10371 PWs)   bands (ev):

   -36.6279 -36.5022 -36.4038 -36.2552 -36.1913 -36.1674  -0.1597   1.2776
     5.0515   6.0009   6.8327   7.4713   8.3767   9.2285  11.2727  12.2165
    12.8708

          k = 0.1474 0.2553 0.0000 ( 10365 PWs)   bands (ev):

   -36.6754 -36.4725 -36.4469 -36.1951 -36.1886 -36.1679  -0.4834   2.0164
     4.8604   5.5286   6.6228   8.1524   8.9671   9.5668  10.4662  11.8635
    13.0962

          k =-0.2948 0.1702 0.4996 ( 10380 PWs)   bands (ev):

   -36.5774 -36.4963 -36.4003 -36.2722 -36.2362 -36.1668   0.2411   0.8576
     4.6180   5.7996   6.5535   7.9831   8.0121   9.8666  11.3366  11.9077
    13.3397

          k = 0.4422 0.5957-0.1249 ( 10367 PWs)   bands (ev):

   -36.5565 -36.4908 -36.3518 -36.3378 -36.2464 -36.1667   0.4656   0.6961
     4.6624   5.0626   7.0452   7.5940   8.1581  10.1987  10.7874  12.3506
    13.0424

          k = 0.2948 0.5106 0.0000 ( 10371 PWs)   bands (ev):

   -36.5896 -36.4787 -36.4009 -36.2757 -36.2375 -36.1669   0.0861   1.1116
     4.5326   5.7010   6.5151   7.8274   8.2211   9.9063  11.3012  12.0676
    13.0394

          k = 0.4422-0.2553-0.7495 ( 10334 PWs)   bands (ev):

   -36.5481 -36.4366 -36.3612 -36.3596 -36.2787 -36.1665   0.5155   0.8003
     4.3081   4.6770   7.5386   7.5574   8.3089   9.7203  10.6206  12.5077
    12.7645

          k = 0.0000 0.0000 0.3747 ( 10416 PWs)   bands (ev):

   -36.6494 -36.4635 -36.4635 -36.1969 -36.1969 -36.1771  -0.3032   1.5724
     5.1215   5.1215   7.6219   8.0881   8.6637   8.6637  11.4893  11.4893
    13.9270

          k =-0.1474-0.0851 0.4996 ( 10409 PWs)   bands (ev):

   -36.5980 -36.5013 -36.4156 -36.2555 -36.1970 -36.1812   0.0585   1.0144
     5.0629   5.5519   6.7685   7.5342   8.7488   8.8740  12.0152  12.5303
    13.1827

          k = 0.5896 0.3404-0.1249 ( 10403 PWs)   bands (ev):

   -36.5542 -36.5373 -36.3416 -36.3359 -36.1956 -36.1846   0.4030   0.6187
     5.5401   5.5702   6.4109   6.5529   8.8664   9.3253  12.4083  12.5120
    13.1483

          k = 0.4422 0.2553 0.0000 ( 10354 PWs)   bands (ev):

   -36.6116 -36.4859 -36.4104 -36.2592 -36.1928 -36.1886  -0.0821   1.2840
     4.9448   5.6360   6.6872   7.3304   8.4762   9.1030  12.1705  12.5364
    13.1228

          k = 0.2948 0.1702 0.1249 ( 10363 PWs)   bands (ev):

   -36.6566 -36.4607 -36.4543 -36.1955 -36.1924 -36.1876  -0.3716   1.7837
     5.0127   5.1632   7.4074   7.9636   8.4505   8.7954  11.4891  11.6051
    14.2147

          k =-0.1474 0.0851 0.6245 ( 10362 PWs)   bands (ev):

   -36.5522 -36.4829 -36.4139 -36.2748 -36.2387 -36.1874   0.3737   0.8226
     4.7566   5.7370   5.8288   7.4510   8.0481   9.5169  12.4397  12.9458
    13.7392

          k = 0.5896 0.5106 0.0000 ( 10350 PWs)   bands (ev):

   -36.5325 -36.4793 -36.3544 -36.3456 -36.2488 -36.1900   0.5073   0.7851
     4.7833   5.0883   6.4847   6.6885   8.3432   9.0743  12.3457  13.4560
    13.6427

          k = 0.4422 0.4255 0.1249 ( 10369 PWs)   bands (ev):

   -36.5694 -36.4649 -36.4075 -36.2745 -36.2419 -36.1916   0.1793   1.1051
     4.6990   5.7624   5.8758   7.4234   8.1054   9.0042  12.3099  13.0840
    13.4366

          k = 0.2948 0.3404 0.2498 ( 10360 PWs)   bands (ev):

   -36.6077 -36.4946 -36.4074 -36.2545 -36.1938 -36.1905  -0.0379   1.1805
     5.1315   5.5425   6.8252   7.4908   8.5147   8.5810  12.0474  12.4567
    13.3524

          k = 0.5896-0.3404-0.6245 ( 10347 PWs)   bands (ev):

   -36.5234 -36.4263 -36.3601 -36.3600 -36.2893 -36.1920   0.5895   0.8457
     4.4816   4.7883   6.9537   7.0293   7.7938   8.2441  12.5654  13.6416
    13.8775

          k = 0.4422-0.4255-0.4996 ( 10371 PWs)   bands (ev):

   -36.5328 -36.4856 -36.3492 -36.3366 -36.2534 -36.1930   0.5666   0.7050
     4.8540   5.1815   6.5025   6.8724   8.0549   8.6777  12.4216  13.5107
    13.6378

          k = 0.2948-0.5106-0.3747 ( 10354 PWs)   bands (ev):

   -36.5476 -36.5476 -36.3346 -36.3346 -36.1924 -36.1924   0.5026   0.5026
     5.6702   5.6702   6.5199   6.5199   8.7563   8.7563  12.4801  12.4801
    13.1849

          k = 0.4422-0.2553-0.3747 ( 10384 PWs)   bands (ev):

   -36.5620 -36.4819 -36.4003 -36.2661 -36.2462 -36.1936   0.2706   0.9478
     4.7871   5.9286   5.9658   7.3596   7.8322   8.9103  12.4660  13.0047
    13.5883

          k = 0.0000 0.0000 0.7495 ( 10341 PWs)   bands (ev):

   -36.4981 -36.4397 -36.4397 -36.2734 -36.2734 -36.2269   0.6372   0.7852
     5.1892   5.1892   5.4572   7.0093   7.0093   8.8270  13.8195  14.8784
    14.8784

          k = 0.7370 0.4255 0.1249 ( 10343 PWs)   bands (ev):

   -36.4761 -36.4491 -36.3598 -36.3553 -36.2670 -36.2446   0.6478   0.9127
     5.0237   5.1594   5.9037   6.0044   7.4623   7.8023  14.5939  15.1231
    15.4640

          k = 0.5896 0.3404 0.2498 ( 10350 PWs)   bands (ev):

   -36.5201 -36.4344 -36.4162 -36.2740 -36.2568 -36.2497   0.4353   1.0193
     5.1700   5.2526   5.6744   6.8728   7.0810   8.2494  13.5051  14.7270
    14.7329

          k = 0.7370-0.4255-0.4996 ( 10347 PWs)   bands (ev):

   -36.4563 -36.3988 -36.3619 -36.3564 -36.3185 -36.2606   0.7673   0.9286
     4.9911   5.1427   6.1047   6.1834   6.7569   6.8584  15.3448  16.1137
    16.2619

          k = 0.5896-0.5106-0.3747 ( 10360 PWs)   bands (ev):

   -36.4687 -36.4687 -36.3459 -36.3459 -36.2614 -36.2614   0.7675   0.7675
     5.2288   5.2288   5.9837   5.9837   7.3858   7.3858  14.7787  14.7787
    15.5255

          k =-0.0000 0.0000-1.1242 ( 10342 PWs)   bands (ev):

   -36.3698 -36.3698 -36.3698 -36.3698 -36.3370 -36.3370   0.9199   0.9199
     5.7804   5.7804   5.7804   5.7804   5.8200   5.8200  18.2363  18.2363
    18.2363

     the Fermi energy is     8.6101 ev

!    total energy              =    -102.88219287 Ry
     estimated scf accuracy    <          3.7E-11 Ry
     smearing contrib. (-TS)   =       0.00035089 Ry
     internal energy E=F+TS    =    -102.88254376 Ry

     The total energy is F=E-TS. E is the sum of the following terms:
     one-electron contribution =     -26.35345349 Ry
     hartree contribution      =      16.81431395 Ry
     xc contribution           =     -27.87690753 Ry
     ewald contribution        =     -65.46649669 Ry

     convergence has been achieved in   9 iterations

     Forces acting on atoms (cartesian axes, Ry/au):

     atom    1 type  1   force =    -0.00108206    0.00187418    0.00000000
     atom    2 type  1   force =     0.00108206   -0.00187418   -0.00000000
     atom    3 type  1   force =    -0.00108206   -0.00187418   -0.00000000
     atom    4 type  1   force =     0.00108206    0.00187418    0.00000000
     atom    5 type  1   force =     0.00216412   -0.00000000   -0.00000000
     atom    6 type  1   force =    -0.00216412    0.00000000    0.00000000
     atom    7 type  2   force =     0.00000000    0.00000000   -0.00000000
     atom    8 type  2   force =     0.00000000   -0.00000000    0.00000000
     The non-local contrib.  to forces
     atom    1 type  1   force =    -0.00364998    0.00632195    0.00000000
     atom    2 type  1   force =     0.00364998   -0.00632195   -0.00000000
     atom    3 type  1   force =    -0.00364998   -0.00632195   -0.00000000
     atom    4 type  1   force =     0.00364998    0.00632195    0.00000000
     atom    5 type  1   force =     0.00729996    0.00000000   -0.00000000
     atom    6 type  1   force =    -0.00729996    0.00000000    0.00000000
     atom    7 type  2   force =     0.00000000   -0.00000000    0.00000000
     atom    8 type  2   force =     0.00000000   -0.00000000    0.00000000
     The ionic contribution  to forces
     atom    1 type  1   force =    -0.01564942    0.02710559   -0.00000000
     atom    2 type  1   force =     0.01564942   -0.02710559   -0.00000000
     atom    3 type  1   force =    -0.01564942   -0.02710559   -0.00000000
     atom    4 type  1   force =     0.01564942    0.02710559    0.00000000
     atom    5 type  1   force =     0.03129884    0.00000000   -0.00000000
     atom    6 type  1   force =    -0.03129884    0.00000000   -0.00000000
     atom    7 type  2   force =     0.00000000    0.00000000    0.00000000
     atom    8 type  2   force =     0.00000000    0.00000000   -0.00000000
     The local contribution  to forces
     atom    1 type  1   force =     0.01821789   -0.03155432   -0.00000000
     atom    2 type  1   force =    -0.01821789    0.03155432    0.00000000
     atom    3 type  1   force =     0.01821789    0.03155432    0.00000000
     atom    4 type  1   force =    -0.01821789   -0.03155432   -0.00000000
     atom    5 type  1   force =    -0.03643579    0.00000000    0.00000000
     atom    6 type  1   force =     0.03643579   -0.00000000   -0.00000000
     atom    7 type  2   force =    -0.00000000   -0.00000000    0.00000000
     atom    8 type  2   force =     0.00000000   -0.00000000    0.00000000
     The core correction contribution to forces
     atom    1 type  1   force =     0.00000000    0.00000000    0.00000000
     atom    2 type  1   force =     0.00000000    0.00000000    0.00000000
     atom    3 type  1   force =     0.00000000    0.00000000    0.00000000
     atom    4 type  1   force =     0.00000000    0.00000000    0.00000000
     atom    5 type  1   force =     0.00000000    0.00000000    0.00000000
     atom    6 type  1   force =     0.00000000    0.00000000    0.00000000
     atom    7 type  2   force =    -0.00000000   -0.00000000    0.00000000
     atom    8 type  2   force =     0.00000000   -0.00000000    0.00000000
     The Hubbard contrib.    to forces
     atom    1 type  1   force =     0.00000000    0.00000000    0.00000000
     atom    2 type  1   force =     0.00000000    0.00000000    0.00000000
     atom    3 type  1   force =     0.00000000    0.00000000    0.00000000
     atom    4 type  1   force =     0.00000000    0.00000000    0.00000000
     atom    5 type  1   force =     0.00000000    0.00000000    0.00000000
     atom    6 type  1   force =     0.00000000    0.00000000    0.00000000
     atom    7 type  2   force =     0.00000000    0.00000000    0.00000000
     atom    8 type  2   force =     0.00000000    0.00000000    0.00000000
     The SCF correction term to forces
     atom    1 type  1   force =    -0.00000056    0.00000096    0.00000000
     atom    2 type  1   force =     0.00000056   -0.00000096   -0.00000000
     atom    3 type  1   force =    -0.00000056   -0.00000096   -0.00000000
     atom    4 type  1   force =     0.00000056    0.00000096    0.00000000
     atom    5 type  1   force =     0.00000111    0.00000000   -0.00000000
     atom    6 type  1   force =    -0.00000111    0.00000000   -0.00000000
     atom    7 type  2   force =     0.00000000    0.00000000   -0.00000000
     atom    8 type  2   force =     0.00000000    0.00000000   -0.00000000

     Total force =     0.005301     Total SCF correction =     0.000003


     Computing stress (Cartesian axis) and pressure

          total   stress  (Ry/bohr**3)                   (kbar)     P=      744.13
   0.00519360  -0.00000000  -0.00000000          764.00       -0.00       -0.00
  -0.00000000   0.00519360   0.00000000           -0.00      764.00        0.00
   0.00000000   0.00000000   0.00478823            0.00        0.00      704.37

     Energy error            =      2.6E-01 Ry
     Gradient error          =      2.2E-03 Ry/Bohr
     Cell gradient error     =      2.6E+02 kbar

     number of scf cycles    =   3
     number of bfgs steps    =   2

     enthalpy           old  =    -101.1864018605 Ry
     enthalpy           new  =    -101.4450437735 Ry

     CASE: enthalpy          _new < enthalpy          _old

     new trust radius        =       0.2109149119 bohr
ibrav =      5
 celldm(1) =      7.88325034
 celldm(4) =     -0.02695020
Input lattice vectors:
     0.59431785    -0.34312957     0.46576504
    -0.00000000     0.68625915     0.46576504
    -0.59431785    -0.34312957     0.46576504
New lattice vectors in INITIAL alat:
     0.59431785    -0.34312957     0.46576504
     0.00000000     0.68625915     0.46576504
    -0.59431785    -0.34312957     0.46576504
New lattice vectors in NEW alat (for information only):
     0.71657177    -0.41371290     0.56157505
     0.00000000     0.82742581     0.56157505
    -0.71657177    -0.41371290     0.56157505
Discrepancy in bohr =     0.000000    0.000000    0.000000
     new conv_thr            =       0.0000000002 Ry

     new unit-cell volume =    489.36597 a.u.^3 (    72.51656 Ang^3 )
     density =      2.23989 g/cm^3

CELL_PARAMETERS (alat=  9.50487119)
   0.594317854  -0.343129573   0.465765036
   0.000000000   0.686259146   0.465765036
  -0.594317854  -0.343129573   0.465765036

ATOMIC_POSITIONS (crystal)
Li            1.0063495437        0.4936504563        0.7500000000
Li            0.9936504563       -0.4936504563        0.2500000000
Li           -0.2500000000        0.0063495437        0.4936504563
Li            0.2500000000       -0.0063495437        1.5063495437
Li           -0.5063495437       -0.2500000000        1.0063495437
Li            0.5063495437        0.2500000000        0.9936504563
Si           -0.0000000000       -0.0000000000        0.0000000000
Si            0.5000000000        0.5000000000        1.5000000000



     Writing config-only to output data dir ./output/LiSi.save/
     NEW-OLD atomic charge density approx. for the potential
     extrapolated charge   29.53149, renormalised to   26.00000

     total cpu time spent up to now is       59.9 secs

     Self-consistent Calculation

     iteration #  1     ecut=    80.00 Ry     beta= 0.70
     Davidson diagonalization with overlap
     ethr =  1.00E-06,  avg # of iterations =  8.7

     total cpu time spent up to now is       63.0 secs

     total energy              =    -103.06953018 Ry
     estimated scf accuracy    <       0.02193509 Ry

     iteration #  2     ecut=    80.00 Ry     beta= 0.70
     Davidson diagonalization with overlap
     ethr =  8.44E-05,  avg # of iterations =  3.0

     total cpu time spent up to now is       64.8 secs

     total energy              =    -103.14679584 Ry
     estimated scf accuracy    <       0.02302883 Ry

     iteration #  3     ecut=    80.00 Ry     beta= 0.70
     Davidson diagonalization with overlap
     ethr =  8.44E-05,  avg # of iterations =  1.0

     total cpu time spent up to now is       65.9 secs

     total energy              =    -103.14799053 Ry
     estimated scf accuracy    <       0.00610838 Ry

     iteration #  4     ecut=    80.00 Ry     beta= 0.70
     Davidson diagonalization with overlap
     ethr =  2.35E-05,  avg # of iterations =  1.0

     total cpu time spent up to now is       67.0 secs

     total energy              =    -103.14441744 Ry
     estimated scf accuracy    <       0.00659546 Ry

     iteration #  5     ecut=    80.00 Ry     beta= 0.70
     Davidson diagonalization with overlap
     ethr =  2.35E-05,  avg # of iterations =  2.0

     total cpu time spent up to now is       68.1 secs

     total energy              =    -103.14447739 Ry
     estimated scf accuracy    <       0.00064273 Ry

     iteration #  6     ecut=    80.00 Ry     beta= 0.70
     Davidson diagonalization with overlap
     ethr =  2.47E-06,  avg # of iterations =  2.8

     total cpu time spent up to now is       69.6 secs

     total energy              =    -103.14463862 Ry
     estimated scf accuracy    <       0.00027423 Ry

     iteration #  7     ecut=    80.00 Ry     beta= 0.70
     Davidson diagonalization with overlap
     ethr =  1.05E-06,  avg # of iterations =  1.1

     total cpu time spent up to now is       70.7 secs

     total energy              =    -103.14461217 Ry
     estimated scf accuracy    <       0.00011686 Ry

     iteration #  8     ecut=    80.00 Ry     beta= 0.70
     Davidson diagonalization with overlap
     ethr =  4.49E-07,  avg # of iterations =  1.3

     total cpu time spent up to now is       71.8 secs

     total energy              =    -103.14462208 Ry
     estimated scf accuracy    <       0.00001791 Ry

     iteration #  9     ecut=    80.00 Ry     beta= 0.70
     Davidson diagonalization with overlap
     ethr =  6.89E-08,  avg # of iterations =  1.0

     total cpu time spent up to now is       72.8 secs

     total energy              =    -103.14461450 Ry
     estimated scf accuracy    <       0.00002080 Ry

     iteration # 10     ecut=    80.00 Ry     beta= 0.70
     Davidson diagonalization with overlap
     ethr =  6.89E-08,  avg # of iterations =  2.0

     total cpu time spent up to now is       74.1 secs

     total energy              =    -103.14461604 Ry
     estimated scf accuracy    <       0.00000093 Ry

     iteration # 11     ecut=    80.00 Ry     beta= 0.70
     Davidson diagonalization with overlap
     ethr =  3.57E-09,  avg # of iterations =  2.4

     total cpu time spent up to now is       75.4 secs

     total energy              =    -103.14461616 Ry
     estimated scf accuracy    <       0.00000009 Ry

     iteration # 12     ecut=    80.00 Ry     beta= 0.70
     Davidson diagonalization with overlap
     ethr =  3.34E-10,  avg # of iterations =  2.9

     total cpu time spent up to now is       76.7 secs

     total energy              =    -103.14461618 Ry
     estimated scf accuracy    <          1.9E-09 Ry

     iteration # 13     ecut=    80.00 Ry     beta= 0.70
     Davidson diagonalization with overlap
     ethr =  7.14E-12,  avg # of iterations =  3.2

     total cpu time spent up to now is       78.1 secs

     total energy              =    -103.14461618 Ry
     estimated scf accuracy    <          2.5E-09 Ry

     iteration # 14     ecut=    80.00 Ry     beta= 0.70
     Davidson diagonalization with overlap
     ethr =  7.14E-12,  avg # of iterations =  2.0

     total cpu time spent up to now is       79.3 secs

     End of self-consistent calculation

          k = 0.0000 0.0000 0.0000 ( 10389 PWs)   bands (ev):

   -38.0635 -37.9113 -37.9113 -37.7074 -37.7074 -37.7056  -1.8410   1.3819
     3.9742   4.1491   4.1491   7.8743   7.8743   8.8173   8.8173   9.4122
    11.8374

          k =-0.1402-0.0810 0.1193 ( 10393 PWs)   bands (ev):

   -38.0511 -37.9198 -37.9000 -37.7225 -37.7072 -37.7062  -1.7211   0.9037
     4.1975   4.3033   4.4758   7.4352   8.0880   8.3284   8.3749   9.2726
    12.1058

          k =-0.2804-0.1619 0.2386 ( 10371 PWs)   bands (ev):

   -38.0191 -37.9439 -37.8672 -37.7642 -37.7069 -37.7062  -1.3618   0.0302
     4.6673   4.7299   5.1570   6.6385   6.9971   7.1584   9.2080   9.5798
    12.7515

          k = 0.4207 0.2429-0.3578 ( 10360 PWs)   bands (ev):

   -37.9795 -37.9795 -37.8180 -37.8180 -37.7065 -37.7065  -0.7678  -0.7678
     5.0966   5.0966   5.8949   5.8949   6.3742   6.3742   9.7203   9.7203
    13.2160

          k =-0.1402 0.0810 0.2386 ( 10408 PWs)   bands (ev):

   -38.0377 -37.9196 -37.8989 -37.7248 -37.7197 -37.7064  -1.5884   0.5771
     3.8399   4.4258   5.2700   7.0106   7.6207   7.8187   8.9270   9.7313
    11.3887

          k =-0.2804-0.0000 0.3578 ( 10385 PWs)   bands (ev):

   -38.0055 -37.9389 -37.8705 -37.7648 -37.7220 -37.7062  -1.2259  -0.0756
     3.8955   4.8823   5.6732   6.0792   6.9258   7.5675   9.6425  10.2599
    11.1807

          k = 0.4207 0.4048-0.2386 ( 10367 PWs)   bands (ev):

   -37.9762 -37.9627 -37.8224 -37.8182 -37.7224 -37.7061  -0.7586  -0.6512
     4.3358   4.7551   5.2917   6.2635   6.4203   7.5207  10.0164  10.5502
    11.2090

          k = 0.2804 0.3238-0.1193 ( 10371 PWs)   bands (ev):

   -38.0104 -37.9329 -37.8691 -37.7665 -37.7226 -37.7063  -1.2949   0.0657
     3.8830   4.8581   5.4555   6.0086   6.9278   7.7346   9.6891  10.3653
    11.2691

          k = 0.1402 0.2429 0.0000 ( 10365 PWs)   bands (ev):

   -38.0403 -37.9154 -37.8989 -37.7254 -37.7206 -37.7066  -1.6219   0.7041
     3.7487   4.4173   5.2523   6.6970   7.5317   8.0516   8.9425   9.9761
    11.5139

          k =-0.2804 0.1619 0.4771 ( 10380 PWs)   bands (ev):

   -37.9788 -37.9268 -37.8658 -37.7764 -37.7546 -37.7059  -0.9019  -0.3000
     3.4102   4.4977   5.3565   6.5765   6.6090   8.1555   9.8830  10.2431
    11.4327

          k = 0.4207 0.5667-0.1193 ( 10367 PWs)   bands (ev):

   -37.9677 -37.9205 -37.8311 -37.8223 -37.7613 -37.7058  -0.6667  -0.4591
     3.4720   3.7637   5.7996   6.2296   6.7702   8.4272   9.3851  10.5910
    11.1796

          k = 0.2804 0.4857 0.0000 ( 10371 PWs)   bands (ev):

   -37.9868 -37.9155 -37.8658 -37.7793 -37.7550 -37.7060  -1.0426  -0.0743
     3.3619   4.3762   5.3146   6.4302   6.7867   8.2403   9.8478  10.3966
    11.1481

          k = 0.4207-0.2429-0.7157 ( 10334 PWs)   bands (ev):

   -37.9630 -37.8830 -37.8359 -37.8358 -37.7856 -37.7057  -0.6094  -0.3529
     3.1239   3.3920   6.1848   6.2119   6.9288   8.5001   8.7851  10.6663
    10.8993

          k = 0.0000 0.0000 0.3578 ( 10416 PWs)   bands (ev):

   -38.0231 -37.9093 -37.9093 -37.7260 -37.7260 -37.7139  -1.4455   0.3313
     3.9678   3.9678   6.1683   6.5976   7.2797   7.2797   9.8159   9.8159
    12.1553

          k =-0.1402-0.0810 0.4771 ( 10409 PWs)   bands (ev):

   -37.9904 -37.9323 -37.8766 -37.7663 -37.7262 -37.7162  -1.0853  -0.1616
     3.8513   4.3756   5.3882   6.2142   7.2928   7.3164  10.4148  10.6637
    11.4941

          k = 0.5609 0.3238-0.1193 ( 10403 PWs)   bands (ev):

   -37.9645 -37.9530 -37.8256 -37.8216 -37.7255 -37.7181  -0.7360  -0.5408
     4.3030   4.3075   5.1319   5.2829   7.3332   7.7913  10.6629  10.7293
    11.4116

          k = 0.4207 0.2429 0.0000 ( 10354 PWs)   bands (ev):

   -37.9998 -37.9221 -37.8730 -37.7689 -37.7238 -37.7205  -1.2139   0.0763
     3.7728   4.4654   5.2871   6.0048   6.9196   7.6777  10.5554  10.6795
    11.3795

          k = 0.2804 0.1619 0.1193 ( 10363 PWs)   bands (ev):

   -38.0281 -37.9073 -37.9032 -37.7259 -37.7229 -37.7200  -1.5084   0.5110
     3.8934   4.0128   5.9718   6.4633   7.0632   7.4210   9.8091   9.9139
    12.4037

          k =-0.1402 0.0810 0.5964 ( 10362 PWs)   bands (ev):

   -37.9616 -37.9184 -37.8746 -37.7783 -37.7557 -37.7201  -0.7720  -0.3268
     3.5393   4.4317   4.6014   6.1021   6.6936   7.9230  10.7797  11.2039
    11.9187

          k = 0.5609 0.4857 0.0000 ( 10350 PWs)   bands (ev):

   -37.9514 -37.9135 -37.8328 -37.8273 -37.7624 -37.7216  -0.6229  -0.3721
     3.5796   3.7964   5.2241   5.3810   6.9253   7.6085  10.6029  11.6461
    11.7754

          k = 0.4207 0.4048 0.1193 ( 10369 PWs)   bands (ev):

   -37.9731 -37.9068 -37.8700 -37.7785 -37.7576 -37.7226  -0.9497  -0.0757
     3.5186   4.4319   4.6555   6.0695   6.7462   7.4555  10.6028  11.3304
    11.6392

          k = 0.2804 0.3238 0.2386 ( 10360 PWs)   bands (ev):

   -37.9971 -37.9278 -37.8712 -37.7658 -37.7243 -37.7219  -1.1740  -0.0152
     3.9273   4.3890   5.4227   6.1654   6.9713   7.1579  10.4341  10.6262
    11.5607

          k = 0.5609-0.3238-0.5964 ( 10347 PWs)   bands (ev):

   -37.9463 -37.8767 -37.8361 -37.8353 -37.7921 -37.7228  -0.5382  -0.3077
     3.2870   3.5082   5.6230   5.6982   6.4305   6.8938  10.7974  11.7338
    11.9537

          k = 0.4207-0.4048-0.4771 ( 10371 PWs)   bands (ev):

   -37.9515 -37.9177 -37.8295 -37.8215 -37.7653 -37.7235  -0.5699  -0.4457
     3.6439   3.8867   5.2490   5.5686   6.6572   7.2097  10.6304  11.6522
    11.8254

          k = 0.2804-0.4857-0.3578 ( 10354 PWs)   bands (ev):

   -37.9600 -37.9600 -37.8210 -37.8210 -37.7232 -37.7232  -0.6467  -0.6467
     4.4183   4.4183   5.2469   5.2469   7.2456   7.2456  10.6883  10.6884
    11.4347

          k = 0.4207-0.2429-0.3578 ( 10384 PWs)   bands (ev):

   -37.9681 -37.9179 -37.8656 -37.7723 -37.7610 -37.7239  -0.8673  -0.2157
     3.5712   4.6077   4.7666   6.0128   6.4706   7.3601  10.7313  11.2726
    11.7651

          k = 0.0000 0.0000 0.7157 ( 10341 PWs)   bands (ev):

   -37.9251 -37.8907 -37.8907 -37.7777 -37.7777 -37.7474  -0.5118  -0.3535
     3.9497   3.9497   4.1698   5.6963   5.6963   7.3699  11.9585  12.9607
    12.9607

          k = 0.7011 0.4048 0.1193 ( 10343 PWs)   bands (ev):

   -37.9131 -37.8949 -37.8362 -37.8331 -37.7738 -37.7587  -0.4832  -0.2443
     3.7952   3.8858   4.6308   4.7338   6.0961   6.4480  12.6076  13.1435
    13.5200

          k = 0.5609 0.3238 0.2386 ( 10350 PWs)   bands (ev):

   -37.9404 -37.8869 -37.8751 -37.7782 -37.7663 -37.7625  -0.6966  -0.1452
     3.9710   4.0157   4.3456   5.5571   5.7863   6.7987  11.6143  12.8243
    12.8603

          k = 0.7011-0.4048-0.4771 ( 10347 PWs)   bands (ev):

   -37.9008 -37.8599 -37.8374 -37.8329 -37.8100 -37.7689  -0.3684  -0.2236
     3.7655   3.8728   4.8150   4.8872   5.4373   5.5637  13.3382  14.0509
    14.1892

          k = 0.5609-0.4857-0.3578 ( 10360 PWs)   bands (ev):

   -37.9079 -37.9079 -37.8273 -37.8273 -37.7697 -37.7697  -0.3762  -0.3762
     3.9623   3.9623   4.7329   4.7329   6.0226   6.0226  12.7577  12.7577
    13.5888

          k = 0.0000 0.0000-1.0735 ( 10342 PWs)   bands (ev):

   -37.8425 -37.8425 -37.8425 -37.8425 -37.8201 -37.8201  -0.2262  -0.2262
     4.4964   4.4964   4.4964   4.4964   4.5730   4.5730  16.0225  16.0225
    16.0225

     the Fermi energy is     7.1435 ev

!    total energy              =    -103.14461618 Ry
     estimated scf accuracy    <          6.0E-12 Ry
     smearing contrib. (-TS)   =       0.00049298 Ry
     internal energy E=F+TS    =    -103.14510916 Ry

     The total energy is F=E-TS. E is the sum of the following terms:
     one-electron contribution =     -30.77750790 Ry
     hartree contribution      =      17.47004338 Ry
     xc contribution           =     -27.48356376 Ry
     ewald contribution        =     -62.35408087 Ry

     convergence has been achieved in  14 iterations

     Forces acting on atoms (cartesian axes, Ry/au):

     atom    1 type  1   force =    -0.00015337    0.00026564    0.00000000
     atom    2 type  1   force =     0.00015337   -0.00026564   -0.00000000
     atom    3 type  1   force =    -0.00015337   -0.00026564   -0.00000000
     atom    4 type  1   force =     0.00015337    0.00026564    0.00000000
     atom    5 type  1   force =     0.00030673    0.00000000   -0.00000000
     atom    6 type  1   force =    -0.00030673    0.00000000   -0.00000000
     atom    7 type  2   force =    -0.00000000   -0.00000000   -0.00000000
     atom    8 type  2   force =     0.00000000   -0.00000000   -0.00000000
     The non-local contrib.  to forces
     atom    1 type  1   force =    -0.00257840    0.00446593    0.00000000
     atom    2 type  1   force =     0.00257840   -0.00446593   -0.00000000
     atom    3 type  1   force =    -0.00257840   -0.00446593   -0.00000000
     atom    4 type  1   force =     0.00257840    0.00446593    0.00000000
     atom    5 type  1   force =     0.00515681   -0.00000000    0.00000000
     atom    6 type  1   force =    -0.00515681    0.00000000   -0.00000000
     atom    7 type  2   force =    -0.00000000   -0.00000000   -0.00000000
     atom    8 type  2   force =     0.00000000    0.00000000    0.00000000
     The ionic contribution  to forces
     atom    1 type  1   force =    -0.01253179    0.02170570   -0.00000000
     atom    2 type  1   force =     0.01253179   -0.02170570   -0.00000000
     atom    3 type  1   force =    -0.01253179   -0.02170570   -0.00000000
     atom    4 type  1   force =     0.01253179    0.02170570    0.00000000
     atom    5 type  1   force =     0.02506358    0.00000000    0.00000000
     atom    6 type  1   force =    -0.02506358    0.00000000   -0.00000000
     atom    7 type  2   force =     0.00000000    0.00000000    0.00000000
     atom    8 type  2   force =    -0.00000000   -0.00000000   -0.00000000
     The local contribution  to forces
     atom    1 type  1   force =     0.01495680   -0.02590594   -0.00000000
     atom    2 type  1   force =    -0.01495680    0.02590594    0.00000000
     atom    3 type  1   force =     0.01495680    0.02590594    0.00000000
     atom    4 type  1   force =    -0.01495680   -0.02590594   -0.00000000
     atom    5 type  1   force =    -0.02991361    0.00000000    0.00000000
     atom    6 type  1   force =     0.02991361   -0.00000000   -0.00000000
     atom    7 type  2   force =    -0.00000000   -0.00000000    0.00000000
     atom    8 type  2   force =     0.00000000    0.00000000   -0.00000000
     The core correction contribution to forces
     atom    1 type  1   force =     0.00000000    0.00000000    0.00000000
     atom    2 type  1   force =     0.00000000    0.00000000    0.00000000
     atom    3 type  1   force =     0.00000000    0.00000000    0.00000000
     atom    4 type  1   force =     0.00000000    0.00000000    0.00000000
     atom    5 type  1   force =     0.00000000    0.00000000    0.00000000
     atom    6 type  1   force =     0.00000000    0.00000000    0.00000000
     atom    7 type  2   force =    -0.00000000   -0.00000000    0.00000000
     atom    8 type  2   force =     0.00000000    0.00000000    0.00000000
     The Hubbard contrib.    to forces
     atom    1 type  1   force =     0.00000000    0.00000000    0.00000000
     atom    2 type  1   force =     0.00000000    0.00000000    0.00000000
     atom    3 type  1   force =     0.00000000    0.00000000    0.00000000
     atom    4 type  1   force =     0.00000000    0.00000000    0.00000000
     atom    5 type  1   force =     0.00000000    0.00000000    0.00000000
     atom    6 type  1   force =     0.00000000    0.00000000    0.00000000
     atom    7 type  2   force =     0.00000000    0.00000000    0.00000000
     atom    8 type  2   force =     0.00000000    0.00000000    0.00000000
     The SCF correction term to forces
     atom    1 type  1   force =     0.00000003   -0.00000005    0.00000000
     atom    2 type  1   force =    -0.00000003    0.00000005   -0.00000000
     atom    3 type  1   force =     0.00000003    0.00000005   -0.00000000
     atom    4 type  1   force =    -0.00000003   -0.00000005    0.00000000
     atom    5 type  1   force =    -0.00000005    0.00000000    0.00000000
     atom    6 type  1   force =     0.00000005   -0.00000000    0.00000000
     atom    7 type  2   force =     0.00000000    0.00000000   -0.00000000
     atom    8 type  2   force =     0.00000000   -0.00000000   -0.00000000

     Total force =     0.000751     Total SCF correction =     0.000000


     Computing stress (Cartesian axis) and pressure

          total   stress  (Ry/bohr**3)                   (kbar)     P=      441.57
   0.00308299  -0.00000000   0.00000000          453.52       -0.00        0.00
  -0.00000000   0.00308299   0.00000000           -0.00      453.52        0.00
   0.00000000   0.00000000   0.00283920            0.00        0.00      417.66

     Energy error            =      3.6E-02 Ry
     Gradient error          =      3.1E-04 Ry/Bohr
     Cell gradient error     =      8.2E+01 kbar

     number of scf cycles    =   4
     number of bfgs steps    =   3

     enthalpy           old  =    -101.4450437735 Ry
     enthalpy           new  =    -101.4812950424 Ry

     CASE: enthalpy          _new < enthalpy          _old

     new trust radius        =       0.0582889986 bohr
ibrav =      5
 celldm(1) =      7.80596809
 celldm(4) =     -0.03016590
Input lattice vectors:
     0.58941220    -0.34029729     0.45962874
    -0.00000000     0.68059459     0.45962874
    -0.58941220    -0.34029729     0.45962874
New lattice vectors in INITIAL alat:
     0.58941220    -0.34029729     0.45962874
     0.00000000     0.68059459     0.45962874
    -0.58941220    -0.34029729     0.45962874
New lattice vectors in NEW alat (for information only):
     0.71769280    -0.41436013     0.55966305
     0.00000000     0.82872026     0.55966305
    -0.71769280    -0.41436013     0.55966305
Discrepancy in bohr =     0.000000    0.000000    0.000000
     new conv_thr            =            1.0E-10 Ry

     new unit-cell volume =    474.97937 a.u.^3 (    70.38468 Ang^3 )
     density =      2.30773 g/cm^3

CELL_PARAMETERS (alat=  9.50487119)
   0.589412203  -0.340297294   0.459628736
   0.000000000   0.680594588   0.459628736
  -0.589412203  -0.340297294   0.459628736

ATOMIC_POSITIONS (crystal)
Li            1.0063197794        0.4936802206        0.7500000000
[...]
        k(   13) = (   0.3912676  -0.2258985  -0.8762025), wk =   0.0277778
        k(   14) = (  -0.0000000   0.0000000   0.4381013), wk =   0.0185185
        k(   15) = (  -0.1304225  -0.0752995   0.5841350), wk =   0.0555556
        k(   16) = (   0.5216901   0.3011979  -0.1460338), wk =   0.0555556
        k(   17) = (   0.3912676   0.2258985   0.0000000), wk =   0.0555556
        k(   18) = (   0.2608451   0.1505990   0.1460338), wk =   0.0555556
        k(   19) = (  -0.1304225   0.0752995   0.7301688), wk =   0.0555556
        k(   20) = (   0.5216901   0.4517969   0.0000000), wk =   0.1111111
        k(   21) = (   0.3912676   0.3764974   0.1460338), wk =   0.1111111
        k(   22) = (   0.2608451   0.3011979   0.2920675), wk =   0.1111111
        k(   23) = (   0.5216901  -0.3011979  -0.7301688), wk =   0.0555556
        k(   24) = (   0.3912676  -0.3764974  -0.5841350), wk =   0.1111111
        k(   25) = (   0.2608451  -0.4517969  -0.4381013), wk =   0.0555556
        k(   26) = (   0.3912676  -0.2258985  -0.4381013), wk =   0.0555556
        k(   27) = (  -0.0000000   0.0000000   0.8762025), wk =   0.0185185
        k(   28) = (   0.6521127   0.3764974   0.1460338), wk =   0.0555556
        k(   29) = (   0.5216901   0.3011979   0.2920675), wk =   0.0555556
        k(   30) = (   0.6521127  -0.3764974  -0.5841350), wk =   0.0555556
        k(   31) = (   0.5216901  -0.4517969  -0.4381013), wk =   0.0555556
        k(   32) = (  -0.0000000  -0.0000000  -1.3143038), wk =   0.0092593

     Dense  grid:    44745 G-vectors     FFT dimensions: (  48,  48,  48)

     Estimated max dynamical RAM per process >      22.75 MB

     Estimated total dynamical RAM >     182.00 MB

     Initial potential from superposition of free atoms

     starting charge      25.9714, renormalised to      26.0000
     Starting wfcs are   20 randomized atomic wfcs

     total cpu time spent up to now is      402.7 secs

     Self-consistent Calculation

     iteration #  1     ecut=    80.00 Ry     beta= 0.70
     Davidson diagonalization with overlap
     c_bands:  1 eigenvalues not converged
     c_bands:  1 eigenvalues not converged
     c_bands:  1 eigenvalues not converged
     c_bands:  2 eigenvalues not converged
     c_bands:  1 eigenvalues not converged
     c_bands:  1 eigenvalues not converged
     c_bands:  2 eigenvalues not converged
     c_bands:  1 eigenvalues not converged
     c_bands:  1 eigenvalues not converged
     c_bands:  1 eigenvalues not converged
     c_bands:  1 eigenvalues not converged
     ethr =  1.00E-06,  avg # of iterations = 17.9

     total cpu time spent up to now is      404.7 secs

     total energy              =    -103.09430612 Ry
     estimated scf accuracy    <       0.04902988 Ry

     iteration #  2     ecut=    80.00 Ry     beta= 0.70
     Davidson diagonalization with overlap
     ethr =  1.89E-04,  avg # of iterations =  1.3

     total cpu time spent up to now is      405.3 secs

     total energy              =    -103.09656448 Ry
     estimated scf accuracy    <       0.00198494 Ry

     iteration #  3     ecut=    80.00 Ry     beta= 0.70
     Davidson diagonalization with overlap
     ethr =  7.63E-06,  avg # of iterations =  2.2

     total cpu time spent up to now is      405.8 secs

     total energy              =    -103.09669341 Ry
     estimated scf accuracy    <       0.00006847 Ry

     iteration #  4     ecut=    80.00 Ry     beta= 0.70
     Davidson diagonalization with overlap
     ethr =  2.63E-07,  avg # of iterations =  4.0

     total cpu time spent up to now is      406.5 secs

     total energy              =    -103.09670748 Ry
     estimated scf accuracy    <       0.00000437 Ry

     iteration #  5     ecut=    80.00 Ry     beta= 0.70
     Davidson diagonalization with overlap
     ethr =  1.68E-08,  avg # of iterations =  2.1

     total cpu time spent up to now is      407.0 secs

     total energy              =    -103.09670817 Ry
     estimated scf accuracy    <       0.00000009 Ry

     iteration #  6     ecut=    80.00 Ry     beta= 0.70
     Davidson diagonalization with overlap
     ethr =  3.45E-10,  avg # of iterations =  3.9

     total cpu time spent up to now is      407.7 secs

     total energy              =    -103.09670821 Ry
     estimated scf accuracy    <          1.0E-08 Ry

     iteration #  7     ecut=    80.00 Ry     beta= 0.70
     Davidson diagonalization with overlap
     ethr =  3.84E-11,  avg # of iterations =  2.1

     total cpu time spent up to now is      408.3 secs

     total energy              =    -103.09670821 Ry
     estimated scf accuracy    <          8.5E-10 Ry

     iteration #  8     ecut=    80.00 Ry     beta= 0.70
     Davidson diagonalization with overlap
     ethr =  3.25E-12,  avg # of iterations =  2.0

     total cpu time spent up to now is      408.8 secs

     End of self-consistent calculation

          k = 0.0000 0.0000 0.0000 (  5627 PWs)   bands (ev):

   -37.8737 -37.5396 -37.5173 -37.5173 -37.3562 -37.3562  -1.5835   2.7947
     3.9781   5.4421   5.4421   7.9346   7.9346   8.3767   8.3767  11.0240
    11.0240

          k =-0.1304-0.0753 0.1460 (  5589 PWs)   bands (ev):

   -37.8539 -37.5556 -37.5347 -37.5201 -37.3509 -37.3453  -1.4447   1.8535
     4.8443   5.4551   5.5286   7.2289   7.3238   9.0565   9.3304  11.2014
    11.5645

          k =-0.2608-0.1506 0.2921 (  5581 PWs)   bands (ev):

   -37.7983 -37.6299 -37.5351 -37.5263 -37.3393 -37.3319  -1.0262   0.6544
     5.2390   5.4516   6.5385   6.6387   6.7727   9.2087  10.6940  11.0608
    11.8297

          k = 0.3913 0.2259-0.4381 (  5578 PWs)   bands (ev):

   -37.7182 -37.7182 -37.5319 -37.5319 -37.3304 -37.3304  -0.3243  -0.3243
     5.3579   5.3579   6.5043   6.5043   7.9985   7.9985  11.1208  11.1208
    12.7017

          k =-0.1304 0.0753 0.2921 (  5592 PWs)   bands (ev):

   -37.8159 -37.6002 -37.5622 -37.5151 -37.3367 -37.3305  -1.1601   0.9254
     4.7514   5.2648   6.6079   7.3808   7.7491   9.4909   9.8900  10.2912
    11.1124

          k =-0.2608-0.0000 0.4381 (  5579 PWs)   bands (ev):

   -37.7463 -37.6740 -37.5832 -37.4947 -37.3333 -37.3295  -0.5960   0.0307
     4.4719   5.3004   6.9281   7.4650   7.9681   8.1842  10.7910  11.1905
    11.4649

          k = 0.3913 0.3765-0.2921 (  5576 PWs)   bands (ev):

   -37.7528 -37.6590 -37.5850 -37.4805 -37.3515 -37.3325  -0.7017   0.2511
     4.6143   5.4639   6.0821   6.5158   7.3697   9.2708  11.1437  11.7119
    12.0922

          k = 0.2608 0.3012-0.1460 (  5587 PWs)   bands (ev):

   -37.8171 -37.5884 -37.5591 -37.4835 -37.3674 -37.3455  -1.2066   1.3471
     4.6486   5.1903   5.7369   6.2652   6.9368   9.6143  10.7444  11.8809
    12.6459

          k = 0.1304 0.2259 0.0000 (  5589 PWs)   bands (ev):

   -37.8537 -37.5643 -37.5126 -37.5080 -37.3659 -37.3560  -1.4577   2.3064
     3.9188   5.5537   6.1943   6.3119   6.6643   9.4793   9.5383  11.7046
    12.0801

          k =-0.2608 0.1506 0.5841 (  5587 PWs)   bands (ev):

   -37.7161 -37.6671 -37.6260 -37.4577 -37.3622 -37.3323  -0.4952   0.0899
     3.9541   5.2827   5.9976   7.0047   7.9853   9.2215  11.0188  11.3063
    12.2922

          k = 0.3913 0.5271-0.1460 (  5582 PWs)   bands (ev):

   -37.7635 -37.6339 -37.5783 -37.4421 -37.3991 -37.3446  -0.9050   0.9876
     3.9162   4.5189   5.4033   6.6624   8.0987   9.5708  10.9971  11.7236
    12.1573

          k = 0.2608 0.4518 0.0000 (  5577 PWs)   bands (ev):

   -37.8029 -37.6145 -37.5142 -37.4841 -37.3906 -37.3551  -1.1563   1.7044
     3.7652   4.3889   5.6880   6.2151   7.7301   9.9997  10.6408  11.9493
    12.5938

          k = 0.3913-0.2259-0.8762 (  5590 PWs)   bands (ev):

   -37.7631 -37.6526 -37.5166 -37.4651 -37.4101 -37.3543  -0.9676   1.4833
     3.6085   3.7738   5.3529   6.8058   8.4350   9.2154  10.8878  11.9059
    12.5074

          k =-0.0000 0.0000 0.4381 (  5572 PWs)   bands (ev):

   -37.7629 -37.6313 -37.6313 -37.4758 -37.3298 -37.3298  -0.7428   0.1894
     4.5662   4.5662   8.2638   8.2638   8.4316   8.5362  10.3091  10.3091
    11.0280

          k =-0.1304-0.0753 0.5841 (  5578 PWs)   bands (ev):

   -37.7053 -37.6840 -37.6390 -37.4432 -37.3498 -37.3399  -0.4464  -0.0591
     4.2030   4.6183   6.5870   7.5785   8.2226  10.1529  10.6535  11.0648
    12.0737

          k = 0.5217 0.3012-0.1460 (  5570 PWs)   bands (ev):

   -37.7713 -37.6303 -37.5890 -37.4412 -37.3691 -37.3605  -0.9378   0.8733
     4.3322   4.8717   5.0205   6.6402   7.9502  10.3978  10.7562  12.6408
    13.0090

          k = 0.3913 0.2259 0.0000 (  5589 PWs)   bands (ev):

   -37.8176 -37.6005 -37.5145 -37.4899 -37.3817 -37.3570  -1.2396   1.8161
     3.9114   4.9425   5.5499   5.8122   7.5162  10.2009  10.7169  12.1272
    12.2593

          k = 0.2608 0.1506 0.1460 (  5575 PWs)   bands (ev):

   -37.8344 -37.5622 -37.5499 -37.5059 -37.3678 -37.3405  -1.3206   1.6844
     4.5124   5.1596   6.0218   6.2935   6.9482   9.8364  10.0142  11.2497
    12.1600

          k =-0.1304 0.0753 0.7302 (  5575 PWs)   bands (ev):

   -37.7283 -37.6711 -37.6016 -37.4044 -37.3931 -37.3631  -0.7739   0.6895
     3.8891   4.5419   5.0583   7.2156   8.0481  10.6651  11.3178  12.2783
    13.3032

          k = 0.5217 0.4518 0.0000 (  5586 PWs)   bands (ev):

   -37.7626 -37.6535 -37.5196 -37.4616 -37.4068 -37.3577  -0.9688   1.4532
     3.8773   3.9776   4.8726   6.3732   7.8545  10.5402  11.4853  12.2470
    12.8746

          k = 0.3913 0.3765 0.1460 (  5590 PWs)   bands (ev):

   -37.7845 -37.6101 -37.5460 -37.4814 -37.4004 -37.3391  -1.0237   1.3777
     4.1884   4.4877   5.4404   5.6014   7.6319  10.0044  11.0446  11.8559
    12.3961

          k = 0.2608 0.3012 0.2921 (  5583 PWs)   bands (ev):

   -37.7805 -37.6201 -37.5543 -37.5231 -37.3528 -37.3304  -0.9101   0.6720
     4.8742   5.3125   5.7068   6.3863   7.1907   8.9798  10.9688  11.5228
    12.2109

          k = 0.5217-0.3012-0.7302 (  5599 PWs)   bands (ev):

   -37.7442 -37.6485 -37.5454 -37.4517 -37.4333 -37.3389  -0.8387   1.2406
     3.7849   4.1154   5.1848   6.1589   7.1489   9.9201  11.6846  12.1149
    12.8432

          k = 0.3913-0.3765-0.5841 (  5582 PWs)   bands (ev):

   -37.7290 -37.6304 -37.6029 -37.4957 -37.3727 -37.3310  -0.5901   0.4573
     4.1483   5.2558   5.6006   5.9117   7.0001   8.6296  11.5700  12.3408
    12.5350

          k = 0.2608-0.4518-0.4381 (  5568 PWs)   bands (ev):

   -37.7034 -37.7034 -37.5413 -37.5413 -37.3360 -37.3360  -0.2343  -0.2343
     4.9638   4.9638   6.4515   6.4515   7.5713   7.5713  11.6872  11.6872
    12.3152

          k = 0.3913-0.2259-0.4381 (  5593 PWs)   bands (ev):

   -37.7140 -37.6687 -37.5775 -37.5233 -37.3412 -37.3369  -0.3479   0.0022
     4.2674   5.6433   5.8106   6.6501   7.2128   7.4544  11.7720  12.2966
    12.8327

          k =-0.0000 0.0000 0.8762 (  5572 PWs)   bands (ev):

   -37.7079 -37.7079 -37.5237 -37.4309 -37.4309 -37.3607  -0.8620   1.3289
     4.0768   4.0768   4.1330   6.8184   6.8184  11.9910  12.7366  12.7366
    13.8401

          k = 0.6521 0.3765 0.1460 (  5591 PWs)   bands (ev):

   -37.7306 -37.6604 -37.5126 -37.4809 -37.4388 -37.3388  -0.8052   1.3785
     4.0773   4.0816   4.5432   5.6947   6.6854  10.1166  12.6838  13.4708
    14.2905

          k = 0.5217 0.3012 0.2921 (  5590 PWs)   bands (ev):

   -37.7339 -37.5975 -37.5961 -37.5257 -37.3760 -37.3327  -0.6359   0.6976
     4.6216   4.8479   5.1599   5.3624   6.7499   8.4876  12.4039  13.0682
    13.0956

          k = 0.6521-0.3765-0.5841 (  5582 PWs)   bands (ev):

   -37.6911 -37.6359 -37.5837 -37.5290 -37.3883 -37.3343  -0.4680   0.7052
     4.1809   4.9041   5.0059   5.3830   5.8355   8.2949  13.4682  14.5766
    14.5831

          k = 0.5217-0.4518-0.4381 (  5568 PWs)   bands (ev):

   -37.6644 -37.6644 -37.5697 -37.5697 -37.3470 -37.3470  -0.0311  -0.0311
     4.6118   4.6118   5.7088   5.7088   6.8023   6.8023  13.0853  13.0853
    14.5744

          k =-0.0000-0.0000-1.3143 (  5614 PWs)   bands (ev):

   -37.6144 -37.6144 -37.6144 -37.6144 -37.3524 -37.3524   0.0852   0.0852
     4.8507   4.8507   4.8507   4.8507   6.5464   6.5464  15.9078  15.9078
    15.9078

     the Fermi energy is     8.1191 ev

!    total energy              =    -103.09670821 Ry
     estimated scf accuracy    <          1.0E-11 Ry
     smearing contrib. (-TS)   =      -0.00016920 Ry
     internal energy E=F+TS    =    -103.09653901 Ry

     The total energy is F=E-TS. E is the sum of the following terms:
     one-electron contribution =     -29.29053671 Ry
     hartree contribution      =      17.24689712 Ry
     xc contribution           =     -27.62678831 Ry
     ewald contribution        =     -63.42611110 Ry

     convergence has been achieved in   8 iterations

     Forces acting on atoms (cartesian axes, Ry/au):

     atom    1 type  1   force =     0.00002014   -0.00003489   -0.00000000
     atom    2 type  1   force =    -0.00002014    0.00003489    0.00000000
     atom    3 type  1   force =     0.00002014    0.00003489    0.00000000
     atom    4 type  1   force =    -0.00002014   -0.00003489   -0.00000000
     atom    5 type  1   force =    -0.00004029    0.00000000   -0.00000000
     atom    6 type  1   force =     0.00004029    0.00000000   -0.00000000
     atom    7 type  2   force =    -0.00000000   -0.00000000   -0.00000000
     atom    8 type  2   force =    -0.00000000   -0.00000000    0.00000000
     The non-local contrib.  to forces
     atom    1 type  1   force =     0.00036866   -0.00063854   -0.00000000
     atom    2 type  1   force =    -0.00036866    0.00063854    0.00000000
     atom    3 type  1   force =     0.00036866    0.00063854    0.00000000
     atom    4 type  1   force =    -0.00036866   -0.00063854   -0.00000000
     atom    5 type  1   force =    -0.00073732    0.00000000   -0.00000000
     atom    6 type  1   force =     0.00073732   -0.00000000   -0.00000000
     atom    7 type  2   force =     0.00000000    0.00000000    0.00000000
     atom    8 type  2   force =    -0.00000000   -0.00000000    0.00000000
     The ionic contribution  to forces
     atom    1 type  1   force =    -0.03083934    0.05341531    0.00000000
     atom    2 type  1   force =     0.03083934   -0.05341531   -0.00000000
     atom    3 type  1   force =    -0.03083934   -0.05341531   -0.00000000
     atom    4 type  1   force =     0.03083934    0.05341531    0.00000000
     atom    5 type  1   force =     0.06167869    0.00000000   -0.00000000
     atom    6 type  1   force =    -0.06167869    0.00000000   -0.00000000
     atom    7 type  2   force =     0.00000000    0.00000000   -0.00000000
     atom    8 type  2   force =    -0.00000000    0.00000000    0.00000000
     The local contribution  to forces
     atom    1 type  1   force =     0.03049020   -0.05281057    0.00000000
     atom    2 type  1   force =    -0.03049020    0.05281057   -0.00000000
     atom    3 type  1   force =     0.03049020    0.05281057   -0.00000000
     atom    4 type  1   force =    -0.03049020   -0.05281057    0.00000000
     atom    5 type  1   force =    -0.06098039   -0.00000000   -0.00000000
     atom    6 type  1   force =     0.06098039   -0.00000000    0.00000000
     atom    7 type  2   force =    -0.00000000    0.00000000   -0.00000000
     atom    8 type  2   force =     0.00000000   -0.00000000    0.00000000
     The core correction contribution to forces
     atom    1 type  1   force =     0.00000000    0.00000000    0.00000000
     atom    2 type  1   force =     0.00000000    0.00000000    0.00000000
     atom    3 type  1   force =     0.00000000    0.00000000    0.00000000
     atom    4 type  1   force =     0.00000000    0.00000000    0.00000000
     atom    5 type  1   force =     0.00000000    0.00000000    0.00000000
     atom    6 type  1   force =     0.00000000    0.00000000    0.00000000
     atom    7 type  2   force =    -0.00000000    0.00000000   -0.00000000
     atom    8 type  2   force =     0.00000000   -0.00000000   -0.00000000
     The Hubbard contrib.    to forces
     atom    1 type  1   force =     0.00000000    0.00000000    0.00000000
     atom    2 type  1   force =     0.00000000    0.00000000    0.00000000
     atom    3 type  1   force =     0.00000000    0.00000000    0.00000000
     atom    4 type  1   force =     0.00000000    0.00000000    0.00000000
     atom    5 type  1   force =     0.00000000    0.00000000    0.00000000
     atom    6 type  1   force =     0.00000000    0.00000000    0.00000000
     atom    7 type  2   force =     0.00000000    0.00000000    0.00000000
     atom    8 type  2   force =     0.00000000    0.00000000    0.00000000
     The SCF correction term to forces
     atom    1 type  1   force =     0.00000063   -0.00000110    0.00000000
     atom    2 type  1   force =    -0.00000063    0.00000110   -0.00000000
     atom    3 type  1   force =     0.00000063    0.00000110   -0.00000000
     atom    4 type  1   force =    -0.00000063   -0.00000110    0.00000000
     atom    5 type  1   force =    -0.00000127    0.00000000   -0.00000000
     atom    6 type  1   force =     0.00000127   -0.00000000    0.00000000
     atom    7 type  2   force =    -0.00000000   -0.00000000    0.00000000
     atom    8 type  2   force =    -0.00000000    0.00000000    0.00000000

     Total force =     0.000099     Total SCF correction =     0.000003


     Computing stress (Cartesian axis) and pressure

          total   stress  (Ry/bohr**3)                   (kbar)     P=      500.32
   0.00340127   0.00000000  -0.00000000          500.34        0.00       -0.00
  -0.00000000   0.00340127   0.00000000           -0.00      500.34        0.00
  -0.00000000   0.00000000   0.00340076           -0.00        0.00      500.27


     Writing all to output data dir ./output/LiSi.save/

     init_run     :      2.73s CPU      4.88s WALL (       2 calls)
     electrons    :    253.21s CPU    292.32s WALL (      28 calls)
     update_pot   :     21.61s CPU     21.89s WALL (      26 calls)
     forces       :     15.21s CPU     15.44s WALL (      28 calls)
     stress       :     71.12s CPU     74.85s WALL (      28 calls)

     Called by init_run:
     wfcinit      :      1.10s CPU      2.57s WALL (       2 calls)
     potinit      :      0.64s CPU      1.01s WALL (       2 calls)
     hinit0       :      0.86s CPU      1.13s WALL (       2 calls)

     Called by electrons:
     c_bands      :    220.91s CPU    253.46s WALL (     211 calls)
     sum_band     :     28.99s CPU     33.34s WALL (     211 calls)
     v_of_rho     :      3.44s CPU      4.40s WALL (     230 calls)
     mix_rho      :      0.24s CPU      0.32s WALL (     211 calls)

     Called by c_bands:
     init_us_2    :      5.98s CPU      6.82s WALL (   15360 calls)
     init_us_2:cp :      5.96s CPU      6.80s WALL (   15360 calls)
     cegterg      :    206.65s CPU    231.90s WALL (    6752 calls)

     Called by *egterg:
     cdiaghg      :      8.34s CPU      8.69s WALL (   26099 calls)
     h_psi        :    174.10s CPU    199.90s WALL (   27283 calls)
     g_psi        :      0.94s CPU      0.96s WALL (   20467 calls)

     Called by h_psi:
     h_psi:calbec :     14.61s CPU     15.92s WALL (   27283 calls)
     vloc_psi     :    145.76s CPU    169.79s WALL (   27283 calls)
     add_vuspsi   :     13.10s CPU     13.52s WALL (   27283 calls)

     General routines
     calbec       :     18.19s CPU     20.25s WALL (   31763 calls)
     fft          :      2.15s CPU      3.47s WALL (    3007 calls)
     ffts         :      0.09s CPU      0.13s WALL (     211 calls)
     fftw         :    149.90s CPU    174.48s WALL (  771894 calls)

     Parallel routines

     PWSCF        :   6m 4.51s CPU   6m50.73s WALL


   This run was terminated on:  14:36: 1  29Dec2024            

=------------------------------------------------------------------------------=
   JOB DONE.
=------------------------------------------------------------------------------=
