
     Program PWSCF v.7.2 starts on 29Dec2024 at 15: 5:14 

     This program is part of the open-source Quantum ESPRESSO suite
     for quantum simulation of materials; please cite
         "P. Giannozzi et al., J. Phys.:Condens. Matter 21 395502 (2009);
         "P. Giannozzi et al., J. Phys.:Condens. Matter 29 465901 (2017);
         "P. Giannozzi et al., J. Chem. Phys. 152 154105 (2020);
          URL http://www.quantum-espresso.org", 
     in publications or presentations arising from this work. More details at
     http://www.quantum-espresso.org/quote

     Parallel version (MPI & OpenMP), running on       8 processor cores
     Number of MPI processes:                 8
     Threads/MPI process:                     1

     MPI processes distributed on     1 nodes
     477153 MiB available memory on the printing compute node when the environment starts

     Waiting for input...
     Reading input from standard input

     Current dimensions of program PWSCF are:
     Max number of different atomic species (ntypx) = 10
     Max number of k-points (npk) =  40000
     Max angular momentum in pseudopotentials (lmaxx) =  4

     R & G space division:  proc/nbgrp/npool/nimage =       8
     Subspace diagonalization in iterative solution of the eigenvalue problem:
     a serial algorithm will be used


     Parallelization info
     --------------------
     sticks:   dense  smooth     PW     G-vecs:    dense   smooth      PW
     Min         125     125     36                 8029     8029    1240
     Max         126     126     37                 8038     8038    1249
     Sum        1005    1005    293                64267    64267    9959

     Using Slab Decomposition



     bravais-lattice index     =            6
     lattice parameter (alat)  =       6.3098  a.u.
     unit-cell volume          =     665.3341 (a.u.)^3
     number of atoms/cell      =            8
     number of atomic types    =            2
     number of electrons       =        30.00
     number of Kohn-Sham states=           19
     kinetic-energy cutoff     =      80.0000  Ry
     charge density cutoff     =     320.0000  Ry
     scf convergence threshold =      1.0E-08
     mixing beta               =       0.7000
     number of iterations used =            8  plain     mixing
     energy convergence thresh.=      1.0E-04
     force convergence thresh. =      1.0E-03
     press convergence thresh. =      1.0E+00
     Exchange-correlation= PBE
                           (   1   4   3   4   0   0   0)
     nstep                     =           50


     celldm(1)=   6.309841  celldm(2)=   0.000000  celldm(3)=   2.648406
     celldm(4)=   0.000000  celldm(5)=   0.000000  celldm(6)=   0.000000

     crystal axes: (cart. coord. in units of alat)
               a(1) = (   1.000000   0.000000   0.000000 )  
               a(2) = (   0.000000   1.000000   0.000000 )  
               a(3) = (   0.000000   0.000000   2.648406 )  

     reciprocal axes: (cart. coord. in units 2 pi/alat)
               b(1) = (  1.000000  0.000000  0.000000 )  
               b(2) = (  0.000000  1.000000  0.000000 )  
               b(3) = (  0.000000  0.000000  0.377586 )  


     PseudoPot. # 1 for Si read from file:
     ../pseudo/Si_ONCV_PBE_sr.upf
     MD5 check sum: e543d271109d17c80368dfa7c482276d
     Pseudo is Norm-conserving + core correction, Zval =  4.0
     Generated using ONCVPSP code by D. R. Hamann
     Using radial grid of 1510 points,  6 beta functions with: 
                l(1) =   0
                l(2) =   0
                l(3) =   1
                l(4) =   1
                l(5) =   2
                l(6) =   2

     PseudoPot. # 2 for Li read from file:
     ../pseudo/Li_ONCV_PBE_sr.upf
     MD5 check sum: 50ff420e78310ffa21704f3361e624a4
     Pseudo is Norm-conserving, Zval =  3.0
     Generated using ONCVPSP code by D. R. Hamann
     Using radial grid of 1944 points,  4 beta functions with: 
                l(1) =   0
                l(2) =   0
                l(3) =   1
                l(4) =   1

     atomic species   valence    mass     pseudopotential
        Si             4.00    28.08550     Si( 1.00)
        Li             3.00     6.94100     Li( 1.00)

     16 Sym. Ops., with inversion, found ( 8 have fractional translation)



   Cartesian axes

     site n.     atom                  positions (alat units)
         1           Si  tau(   1) = (   0.0000000   0.0000000   0.4878815  )
         2           Si  tau(   2) = (   0.5000000   0.5000000   0.4878815  )
         3           Si  tau(   3) = (   0.5000000   0.5000000   2.1605249  )
         4           Si  tau(   4) = (   0.0000000   0.0000000   2.1605249  )
         5           Si  tau(   5) = (   0.0000000   0.5000000   0.0280572  )
         6           Si  tau(   6) = (   0.5000000   0.0000000   2.6203491  )
         7           Li  tau(   7) = (   0.0000000   0.5000000   1.6401422  )
         8           Li  tau(   8) = (   0.5000000   0.0000000   1.0082642  )

     number of k points=    30  Marzari-Vanderbilt smearing, width (Ry)=  0.0200
                       cart. coord. in units 2pi/alat
        k(    1) = (   0.0000000   0.0000000   0.0000000), wk =   0.0082305
        k(    2) = (   0.0000000   0.0000000   0.1258619), wk =   0.0164609
        k(    3) = (   0.0000000   0.1111111   0.0000000), wk =   0.0329218
        k(    4) = (   0.0000000   0.1111111   0.1258619), wk =   0.0658436
        k(    5) = (   0.0000000   0.2222222   0.0000000), wk =   0.0329218
        k(    6) = (   0.0000000   0.2222222   0.1258619), wk =   0.0658436
        k(    7) = (   0.0000000   0.3333333   0.0000000), wk =   0.0329218
        k(    8) = (   0.0000000   0.3333333   0.1258619), wk =   0.0658436
        k(    9) = (   0.0000000   0.4444444   0.0000000), wk =   0.0329218
        k(   10) = (   0.0000000   0.4444444   0.1258619), wk =   0.0658436
        k(   11) = (   0.1111111   0.1111111   0.0000000), wk =   0.0329218
        k(   12) = (   0.1111111   0.1111111   0.1258619), wk =   0.0658436
        k(   13) = (   0.1111111   0.2222222   0.0000000), wk =   0.0658436
        k(   14) = (   0.1111111   0.2222222   0.1258619), wk =   0.1316872
        k(   15) = (   0.1111111   0.3333333   0.0000000), wk =   0.0658436
        k(   16) = (   0.1111111   0.3333333   0.1258619), wk =   0.1316872
        k(   17) = (   0.1111111   0.4444444   0.0000000), wk =   0.0658436
        k(   18) = (   0.1111111   0.4444444   0.1258619), wk =   0.1316872
        k(   19) = (   0.2222222   0.2222222   0.0000000), wk =   0.0329218
        k(   20) = (   0.2222222   0.2222222   0.1258619), wk =   0.0658436
        k(   21) = (   0.2222222   0.3333333   0.0000000), wk =   0.0658436
        k(   22) = (   0.2222222   0.3333333   0.1258619), wk =   0.1316872
        k(   23) = (   0.2222222   0.4444444   0.0000000), wk =   0.0658436
        k(   24) = (   0.2222222   0.4444444   0.1258619), wk =   0.1316872
        k(   25) = (   0.3333333   0.3333333   0.0000000), wk =   0.0329218
        k(   26) = (   0.3333333   0.3333333   0.1258619), wk =   0.0658436
        k(   27) = (   0.3333333   0.4444444   0.0000000), wk =   0.0658436
        k(   28) = (   0.3333333   0.4444444   0.1258619), wk =   0.1316872
        k(   29) = (   0.4444444   0.4444444   0.0000000), wk =   0.0329218
        k(   30) = (   0.4444444   0.4444444   0.1258619), wk =   0.0658436

     Dense  grid:    64267 G-vectors     FFT dimensions: (  36,  36,  96)

     Estimated max dynamical RAM per process >      28.33 MB

     Estimated total dynamical RAM >     226.66 MB

     Initial potential from superposition of free atoms

     starting charge      29.9872, renormalised to      30.0000
     Starting wfcs are   28 randomized atomic wfcs

     total cpu time spent up to now is        1.5 secs

     Self-consistent Calculation

     iteration #  1     ecut=    80.00 Ry     beta= 0.70
     Davidson diagonalization with overlap
     ethr =  1.00E-02,  avg # of iterations =  4.9

     total cpu time spent up to now is        2.9 secs

     total energy              =     -78.67552493 Ry
     estimated scf accuracy    <       0.49246232 Ry

     iteration #  2     ecut=    80.00 Ry     beta= 0.70
     Davidson diagonalization with overlap
     ethr =  1.64E-03,  avg # of iterations =  5.7

     total cpu time spent up to now is        4.2 secs

     total energy              =     -77.92856399 Ry
     estimated scf accuracy    <       9.94014904 Ry

     iteration #  3     ecut=    80.00 Ry     beta= 0.70
     Davidson diagonalization with overlap
     ethr =  1.64E-03,  avg # of iterations =  4.4

     total cpu time spent up to now is        5.5 secs

     total energy              =     -78.99560800 Ry
     estimated scf accuracy    <       0.03536340 Ry

     iteration #  4     ecut=    80.00 Ry     beta= 0.70
     Davidson diagonalization with overlap
     ethr =  1.18E-04,  avg # of iterations =  5.9

     total cpu time spent up to now is        6.7 secs

     total energy              =     -79.00167152 Ry
     estimated scf accuracy    <       0.00678551 Ry

     iteration #  5     ecut=    80.00 Ry     beta= 0.70
     Davidson diagonalization with overlap
     ethr =  2.26E-05,  avg # of iterations =  2.8

     total cpu time spent up to now is        7.6 secs

     total energy              =     -79.00257199 Ry
     estimated scf accuracy    <       0.00001731 Ry

     iteration #  6     ecut=    80.00 Ry     beta= 0.70
     Davidson diagonalization with overlap
     c_bands:  1 eigenvalues not converged
     ethr =  5.77E-08,  avg # of iterations =  7.2

     total cpu time spent up to now is        9.3 secs

     total energy              =     -79.00261988 Ry
     estimated scf accuracy    <       0.00002964 Ry

     iteration #  7     ecut=    80.00 Ry     beta= 0.70
     Davidson diagonalization with overlap
     ethr =  5.77E-08,  avg # of iterations =  2.0

     total cpu time spent up to now is       10.4 secs

     total energy              =     -79.00262318 Ry
     estimated scf accuracy    <       0.00000006 Ry

     iteration #  8     ecut=    80.00 Ry     beta= 0.70
     Davidson diagonalization with overlap
     ethr =  2.03E-10,  avg # of iterations =  5.4

     total cpu time spent up to now is       11.9 secs

     total energy              =     -79.00262322 Ry
     estimated scf accuracy    <       0.00000016 Ry

     iteration #  9     ecut=    80.00 Ry     beta= 0.70
     Davidson diagonalization with overlap
     ethr =  2.03E-10,  avg # of iterations =  2.4

     total cpu time spent up to now is       13.0 secs

     End of self-consistent calculation

          k = 0.0000 0.0000 0.0000 (  7983 PWs)   bands (ev):

   -35.8662 -35.8581  -7.8963  -4.4360   0.6055   3.4035   3.4035   4.5670
     5.4570   6.4839   6.5561   6.5561   8.1874   8.4772  10.5273  11.2582
    11.2582  13.0250  13.2150

          k = 0.0000 0.0000 0.1259 (  8020 PWs)   bands (ev):

   -35.8662 -35.8581  -7.8963  -4.4372   0.6327   3.4040   3.4040   4.3877
     5.4575   6.4674   6.5513   6.5513   8.4668   9.0281  10.5030  11.3150
    11.3150  11.3587  13.1550

          k = 0.0000 0.1111 0.0000 (  8004 PWs)   bands (ev):

   -35.8657 -35.8580  -7.7375  -4.2804   0.7556   1.8155   3.5477   4.7080
     5.0567   6.0066   6.6998   7.9015   8.2987   9.2892   9.9015  11.4003
    11.5804  12.6629  13.2339

          k = 0.0000 0.1111 0.1259 (  8002 PWs)   bands (ev):

   -35.8657 -35.8580  -7.7374  -4.2816   0.7831   1.8158   3.5481   4.5256
     5.0543   6.0003   6.6951   7.8871   9.0716   9.3076  10.0060  11.3992
    11.4566  11.6302  12.6613

          k = 0.0000 0.2222 0.0000 (  8016 PWs)   bands (ev):

   -35.8642 -35.8579  -7.2619  -3.8149  -0.3303   1.2036   2.9793   3.9803
     5.1168   6.3360   7.1297   8.1210   8.5945   9.9060  10.5179  10.7505
    11.6266  11.8233  12.8346

          k = 0.0000 0.2222 0.1259 (  8012 PWs)   bands (ev):

   -35.8642 -35.8579  -7.2619  -3.8163  -0.3301   1.2326   2.9770   3.9807
     4.9304   6.3233   7.1250   8.1581   9.3910   9.9152  10.5178  10.7534
    11.3584  11.6771  11.8779

          k = 0.0000 0.3333 0.0000 (  8028 PWs)   bands (ev):

   -35.8622 -35.8581  -6.4729  -3.0523  -2.2719   1.0663   1.9509   4.7018
     5.6841   5.8085   7.6723   7.8184   8.6688   8.7514   9.9574  10.9496
    11.6662  11.7614  12.5709

          k = 0.0000 0.3333 0.1259 (  8036 PWs)   bands (ev):

   -35.8622 -35.8581  -6.4729  -3.0538  -2.2717   1.0648   1.9808   4.7023
     5.6021   5.7137   7.7047   7.8144   8.6686   8.9804  10.2528  10.9487
    11.3537  11.7605  12.6194

          k = 0.0000 0.4444 0.0000 (  8030 PWs)   bands (ev):

   -35.8603 -35.8589  -5.3759  -3.9808  -1.9534  -0.5847   2.9754   4.2613
     5.7124   6.7272   7.0060   7.8587   8.4863   8.8984   9.4620  10.1892
    11.1334  11.8557  11.9188

          k = 0.0000 0.4444 0.1259 (  8030 PWs)   bands (ev):

   -35.8603 -35.8589  -5.3758  -3.9807  -1.9550  -0.5865   3.0072   4.2919
     5.7128   6.5354   7.0064   7.7050   8.5323   8.8940   9.6260  10.1854
    11.5291  11.7832  12.6731

          k = 0.1111 0.1111 0.0000 (  8021 PWs)   bands (ev):

   -35.8651 -35.8580  -7.5788  -4.1249   0.9051   1.8367   2.1030   4.8536
     4.9880   5.4666   7.5243   8.2699   8.3988   9.7641  10.4832  10.5913
    11.1430  12.0427  13.1345

          k = 0.1111 0.1111 0.1259 (  8020 PWs)   bands (ev):

   -35.8651 -35.8580  -7.5787  -4.1262   0.9332   1.8372   2.1031   4.6659
     4.9886   5.4588   7.5256   8.2386   9.2141   9.8547  10.4236  10.6408
    11.0117  11.9653  11.9883

          k = 0.1111 0.2222 0.0000 (  8040 PWs)   bands (ev):

   -35.8637 -35.8578  -7.1038  -3.6599  -0.1835   1.3516   2.4204   3.1168
     5.2642   5.7028   7.5697   8.4896   8.7918   9.3463  10.2834  11.2352
    11.2699  11.8865  12.2049

          k = 0.1111 0.2222 0.1259 (  8029 PWs)   bands (ev):

   -35.8637 -35.8578  -7.1037  -3.6613  -0.1833   1.3811   2.4206   3.1145
     5.0709   5.6963   7.5791   8.8207   8.8777   9.7091  10.3824  10.9880
    11.2633  11.7532  12.1241

          k = 0.1111 0.3333 0.0000 (  8040 PWs)   bands (ev):

   -35.8618 -35.8580  -6.3156  -2.8980  -2.1201   1.2142   2.0946   3.1373
     5.9411   6.0420   6.3938   7.1391   9.0906   9.2525  10.2155  10.3665
    11.1452  12.4522  13.0869

          k = 0.1111 0.3333 0.1259 (  8039 PWs)   bands (ev):

   -35.8618 -35.8580  -6.3155  -2.8996  -2.1199   1.2126   2.1250   3.1374
     5.7359   6.0824   6.3842   7.1657   9.2369   9.3227  10.2779  10.6264
    11.2457  12.1502  12.6872

          k = 0.1111 0.4444 0.0000 (  8037 PWs)   bands (ev):

   -35.8599 -35.8586  -5.2198  -3.8263  -1.8004  -0.4335   3.1016   3.9664
     4.6954   5.5561   6.8681   7.3965   8.1416   8.8029  10.0854  10.3863
    11.7310  11.9270  12.7801

          k = 0.1111 0.4444 0.1259 (  8036 PWs)   bands (ev):

   -35.8599 -35.8586  -5.2197  -3.8262  -1.8021  -0.4353   3.1329   3.9711
     4.7294   5.5650   6.6659   7.3407   8.0265   8.8035  10.1773  10.9469
    11.9175  12.1087  12.8622

          k = 0.2222 0.2222 0.0000 (  8053 PWs)   bands (ev):

   -35.8624 -35.8576  -6.6303  -3.1963   0.1067   0.4479   1.7917   3.2966
     3.8985   5.6719   6.9072   7.8370   8.9318   9.2771  10.1970  11.1441
    11.2391  11.7898  13.1307

          k = 0.2222 0.2222 0.1259 (  8049 PWs)   bands (ev):

   -35.8624 -35.8576  -6.6302  -3.1979   0.1073   0.4477   1.8226   3.2974
     3.8887   5.4705   6.9402   7.9291   8.8288  10.0838  10.3387  10.8977
    11.1850  11.7914  12.2619

          k = 0.2222 0.3333 0.0000 (  8041 PWs)   bands (ev):

   -35.8606 -35.8575  -5.8447  -2.4366  -1.6681   1.0340   1.6495   2.5122
     4.3604   5.1211   6.3304   6.4569   8.3680   9.2720   9.5285  10.3612
    12.0048  13.2193  13.4742

          k = 0.2222 0.3333 0.1259 (  8049 PWs)   bands (ev):

   -35.8606 -35.8575  -5.8446  -2.4383  -1.6678   1.0342   1.6479   2.5431
     4.3523   5.1336   6.1170   6.5165   8.3658   9.2501   9.6710  10.8615
    12.0754  12.6365  13.2765

          k = 0.2222 0.4444 0.0000 (  8041 PWs)   bands (ev):

   -35.8591 -35.8580  -4.7526  -3.3643  -1.3433   0.0176   2.0512   3.1222
     3.9094   4.9529   5.3943   6.6112   7.4397   8.5061  10.1199  10.6000
    12.1270  12.2221  13.5424

          k = 0.2222 0.4444 0.1259 (  8045 PWs)   bands (ev):

   -35.8591 -35.8580  -4.7525  -3.3642  -1.3452   0.0155   2.0512   3.1284
     3.9464   4.9994   5.3821   6.5333   7.3050   8.3187  10.2158  11.1577
    12.2598  12.6684  13.4114

          k = 0.3333 0.3333 0.0000 (  8035 PWs)   bands (ev):

   -35.8592 -35.8572  -5.0635  -1.6779  -1.0855  -0.7120   2.1116   2.7371
     2.8674   3.6353   6.3334   6.6942   7.1819   7.9688  10.0459  10.0660
    11.8679  12.4558  13.6237

          k = 0.3333 0.3333 0.1259 (  8064 PWs)   bands (ev):

   -35.8592 -35.8572  -5.0634  -1.6799  -1.0849  -0.7122   2.1134   2.7264
     2.8733   3.6736   6.2504   6.7979   7.0480   7.9339   9.7203  10.7066
    11.9439  12.3625  13.9095

          k = 0.3333 0.4444 0.0000 (  8058 PWs)   bands (ev):

   -35.8580 -35.8573  -3.9779  -2.6004  -0.5993   0.1714   0.7440   1.4935
     3.5230   4.3740   4.8279   5.5966   7.9929   8.4958   9.0661   9.5953
    11.7947  12.7443  12.8528

          k = 0.3333 0.4444 0.1259 (  8070 PWs)   bands (ev):

   -35.8580 -35.8573  -3.9778  -2.6002  -0.6015   0.1716   0.7417   1.4934
     3.5146   4.4242   4.8140   5.6624   7.7819   8.4936   8.8544   9.6914
    12.1519  12.7736  13.5356

          k = 0.4444 0.4444 0.0000 (  8062 PWs)   bands (ev):

   -35.8572 -35.8570  -2.9039  -1.6878  -1.3584  -0.1591   0.4811   1.5860
     2.1362   3.2280   5.3034   6.0996   7.4210   8.1839   8.8551   9.4749
    11.4143  12.0982  12.8188

          k = 0.4444 0.4444 0.1259 (  8076 PWs)   bands (ev):

   -35.8572 -35.8570  -2.9037  -1.6871  -1.3586  -0.1590   0.4787   1.5873
     2.1252   3.2194   5.3713   6.2066   7.4134   8.2180   8.5802   9.1216
    11.4584  12.0081  13.7061

     the Fermi energy is    10.3404 ev

!    total energy              =     -79.00262324 Ry
     estimated scf accuracy    <          4.8E-09 Ry
     smearing contrib. (-TS)   =      -0.00158189 Ry
     internal energy E=F+TS    =     -79.00104135 Ry

     The total energy is F=E-TS. E is the sum of the following terms:
     one-electron contribution =     -26.70858665 Ry
     hartree contribution      =      26.78298138 Ry
     xc contribution           =     -27.17933491 Ry
     ewald contribution        =     -51.89610117 Ry

     convergence has been achieved in   9 iterations

     Forces acting on atoms (cartesian axes, Ry/au):

     atom    1 type  1   force =     0.00000000    0.00000000    0.14085919
     atom    2 type  1   force =     0.00000000    0.00000000    0.14085919
     atom    3 type  1   force =     0.00000000    0.00000000   -0.14085919
     atom    4 type  1   force =     0.00000000    0.00000000   -0.14085919
     atom    5 type  1   force =     0.00000000    0.00000000   -0.05337061
     atom    6 type  1   force =     0.00000000    0.00000000    0.05337061
     atom    7 type  2   force =     0.00000000    0.00000000   -0.05010423
     atom    8 type  2   force =     0.00000000    0.00000000    0.05010423
     The non-local contrib.  to forces
     atom    1 type  1   force =     0.00000000    0.00000000    0.01033174
     atom    2 type  1   force =     0.00000000    0.00000000    0.01033174
     atom    3 type  1   force =     0.00000000    0.00000000   -0.01033174
     atom    4 type  1   force =     0.00000000    0.00000000   -0.01033174
     atom    5 type  1   force =     0.00000000    0.00000000   -0.05622129
     atom    6 type  1   force =     0.00000000    0.00000000    0.05622129
     atom    7 type  2   force =     0.00000000    0.00000000   -0.07951966
     atom    8 type  2   force =     0.00000000    0.00000000    0.07951966
     The ionic contribution  to forces
     atom    1 type  1   force =     0.00000000   -0.00000000    5.92936140
     atom    2 type  1   force =     0.00000000    0.00000000    5.92936140
     atom    3 type  1   force =     0.00000000    0.00000000   -5.92936140
     atom    4 type  1   force =     0.00000000    0.00000000   -5.92936140
     atom    5 type  1   force =    -0.00000000   -0.00000000    0.19174009
     atom    6 type  1   force =     0.00000000   -0.00000000   -0.19174009
     atom    7 type  2   force =    -0.00000000    0.00000000   -3.85160078
     atom    8 type  2   force =    -0.00000000   -0.00000000    3.85160078
     The local contribution  to forces
     atom    1 type  1   force =     0.00000000    0.00000000   -5.79219486
     atom    2 type  1   force =     0.00000000   -0.00000000   -5.79219486
     atom    3 type  1   force =    -0.00000000    0.00000000    5.79219486
     atom    4 type  1   force =     0.00000000    0.00000000    5.79219486
     atom    5 type  1   force =    -0.00000000   -0.00000000   -0.19410394
     atom    6 type  1   force =    -0.00000000    0.00000000    0.19410394
     atom    7 type  2   force =     0.00000000    0.00000000    3.88101428
     atom    8 type  2   force =     0.00000000    0.00000000   -3.88101428
     The core correction contribution to forces
     atom    1 type  1   force =     0.00000000    0.00000000   -0.00655693
     atom    2 type  1   force =    -0.00000000   -0.00000000   -0.00655693
     atom    3 type  1   force =    -0.00000000   -0.00000000    0.00655693
     atom    4 type  1   force =     0.00000000   -0.00000000    0.00655693
     atom    5 type  1   force =     0.00000000   -0.00000000    0.00522205
     atom    6 type  1   force =    -0.00000000    0.00000000   -0.00522205
     atom    7 type  2   force =     0.00000000    0.00000000    0.00000000
     atom    8 type  2   force =     0.00000000    0.00000000    0.00000000
     The Hubbard contrib.    to forces
     atom    1 type  1   force =     0.00000000    0.00000000    0.00000000
     atom    2 type  1   force =     0.00000000    0.00000000    0.00000000
     atom    3 type  1   force =     0.00000000    0.00000000    0.00000000
     atom    4 type  1   force =     0.00000000    0.00000000    0.00000000
     atom    5 type  1   force =     0.00000000    0.00000000    0.00000000
     atom    6 type  1   force =     0.00000000    0.00000000    0.00000000
     atom    7 type  2   force =     0.00000000    0.00000000    0.00000000
     atom    8 type  2   force =     0.00000000    0.00000000    0.00000000
     The SCF correction term to forces
     atom    1 type  1   force =    -0.00000000   -0.00000000   -0.00008217
     atom    2 type  1   force =     0.00000000    0.00000000   -0.00008217
     atom    3 type  1   force =    -0.00000000   -0.00000000    0.00008217
     atom    4 type  1   force =    -0.00000000    0.00000000    0.00008217
     atom    5 type  1   force =     0.00000000   -0.00000000   -0.00000752
     atom    6 type  1   force =     0.00000000   -0.00000000    0.00000752
     atom    7 type  2   force =    -0.00000000    0.00000000    0.00000193
     atom    8 type  2   force =    -0.00000000    0.00000000   -0.00000193

     Total force =     0.300138     Total SCF correction =     0.000165


     Computing stress (Cartesian axis) and pressure

          total   stress  (Ry/bohr**3)                   (kbar)     P=      507.40
   0.00345940   0.00000000   0.00000000          508.90        0.00        0.00
   0.00000000   0.00345940   0.00000000            0.00      508.90        0.00
   0.00000000   0.00000000   0.00342897            0.00        0.00      504.42


     BFGS Geometry Optimization
     Energy error            =      0.0E+00 Ry
     Gradient error          =      1.4E-01 Ry/Bohr
     Cell gradient error     =      8.9E+00 kbar

     number of scf cycles    =   1
     number of bfgs steps    =   0

     enthalpy           new  =     -76.7411986406 Ry

     new trust radius        =       0.1408591886 bohr
ibrav =      6
 celldm(1) =      6.31937932
 celldm(3) =      2.64639478
Input lattice vectors:
     1.00151173     0.00000000     0.00000000
     0.00000000     1.00151173     0.00000000
     0.00000000     0.00000000     2.65039541
New lattice vectors in INITIAL alat:
     1.00151173     0.00000000     0.00000000
     0.00000000     1.00151173     0.00000000
     0.00000000     0.00000000     2.65039541
New lattice vectors in NEW alat (for information only):
     1.00000000     0.00000000     0.00000000
     0.00000000     1.00000000     0.00000000
     0.00000000     0.00000000     2.64639478
Discrepancy in bohr =     0.000000    0.000000    0.000000
     new conv_thr            =       0.0000000100 Ry

     new unit-cell volume =    667.84842 a.u.^3 (    98.96493 Ang^3 )
     density =      3.06042 g/cm^3

CELL_PARAMETERS (alat=  6.30984055)
   1.001511730   0.000000000   0.000000000
   0.000000000   1.001511730   0.000000000
   0.000000000   0.000000000   2.650395411

ATOMIC_POSITIONS (crystal)
Si            0.0000000000        0.0000000000        0.1926461189
Si            0.5000000000        0.5000000000        0.1926461189
Si            0.5000000000        0.5000000000        0.8073538811
Si            0.0000000000        0.0000000000        0.8073538811
Si            0.0000000000        0.5000000000        0.0074002630
Si            0.5000000000        0.0000000000        0.9925997370
Li            0.0000000000        0.5000000000        0.6162957255
Li            0.5000000000        0.0000000000        0.3837042745



     Writing config-only to output data dir ./output/SiLi.save/
     NEW-OLD atomic charge density approx. for the potential
     extrapolated charge   30.11290, renormalised to   30.00000

     total cpu time spent up to now is       17.5 secs

     Self-consistent Calculation

     iteration #  1     ecut=    80.00 Ry     beta= 0.70
     Davidson diagonalization with overlap
     c_bands:  1 eigenvalues not converged
     c_bands:  1 eigenvalues not converged
     c_bands:  2 eigenvalues not converged
     c_bands:  1 eigenvalues not converged
     c_bands:  1 eigenvalues not converged
     ethr =  1.00E-06,  avg # of iterations = 12.8

     total cpu time spent up to now is       20.8 secs

     total energy              =     -79.01170000 Ry
     estimated scf accuracy    <       0.09176424 Ry

     iteration #  2     ecut=    80.00 Ry     beta= 0.70
     Davidson diagonalization with overlap
     ethr =  3.06E-04,  avg # of iterations =  6.0

     total cpu time spent up to now is       22.4 secs

     total energy              =     -78.89314915 Ry
     estimated scf accuracy    <       2.21999793 Ry

     iteration #  3     ecut=    80.00 Ry     beta= 0.70
     Davidson diagonalization with overlap
     ethr =  3.06E-04,  avg # of iterations =  4.9

     total cpu time spent up to now is       23.9 secs

     total energy              =     -79.08641665 Ry
     estimated scf accuracy    <       0.01881034 Ry

     iteration #  4     ecut=    80.00 Ry     beta= 0.70
     Davidson diagonalization with overlap
     ethr =  6.27E-05,  avg # of iterations =  3.3

     total cpu time spent up to now is       25.0 secs

     total energy              =     -79.08656641 Ry
     estimated scf accuracy    <       0.00505268 Ry

     iteration #  5     ecut=    80.00 Ry     beta= 0.70
     Davidson diagonalization with overlap
     ethr =  1.68E-05,  avg # of iterations =  3.5

     total cpu time spent up to now is       26.1 secs

     total energy              =     -79.08727038 Ry
     estimated scf accuracy    <       0.00000717 Ry

     iteration #  6     ecut=    80.00 Ry     beta= 0.70
     Davidson diagonalization with overlap
     ethr =  2.39E-08,  avg # of iterations =  6.4

     total cpu time spent up to now is       27.8 secs

     total energy              =     -79.08730496 Ry
     estimated scf accuracy    <       0.00014425 Ry

     iteration #  7     ecut=    80.00 Ry     beta= 0.70
     Davidson diagonalization with overlap
     ethr =  2.39E-08,  avg # of iterations =  3.3

     total cpu time spent up to now is       29.1 secs

     total energy              =     -79.08731667 Ry
     estimated scf accuracy    <       0.00000196 Ry

     iteration #  8     ecut=    80.00 Ry     beta= 0.70
     Davidson diagonalization with overlap
     ethr =  6.54E-09,  avg # of iterations =  2.4

     total cpu time spent up to now is       30.2 secs

     total energy              =     -79.08731693 Ry
     estimated scf accuracy    <       0.00000017 Ry

     iteration #  9     ecut=    80.00 Ry     beta= 0.70
     Davidson diagonalization with overlap
     ethr =  5.65E-10,  avg # of iterations =  3.8

     total cpu time spent up to now is       31.4 secs

     total energy              =     -79.08731697 Ry
     estimated scf accuracy    <       0.00000003 Ry

     iteration # 10     ecut=    80.00 Ry     beta= 0.70
     Davidson diagonalization with overlap
     ethr =  1.06E-10,  avg # of iterations =  2.0

     total cpu time spent up to now is       32.3 secs

     End of self-consistent calculation

          k = 0.0000 0.0000 0.0000 (  7983 PWs)   bands (ev):

   -35.8615 -35.8524  -7.4769  -4.3081   0.4353   3.8449   3.8449   4.3677
     5.9397   6.7193   6.7193   6.7762   8.0597   8.7176  10.4055  10.9761
    10.9761  12.8785  13.0488

          k = 0.0000 0.0000 0.1258 (  8020 PWs)   bands (ev):

   -35.8615 -35.8524  -7.4768  -4.3098   0.4657   3.8456   3.8456   4.1808
     5.9405   6.7123   6.7123   6.7578   8.7180   8.9335  10.3765  11.0377
    11.0377  11.1444  13.0300

          k = 0.0000 0.1109 0.0000 (  8004 PWs)   bands (ev):

   -35.8609 -35.8523  -7.3182  -4.1523   0.5853   2.2442   3.9892   4.5082
     5.2067   6.4229   6.8635   8.1802   8.2750   9.4450   9.6534  11.1170
    11.5540  13.0754  13.3428

          k = 0.0000 0.1109 0.1258 (  8002 PWs)   bands (ev):

   -35.8609 -35.8523  -7.3181  -4.1541   0.6163   2.2447   3.9899   4.3180
     5.2038   6.4163   6.8565   8.2545   9.0219   9.4291   9.7697  11.1781
    11.2415  11.5766  12.9772

          k = 0.0000 0.2219 0.0000 (  8016 PWs)   bands (ev):

   -35.8594 -35.8523  -6.8430  -3.6862   0.0897   1.0340   3.1153   4.4223
     4.9185   6.6709   7.2958   7.9434   8.4876   9.9707  10.9467  11.1574
    11.4432  11.5364  13.0737

          k = 0.0000 0.2219 0.1258 (  8012 PWs)   bands (ev):

   -35.8594 -35.8523  -6.8429  -3.6881   0.0901   1.0664   3.1124   4.4231
     4.7230   6.6593   7.2890   7.9929   9.3380   9.9364  10.9467  11.1376
    11.2256  11.5780  11.5956

          k = 0.0000 0.3328 0.0000 (  8028 PWs)   bands (ev):

   -35.8572 -35.8527  -6.0544  -2.9149  -1.8641   1.1990   1.7778   5.1448
     5.5925   5.6200   7.9154   8.0109   8.6545   9.0712   9.7997  10.9925
    11.8567  11.9809  12.3362

          k = 0.0000 0.3328 0.1258 (  8036 PWs)   bands (ev):

   -35.8572 -35.8527  -6.0543  -2.9170  -1.8638   1.1965   1.8121   5.1456
     5.3870   5.6528   7.9435   8.0045   8.8409   9.0715  10.1806  10.9931
    11.5473  11.8625  12.3805

          k = 0.0000 0.4438 0.0000 (  8030 PWs)   bands (ev):

   -35.8551 -35.8536  -4.9573  -3.5604  -1.8294  -0.4574   2.8069   4.1054
     6.1573   6.5373   7.4578   7.6898   8.7909   9.0400   9.6272  10.3334
    11.1339  11.7528  11.9157

          k = 0.0000 0.4438 0.1258 (  8030 PWs)   bands (ev):

   -35.8551 -35.8536  -4.9572  -3.5602  -1.8317  -0.4600   2.8433   4.1414
     6.1580   6.3359   7.4584   7.5168   8.8477   9.0337   9.9024  10.3279
    11.4741  11.8058  12.5581

          k = 0.1109 0.1109 0.0000 (  8021 PWs)   bands (ev):

   -35.8604 -35.8523  -7.1596  -3.9967   0.7350   2.2864   2.5067   4.6506
     5.1698   5.5719   7.9799   8.2860   8.6030   9.5542  10.2009  10.7979
    11.5514  12.0148  12.9068

          k = 0.1109 0.1109 0.1258 (  8020 PWs)   bands (ev):

   -35.8604 -35.8523  -7.1595  -3.9986   0.7665   2.2873   2.5069   4.4561
     5.1717   5.5610   7.9830   8.5464   9.1565   9.6524  10.2375  10.7530
    11.2596  11.9304  11.9354

          k = 0.1109 0.2219 0.0000 (  8040 PWs)   bands (ev):

   -35.8588 -35.8522  -6.6850  -3.5310   0.2379   1.1824   2.8444   3.2567
     5.0614   5.8361   7.5480   8.4954   9.0000   9.6361  10.1772  11.1865
    11.4693  11.9019  12.3313

          k = 0.1109 0.2219 0.1258 (  8029 PWs)   bands (ev):

   -35.8588 -35.8522  -6.6849  -3.5330   0.2383   1.2155   2.8448   3.2538
     4.8606   5.8278   7.5760   9.0285   9.1300   9.7542  10.3076  10.8843
    11.4828  11.7207  12.0682

          k = 0.1109 0.3328 0.0000 (  8040 PWs)   bands (ev):

   -35.8568 -35.8525  -5.8971  -2.7604  -1.7118   1.3482   1.9234   3.5628
     5.7312   5.8844   6.5480   7.5058   8.9751   9.6002  10.0360  10.4676
    10.9263  12.5523  13.4063

          k = 0.1109 0.3328 0.1258 (  8039 PWs)   bands (ev):

   -35.8568 -35.8525  -5.8970  -2.7626  -1.7115   1.3455   1.9583   3.5630
     5.5200   5.9321   6.5344   7.5467   9.1016   9.6376  10.2729  10.6324
    11.0261  12.1892  12.7159

          k = 0.1109 0.4438 0.0000 (  8037 PWs)   bands (ev):

   -35.8548 -35.8533  -4.8012  -3.4058  -1.6761  -0.3057   2.9434   4.1188
     4.7868   5.9586   6.6773   7.4759   8.0025   8.9267  10.3191  10.3761
    11.5497  12.1942  12.6133

          k = 0.1109 0.4438 0.1258 (  8036 PWs)   bands (ev):

   -35.8548 -35.8533  -4.8011  -3.4056  -1.6785  -0.3084   2.9802   4.1407
     4.8092   5.9678   6.4670   7.3691   7.9217   8.9243  10.5216  11.0088
    11.8397  12.1023  12.7711

          k = 0.2219 0.2219 0.0000 (  8053 PWs)   bands (ev):

   -35.8574 -35.8521  -6.2118  -3.0666   0.5562   0.8359   1.6256   3.4811
     3.9732   5.4697   7.2857   7.6621   8.7122   9.1702  10.3250  11.0725
    11.5808  12.0687  12.8623

          k = 0.2219 0.2219 0.1258 (  8049 PWs)   bands (ev):

   -35.8574 -35.8521  -6.2116  -3.0688   0.5571   0.8357   1.6604   3.4831
     3.9599   5.2605   7.3335   7.7681   8.6264  10.0397  10.3929  10.7179
    11.6155  12.0548  12.1716

          k = 0.2219 0.3328 0.0000 (  8041 PWs)   bands (ev):

   -35.8556 -35.8521  -5.4264  -2.2982  -1.2573   1.4502   1.7905   2.3533
     4.4873   5.4920   6.1310   6.2679   8.4708   9.0525   9.3767  10.1797
    12.3470  13.0030  13.1978

          k = 0.2219 0.3328 0.1258 (  8049 PWs)   bands (ev):

   -35.8556 -35.8521  -5.4262  -2.3006  -1.2570   1.4505   1.7875   2.3898
     4.4770   5.5041   5.9101   6.3359   8.4626   9.0500   9.4757  10.7228
    12.4134  12.5487  12.9841

          k = 0.2219 0.4438 0.0000 (  8041 PWs)   bands (ev):

   -35.8539 -35.8527  -4.3339  -2.9432  -1.2174   0.1480   2.4704   3.2460
     4.0144   4.7573   5.5088   6.6709   7.3003   8.3162   9.8799  10.3972
    11.9554  12.1894  13.8033

          k = 0.2219 0.4438 0.1258 (  8045 PWs)   bands (ev):

   -35.8539 -35.8527  -4.3337  -2.9429  -1.2202   0.1449   2.4704   3.2700
     4.0392   4.8097   5.4922   6.5380   7.2099   8.1178   9.9890  10.9414
    12.1490  12.7108  13.5121

          k = 0.3328 0.3328 0.0000 (  8035 PWs)   bands (ev):

   -35.8541 -35.8518  -4.6451  -1.5329  -0.6372  -0.3426   2.3205   2.8017
     2.9563   3.7439   6.3870   6.5048   7.0421   7.7317   9.8626   9.8898
    11.6481  12.1929  13.5101

          k = 0.3328 0.3328 0.1258 (  8064 PWs)   bands (ev):

   -35.8541 -35.8518  -4.6448  -1.5358  -0.6362  -0.3428   2.3225   2.7874
     2.9803   3.7701   6.2462   6.6211   6.9521   7.7041   9.5244  10.5083
    11.7173  12.1778  13.6645

          k = 0.3328 0.4438 0.0000 (  8058 PWs)   bands (ev):

   -35.8528 -35.8520  -3.5586  -2.1773  -0.4598   0.5735   0.8934   1.8977
     3.6296   4.1775   4.9392   5.4002   7.8017   8.2549   8.8798   9.3557
    11.6294  12.4927  12.6939

          k = 0.3328 0.4438 0.1258 (  8070 PWs)   bands (ev):

   -35.8528 -35.8520  -3.5583  -2.1769  -0.4630   0.5738   0.8898   1.8976
     3.6183   4.2344   4.9197   5.4741   7.5792   8.2651   8.6539   9.4623
    11.9187  12.5710  13.3314

          k = 0.4438 0.4438 0.0000 (  8062 PWs)   bands (ev):

   -35.8520 -35.8517  -2.4822  -1.2401  -0.9614   0.2652   0.6047   1.7558
     2.1976   3.3359   5.1053   5.9094   7.1847   7.9533   8.6605   9.2964
    11.1593  11.8488  12.6281

          k = 0.4438 0.4438 0.1258 (  8076 PWs)   bands (ev):

   -35.8520 -35.8517  -2.4818  -1.2391  -0.9618   0.2654   0.6011   1.7574
     2.1829   3.3247   5.1807   6.0291   7.1768   7.9919   8.3757   8.9236
    11.1924  11.7451  13.5570

     the Fermi energy is    10.3316 ev

!    total energy              =     -79.08731698 Ry
     estimated scf accuracy    <          4.7E-10 Ry
     smearing contrib. (-TS)   =      -0.00093819 Ry
     internal energy E=F+TS    =     -79.08637879 Ry

     The total energy is F=E-TS. E is the sum of the following terms:
     one-electron contribution =     -20.20582691 Ry
     hartree contribution      =      23.53975868 Ry
     xc contribution           =     -27.02317521 Ry
     ewald contribution        =     -55.39713534 Ry

     convergence has been achieved in  10 iterations

     Forces acting on atoms (cartesian axes, Ry/au):

     atom    1 type  1   force =     0.00000000    0.00000000    0.09759420
     atom    2 type  1   force =     0.00000000    0.00000000    0.09759420
     atom    3 type  1   force =     0.00000000    0.00000000   -0.09759420
     atom    4 type  1   force =     0.00000000    0.00000000   -0.09759420
     atom    5 type  1   force =     0.00000000    0.00000000   -0.02199417
     atom    6 type  1   force =     0.00000000    0.00000000    0.02199417
     atom    7 type  2   force =     0.00000000    0.00000000   -0.05896777
     atom    8 type  2   force =     0.00000000    0.00000000    0.05896777
     The non-local contrib.  to forces
     atom    1 type  1   force =     0.00000000    0.00000000   -0.03214577
     atom    2 type  1   force =     0.00000000    0.00000000   -0.03214577
     atom    3 type  1   force =     0.00000000    0.00000000    0.03214577
     atom    4 type  1   force =     0.00000000    0.00000000    0.03214577
     atom    5 type  1   force =     0.00000000    0.00000000   -0.01743564
     atom    6 type  1   force =     0.00000000    0.00000000    0.01743564
     atom    7 type  2   force =     0.00000000    0.00000000   -0.07653162
     atom    8 type  2   force =     0.00000000    0.00000000    0.07653162
     The ionic contribution  to forces
     atom    1 type  1   force =     0.00000000    0.00000000    5.36708337
     atom    2 type  1   force =    -0.00000000   -0.00000000    5.36708337
     atom    3 type  1   force =    -0.00000000   -0.00000000   -5.36708337
     atom    4 type  1   force =     0.00000000    0.00000000   -5.36708337
     atom    5 type  1   force =     0.00000000   -0.00000000    0.12566171
     atom    6 type  1   force =    -0.00000000    0.00000000   -0.12566171
     atom    7 type  2   force =     0.00000000   -0.00000000   -3.65750562
     atom    8 type  2   force =    -0.00000000    0.00000000    3.65750562
     The local contribution  to forces
     atom    1 type  1   force =     0.00000000    0.00000000   -5.23431058
     atom    2 type  1   force =    -0.00000000    0.00000000   -5.23431058
     atom    3 type  1   force =     0.00000000   -0.00000000    5.23431058
     atom    4 type  1   force =    -0.00000000    0.00000000    5.23431058
     atom    5 type  1   force =    -0.00000000    0.00000000   -0.13259957
     atom    6 type  1   force =     0.00000000   -0.00000000    0.13259957
     atom    7 type  2   force =     0.00000000   -0.00000000    3.67505830
     atom    8 type  2   force =    -0.00000000    0.00000000   -3.67505830
     The core correction contribution to forces
     atom    1 type  1   force =     0.00000000    0.00000000   -0.00304895
     atom    2 type  1   force =     0.00000000    0.00000000   -0.00304895
     atom    3 type  1   force =     0.00000000    0.00000000    0.00304895
     atom    4 type  1   force =     0.00000000    0.00000000    0.00304895
     atom    5 type  1   force =    -0.00000000    0.00000000    0.00237858
     atom    6 type  1   force =     0.00000000   -0.00000000   -0.00237858
     atom    7 type  2   force =     0.00000000    0.00000000    0.00000000
     atom    8 type  2   force =     0.00000000    0.00000000    0.00000000
     The Hubbard contrib.    to forces
     atom    1 type  1   force =     0.00000000    0.00000000    0.00000000
     atom    2 type  1   force =     0.00000000    0.00000000    0.00000000
     atom    3 type  1   force =     0.00000000    0.00000000    0.00000000
     atom    4 type  1   force =     0.00000000    0.00000000    0.00000000
     atom    5 type  1   force =     0.00000000    0.00000000    0.00000000
     atom    6 type  1   force =     0.00000000    0.00000000    0.00000000
     atom    7 type  2   force =     0.00000000    0.00000000    0.00000000
     atom    8 type  2   force =     0.00000000    0.00000000    0.00000000
     The SCF correction term to forces
     atom    1 type  1   force =    -0.00000000   -0.00000000    0.00001612
     atom    2 type  1   force =     0.00000000   -0.00000000    0.00001612
     atom    3 type  1   force =     0.00000000    0.00000000   -0.00001612
     atom    4 type  1   force =    -0.00000000   -0.00000000   -0.00001612
     atom    5 type  1   force =     0.00000000    0.00000000    0.00000075
     atom    6 type  1   force =    -0.00000000   -0.00000000   -0.00000075
     atom    7 type  2   force =     0.00000000    0.00000000    0.00001117
     atom    8 type  2   force =     0.00000000   -0.00000000   -0.00001117

     Total force =     0.214524     Total SCF correction =     0.000036


     Computing stress (Cartesian axis) and pressure

          total   stress  (Ry/bohr**3)                   (kbar)     P=      445.30
   0.00309659   0.00000000   0.00000000          455.52        0.00        0.00
   0.00000000   0.00309659   0.00000000            0.00      455.52        0.00
   0.00000000   0.00000000   0.00288807            0.00        0.00      424.85

     Energy error            =      7.6E-02 Ry
     Gradient error          =      9.8E-02 Ry/Bohr
     Cell gradient error     =      7.5E+01 kbar

     number of scf cycles    =   2
     number of bfgs steps    =   1

     enthalpy           old  =     -76.7411986406 Ry
     enthalpy           new  =     -76.8173463181 Ry

     CASE: enthalpy          _new < enthalpy          _old

     new trust radius        =       0.1550614777 bohr
ibrav =      6
 celldm(1) =      6.27364449
 celldm(3) =      2.63119511
Input lattice vectors:
     0.99426355     0.00000000     0.00000000
     0.00000000     0.99426355     0.00000000
     0.00000000     0.00000000     2.61610140
New lattice vectors in INITIAL alat:
     0.99426355     0.00000000     0.00000000
     0.00000000     0.99426355     0.00000000
     0.00000000     0.00000000     2.61610140
New lattice vectors in NEW alat (for information only):
     1.00000000     0.00000000     0.00000000
     0.00000000     1.00000000     0.00000000
     0.00000000     0.00000000     2.63119511
Discrepancy in bohr =     0.000000    0.000000    0.000000
     new conv_thr            =       0.0000000098 Ry

     new unit-cell volume =    649.69985 a.u.^3 (    96.27559 Ang^3 )
     density =      3.14591 g/cm^3

CELL_PARAMETERS (alat=  6.30984055)
   0.994263555   0.000000000   0.000000000
   0.000000000   0.994263555   0.000000000
   0.000000000   0.000000000   2.616101402

ATOMIC_POSITIONS (crystal)
Si            0.0000000000        0.0000000000        0.2019181496
Si            0.5000000000        0.5000000000        0.2019181496
Si            0.5000000000        0.5000000000        0.7980818504
Si            0.0000000000        0.0000000000        0.7980818504
Si            0.0000000000        0.5000000000        0.0048143509
Si            0.5000000000        0.0000000000        0.9951856491
Li            0.0000000000        0.5000000000        0.6114968231
Li            0.5000000000        0.0000000000        0.3885031769



     Writing config-only to output data dir ./output/SiLi.save/
     NEW-OLD atomic charge density approx. for the potential
     extrapolated charge   29.16234, renormalised to   30.00000

     total cpu time spent up to now is       36.9 secs

     Self-consistent Calculation

     iteration #  1     ecut=    80.00 Ry     beta= 0.70
     Davidson diagonalization with overlap
     c_bands:  1 eigenvalues not converged
     ethr =  1.00E-06,  avg # of iterations = 12.5

     total cpu time spent up to now is       39.8 secs

     total energy              =     -78.67997172 Ry
     estimated scf accuracy    <       0.40915602 Ry

     iteration #  2     ecut=    80.00 Ry     beta= 0.70
     Davidson diagonalization with overlap
     ethr =  1.36E-03,  avg # of iterations =  5.8

     total cpu time spent up to now is       41.5 secs

     total energy              =     -78.01648160 Ry
     estimated scf accuracy    <      16.41342088 Ry

     iteration #  3     ecut=    80.00 Ry     beta= 0.70
     Davidson diagonalization with overlap
     ethr =  1.36E-03,  avg # of iterations =  4.9

     total cpu time spent up to now is       43.0 secs

     total energy              =     -79.07913483 Ry
     estimated scf accuracy    <       0.43522940 Ry

     iteration #  4     ecut=    80.00 Ry     beta= 0.70
     Davidson diagonalization with overlap
     ethr =  1.36E-03,  avg # of iterations =  1.5

     total cpu time spent up to now is       43.9 secs

     total energy              =     -79.08921806 Ry
     estimated scf accuracy    <       0.09679693 Ry

     iteration #  5     ecut=    80.00 Ry     beta= 0.70
     Davidson diagonalization with overlap
     ethr =  3.23E-04,  avg # of iterations =  2.8

     total cpu time spent up to now is       44.9 secs

     total energy              =     -79.08881494 Ry
     estimated scf accuracy    <       0.03234418 Ry

     iteration #  6     ecut=    80.00 Ry     beta= 0.70
     Davidson diagonalization with overlap
     ethr =  1.08E-04,  avg # of iterations =  4.9

     total cpu time spent up to now is       46.1 secs

     total energy              =     -79.09342845 Ry
     estimated scf accuracy    <       0.00004977 Ry

     iteration #  7     ecut=    80.00 Ry     beta= 0.70
     Davidson diagonalization with overlap
     c_bands:  1 eigenvalues not converged
     c_bands:  1 eigenvalues not converged
     ethr =  1.66E-07,  avg # of iterations =  7.7

     total cpu time spent up to now is       48.0 secs

     total energy              =     -79.09372535 Ry
     estimated scf accuracy    <       0.00008959 Ry

     iteration #  8     ecut=    80.00 Ry     beta= 0.70
     Davidson diagonalization with overlap
     ethr =  1.66E-07,  avg # of iterations =  2.4

     total cpu time spent up to now is       49.0 secs

     total energy              =     -79.09373648 Ry
     estimated scf accuracy    <       0.00000660 Ry

     iteration #  9     ecut=    80.00 Ry     beta= 0.70
     Davidson diagonalization with overlap
     ethr =  2.20E-08,  avg # of iterations =  2.2

     total cpu time spent up to now is       50.0 secs

     total energy              =     -79.09373934 Ry
     estimated scf accuracy    <       0.00000850 Ry

     iteration # 10     ecut=    80.00 Ry     beta= 0.70
     Davidson diagonalization with overlap
     ethr =  2.20E-08,  avg # of iterations =  1.1

     total cpu time spent up to now is       50.9 secs

     total energy              =     -79.09373803 Ry
     estimated scf accuracy    <       0.00000767 Ry

     iteration # 11     ecut=    80.00 Ry     beta= 0.70
     Davidson diagonalization with overlap
     ethr =  2.20E-08,  avg # of iterations =  1.8

     total cpu time spent up to now is       51.8 secs

     total energy              =     -79.09373864 Ry
     estimated scf accuracy    <       0.00000018 Ry

     iteration # 12     ecut=    80.00 Ry     beta= 0.70
     Davidson diagonalization with overlap
     ethr =  6.12E-10,  avg # of iterations =  3.2

     total cpu time spent up to now is       52.9 secs

     total energy              =     -79.09373864 Ry
     estimated scf accuracy    <       0.00000018 Ry

     iteration # 13     ecut=    80.00 Ry     beta= 0.70
     Davidson diagonalization with overlap
     ethr =  5.87E-10,  avg # of iterations =  2.1

     total cpu time spent up to now is       53.9 secs

     End of self-consistent calculation

          k = 0.0000 0.0000 0.0000 (  7983 PWs)   bands (ev):

   -35.4893 -35.4767  -6.9260  -3.9851   0.5220   4.4937   4.5682   4.5682
     6.7418   7.2065   7.2065   7.4708   8.1976   9.2940  10.9034  11.1140
    11.1140  13.2394  13.3851

          k = 0.0000 0.0000 0.1274 (  8020 PWs)   bands (ev):

   -35.4893 -35.4767  -6.9259  -3.9878   0.5596   4.2785   4.5696   4.5696
     6.7431   7.1950   7.1950   7.4448   9.1496   9.2999  10.8604  11.1913
    11.1913  11.3587  13.4441

          k = 0.0000 0.1118 0.0000 (  8004 PWs)   bands (ev):

   -35.4886 -35.4767  -6.7649  -3.8270   0.6738   2.9441   4.6347   4.7144
     5.6716   7.1788   7.3526   8.3341   9.0353   9.8276   9.9969  11.2562
    12.0864  13.3501  13.7141

          k = 0.0000 0.1118 0.1274 (  8002 PWs)   bands (ev):

   -35.4886 -35.4767  -6.7647  -3.8297   0.7121   2.9450   4.4158   4.7159
     5.6679   7.1694   7.3412   8.9762   9.2912   9.9160  10.0150  11.3327
    11.5006  12.0768  13.1897

          k = 0.0000 0.2235 0.0000 (  8016 PWs)   bands (ev):

   -35.4866 -35.4769  -6.2825  -3.3535   0.7554   1.1278   3.5487   5.0503
     5.1534   7.2277   7.7909   8.2989   8.6513  10.4839  11.6792  11.6873
    11.7553  11.9626  13.6935

          k = 0.0000 0.2235 0.1274 (  8012 PWs)   bands (ev):

   -35.4866 -35.4769  -6.2823  -3.3565   0.7560   1.1681   3.5443   4.8244
     5.1548   7.2221   7.7797   8.3630   9.5834  10.3861  11.4839  11.7505
    11.7586  11.7805  12.0323

          k = 0.0000 0.3353 0.0000 (  8028 PWs)   bands (ev):

   -35.4839 -35.4775  -5.4818  -2.5679  -1.2316   1.6039   1.8800   5.7047
     5.8338   5.8858   8.5211   8.6265   8.8502   9.8508  10.0140  11.5061
    12.2334  12.6573  12.8116

          k = 0.0000 0.3353 0.1274 (  8036 PWs)   bands (ev):

   -35.4839 -35.4775  -5.4815  -2.5712  -1.2311   1.5995   1.9233   5.4807
     5.8690   5.8872   8.5103   8.6556   9.0411   9.8518  10.4335  11.5006
    12.1088  12.2703  12.6812

          k = 0.0000 0.4470 0.0000 (  8030 PWs)   bands (ev):

   -35.4811 -35.4789  -4.3677  -2.9481  -1.4720  -0.0782   2.9225   4.2405
     6.6979   6.9123   7.8721   8.2334   9.4972   9.5449  10.0381  10.8537
    11.7034  11.9917  12.4621

          k = 0.0000 0.4470 0.1274 (  8030 PWs)   bands (ev):

   -35.4811 -35.4789  -4.3674  -2.9477  -1.4757  -0.0823   2.9686   4.2864
     6.4650   6.9137   7.6643   8.2347   9.5346   9.5937  10.5177  10.8446
    11.8772  12.2497  12.9161

          k = 0.1118 0.1118 0.0000 (  8021 PWs)   bands (ev):

   -35.4879 -35.4767  -6.6039  -3.6690   0.8252   3.0001   3.1942   4.7768
     5.6413   6.0330   8.4490   8.7275   9.3135   9.8078  10.3642  11.3651
    12.3727  12.5593  13.1665

          k = 0.1118 0.1118 0.1274 (  8020 PWs)   bands (ev):

   -35.4879 -35.4767  -6.6037  -3.6718   0.8643   3.0017   3.1944   4.5534
     5.6458   6.0156   8.7395   9.1220   9.5220   9.9246  10.4169  11.2777
    11.7167  12.4341  12.5417

          k = 0.1118 0.2235 0.0000 (  8040 PWs)   bands (ev):

   -35.4859 -35.4768  -6.1220  -3.1960   0.9064   1.2782   3.5488   3.6931
     5.1926   6.3074   7.7724   8.7084   9.7235  10.3702  10.3820  11.4841
    12.2379  12.3956  12.8781

          k = 0.1118 0.2235 0.1274 (  8029 PWs)   bands (ev):

   -35.4859 -35.4768  -6.1218  -3.1990   0.9070   1.3194   3.5495   3.6888
     4.9615   6.2952   7.8223   9.5311   9.7536  10.2819  10.6009  11.1344
    12.0603  12.2506  12.4782

          k = 0.1118 0.3353 0.0000 (  8040 PWs)   bands (ev):

   -35.4833 -35.4774  -5.3221  -2.4111  -1.0768   1.7556   2.0280   4.2715
     5.8532   6.0661   7.0352   8.1962   9.2113  10.2439  10.3569  10.8921
    11.1965  13.1074  13.5699

          k = 0.1118 0.3353 0.1274 (  8039 PWs)   bands (ev):

   -35.4833 -35.4774  -5.3218  -2.4145  -1.0763   1.7509   2.0723   4.2716
     5.6176   6.1224   7.0146   8.2833   9.2849  10.4140  10.5656  11.0544
    11.2613  12.5828  13.1981

          k = 0.1118 0.4470 0.0000 (  8037 PWs)   bands (ev):

   -35.4807 -35.4786  -4.2092  -2.7911  -1.3163   0.0760   3.0643   4.3376
     5.4241   6.6926   6.8417   7.8635   8.2811   9.4266  10.5340  10.9339
    11.8821  12.9062  12.9638

          k = 0.1118 0.4470 0.1274 (  8036 PWs)   bands (ev):

   -35.4807 -35.4786  -4.2088  -2.7907  -1.3202   0.0716   3.1113   4.3782
     5.4403   6.5875   6.7188   7.6609   8.2577   9.4179  11.2429  11.3327
    12.0732  12.7004  13.1823

          k = 0.2235 0.2235 0.0000 (  8053 PWs)   bands (ev):

   -35.4842 -35.4768  -5.6416  -2.7243   1.2460   1.4925   1.7274   3.9319
     4.4054   5.6075   7.8433   7.9777   8.8562   9.4035  10.8510  11.3350
    12.4242  12.8302  13.0235

          k = 0.2235 0.2235 0.1274 (  8049 PWs)   bands (ev):

   -35.4842 -35.4768  -5.6413  -2.7276   1.2478   1.4919   1.7709   3.9359
     4.3845   5.3661   7.9803   8.0722   8.7787  10.2989  10.8878  10.9155
    12.4737  12.4756  12.8502

          k = 0.2235 0.3353 0.0000 (  8041 PWs)   bands (ev):

   -35.4819 -35.4770  -4.8441  -1.9416  -0.6146   2.1318   2.2058   2.4677
     4.9406   6.2071   6.2700   6.4336   8.9226   9.2462   9.5572  10.3860
    13.0191  13.2136  13.3952

          k = 0.2235 0.3353 0.1274 (  8049 PWs)   bands (ev):

   -35.4819 -35.4770  -4.8438  -1.9454  -0.6140   2.1322   2.2004   2.5148
     4.9251   6.0095   6.2365   6.5150   8.9007   9.2639   9.6511  10.9449
    12.8260  13.0883  13.2893

          k = 0.2235 0.4470 0.0000 (  8041 PWs)   bands (ev):

   -35.4796 -35.4780  -3.7347  -2.3214  -0.8503   0.5371   3.1599   3.4510
     4.6416   4.8949   5.9692   7.0353   7.5777   8.4968  10.0291  10.5422
    12.1949  12.4518  14.0655

          k = 0.2235 0.4470 0.1274 (  8045 PWs)   bands (ev):

   -35.4796 -35.4780  -3.7343  -2.3209  -0.8546   0.5321   3.1595   3.4939
     4.6616   4.9618   5.9432   6.8086   7.5424   8.2668  10.1711  11.1285
    12.4227  13.0118  13.8408

          k = 0.3353 0.3353 0.0000 (  8035 PWs)   bands (ev):

   -35.4800 -35.4769  -4.0508  -1.1626   0.0346   0.2902   2.7603   3.1546
     3.2143   4.3611   6.6659   6.7414   7.3129   7.8680  10.0072  10.1298
    11.8292  12.3691  13.7067

          k = 0.3353 0.3353 0.1274 (  8064 PWs)   bands (ev):

   -35.4800 -35.4769  -4.0504  -1.1671   0.0364   0.2897   2.7625   3.1919
     3.1989   4.3823   6.5027   6.8149   7.2758   7.8461   9.6975  10.7003
    11.8713  12.4240  13.8565

          k = 0.3353 0.4470 0.0000 (  8058 PWs)   bands (ev):

   -35.4783 -35.4772  -2.9474  -1.5432  -0.0777   1.2381   1.2981   2.5756
     4.0596   4.3117   5.3818   5.5491   7.9824   8.3893   9.0783   9.5017
    11.8269  12.6638  12.8884

          k = 0.3353 0.4470 0.1274 (  8070 PWs)   bands (ev):

   -35.4783 -35.4772  -2.9468  -1.5425  -0.0828   1.2386   1.2925   2.5752
     4.0420   4.3850   5.3528   5.6414   7.7210   8.4146   8.8170   9.6369
    12.0698  12.7586  13.5446

          k = 0.4470 0.4470 0.0000 (  8062 PWs)   bands (ev):

   -35.4773 -35.4769  -1.8537  -0.5777  -0.3255   0.9343   0.9955   2.1739
     2.6003   3.7654   5.2408   6.0619   7.3115   8.0938   8.8556   9.5263
    11.2877  12.0104  12.8037

          k = 0.4470 0.4470 0.1274 (  8076 PWs)   bands (ev):

   -35.4773 -35.4769  -1.8530  -0.5758  -0.3260   0.9348   0.9898   2.1764
     2.5773   3.7479   5.3366   6.2151   7.3009   8.1401   8.5318   9.0860
    11.3193  11.8816  13.8037

     the Fermi energy is    10.6426 ev

!    total energy              =     -79.09373865 Ry
     estimated scf accuracy    <          4.0E-09 Ry
     smearing contrib. (-TS)   =       0.00065588 Ry
     internal energy E=F+TS    =     -79.09439453 Ry

     The total energy is F=E-TS. E is the sum of the following terms:
     one-electron contribution =     -12.34725342 Ry
     hartree contribution      =      20.05571009 Ry
     xc contribution           =     -27.02416377 Ry
     ewald contribution        =     -59.77868743 Ry

     convergence has been achieved in  13 iterations

     Forces acting on atoms (cartesian axes, Ry/au):

     atom    1 type  1   force =     0.00000000    0.00000000    0.06325609
     atom    2 type  1   force =     0.00000000    0.00000000    0.06325609
     atom    3 type  1   force =     0.00000000    0.00000000   -0.06325609
     atom    4 type  1   force =     0.00000000    0.00000000   -0.06325609
     atom    5 type  1   force =     0.00000000    0.00000000   -0.00414206
     atom    6 type  1   force =     0.00000000    0.00000000    0.00414206
     atom    7 type  2   force =     0.00000000    0.00000000   -0.07498392
     atom    8 type  2   force =     0.00000000    0.00000000    0.07498392
     The non-local contrib.  to forces
     atom    1 type  1   force =     0.00000000    0.00000000   -0.05949855
     atom    2 type  1   force =     0.00000000    0.00000000   -0.05949855
     atom    3 type  1   force =     0.00000000    0.00000000    0.05949855
     atom    4 type  1   force =     0.00000000    0.00000000    0.05949855
     atom    5 type  1   force =     0.00000000    0.00000000    0.00571446
     atom    6 type  1   force =     0.00000000    0.00000000   -0.00571446
     atom    7 type  2   force =     0.00000000    0.00000000   -0.07512323
     atom    8 type  2   force =     0.00000000    0.00000000    0.07512323
     The ionic contribution  to forces
     atom    1 type  1   force =     0.00000000    0.00000000    4.81532554
     atom    2 type  1   force =     0.00000000    0.00000000    4.81532554
     atom    3 type  1   force =     0.00000000    0.00000000   -4.81532554
     atom    4 type  1   force =     0.00000000    0.00000000   -4.81532554
     atom    5 type  1   force =     0.00000000    0.00000000    0.08438805
     atom    6 type  1   force =     0.00000000    0.00000000   -0.08438805
     atom    7 type  2   force =     0.00000000    0.00000000   -3.43467465
     atom    8 type  2   force =     0.00000000    0.00000000    3.43467465
     The local contribution  to forces
     atom    1 type  1   force =    -0.00000000    0.00000000   -4.69181170
     atom    2 type  1   force =     0.00000000    0.00000000   -4.69181170
     atom    3 type  1   force =     0.00000000   -0.00000000    4.69181170
     atom    4 type  1   force =     0.00000000   -0.00000000    4.69181170
     atom    5 type  1   force =    -0.00000000    0.00000000   -0.09484096
     atom    6 type  1   force =     0.00000000    0.00000000    0.09484096
     atom    7 type  2   force =     0.00000000   -0.00000000    3.43484961
     atom    8 type  2   force =    -0.00000000    0.00000000   -3.43484961
     The core correction contribution to forces
     atom    1 type  1   force =    -0.00000000    0.00000000   -0.00083784
     atom    2 type  1   force =    -0.00000000    0.00000000   -0.00083784
     atom    3 type  1   force =    -0.00000000   -0.00000000    0.00083784
     atom    4 type  1   force =    -0.00000000   -0.00000000    0.00083784
     atom    5 type  1   force =     0.00000000   -0.00000000    0.00059338
     atom    6 type  1   force =     0.00000000   -0.00000000   -0.00059338
     atom    7 type  2   force =     0.00000000    0.00000000    0.00000000
     atom    8 type  2   force =     0.00000000    0.00000000    0.00000000
     The Hubbard contrib.    to forces
     atom    1 type  1   force =     0.00000000    0.00000000    0.00000000
     atom    2 type  1   force =     0.00000000    0.00000000    0.00000000
     atom    3 type  1   force =     0.00000000    0.00000000    0.00000000
     atom    4 type  1   force =     0.00000000    0.00000000    0.00000000
     atom    5 type  1   force =     0.00000000    0.00000000    0.00000000
     atom    6 type  1   force =     0.00000000    0.00000000    0.00000000
     atom    7 type  2   force =     0.00000000    0.00000000    0.00000000
     atom    8 type  2   force =     0.00000000    0.00000000    0.00000000
     The SCF correction term to forces
     atom    1 type  1   force =    -0.00000000   -0.00000000    0.00007864
     atom    2 type  1   force =     0.00000000   -0.00000000    0.00007864
     atom    3 type  1   force =     0.00000000   -0.00000000   -0.00007864
     atom    4 type  1   force =    -0.00000000    0.00000000   -0.00007864
     atom    5 type  1   force =    -0.00000000    0.00000000    0.00000301
     atom    6 type  1   force =     0.00000000    0.00000000   -0.00000301
     atom    7 type  2   force =    -0.00000000    0.00000000   -0.00003564
     atom    8 type  2   force =    -0.00000000   -0.00000000    0.00003564

     Total force =     0.165181     Total SCF correction =     0.000165


     Computing stress (Cartesian axis) and pressure

          total   stress  (Ry/bohr**3)                   (kbar)     P=      456.06
   0.00333423   0.00000000   0.00000000          490.48        0.00        0.00
   0.00000000   0.00333423   0.00000000            0.00      490.48        0.00
   0.00000000   0.00000000   0.00263232            0.00        0.00      387.23

     Energy error            =      6.8E-02 Ry
     Gradient error          =      7.5E-02 Ry/Bohr
     Cell gradient error     =      1.1E+02 kbar

     number of scf cycles    =   3
     number of bfgs steps    =   2

     enthalpy           old  =     -76.8173463181 Ry
     enthalpy           new  =     -76.8854537349 Ry

     CASE: enthalpy          _new < enthalpy          _old

     new trust radius        =       0.2295826582 bohr
ibrav =      6
 celldm(1) =      6.25124363
 celldm(3) =      2.55083632
Input lattice vectors:
     0.99071341     0.00000000     0.00000000
     0.00000000     0.99071341     0.00000000
     0.00000000     0.00000000     2.52714774
New lattice vectors in INITIAL alat:
     0.99071341     0.00000000     0.00000000
     0.00000000     0.99071341     0.00000000
     0.00000000     0.00000000     2.52714774
New lattice vectors in NEW alat (for information only):
     1.00000000     0.00000000     0.00000000
     0.00000000     1.00000000     0.00000000
     0.00000000     0.00000000     2.55083632
Discrepancy in bohr =     0.000000    0.000000    0.000000
     new conv_thr            =       0.0000000075 Ry

     new unit-cell volume =    623.13460 a.u.^3 (    92.33902 Ang^3 )
     density =      3.28002 g/cm^3

CELL_PARAMETERS (alat=  6.30984055)
   0.990713407   0.000000000   0.000000000
   0.000000000   0.990713407   0.000000000
   0.000000000   0.000000000   2.527147739

ATOMIC_POSITIONS (crystal)
Si            0.0000000000        0.0000000000        0.2158261957
Si            0.5000000000        0.5000000000        0.2158261957
Si            0.5000000000        0.5000000000        0.7841738043
Si            0.0000000000        0.0000000000        0.7841738043
Si            0.0000000000        0.5000000000        0.0016858219
Si            0.5000000000        0.0000000000        0.9983141781
Li            0.0000000000        0.5000000000        0.6011380672
Li            0.5000000000        0.0000000000        0.3988619328



     Writing config-only to output data dir ./output/SiLi.save/
     NEW-OLD atomic charge density approx. for the potential
     extrapolated charge   28.72160, renormalised to   30.00000

     total cpu time spent up to now is       58.4 secs

     Self-consistent Calculation

     iteration #  1     ecut=    80.00 Ry     beta= 0.70
     Davidson diagonalization with overlap
     c_bands:  1 eigenvalues not converged
     ethr =  1.00E-06,  avg # of iterations = 13.2

     total cpu time spent up to now is       61.6 secs

     total energy              =     -78.50530084 Ry
     estimated scf accuracy    <       0.58700217 Ry

     iteration #  2     ecut=    80.00 Ry     beta= 0.70
     Davidson diagonalization with overlap
     ethr =  1.96E-03,  avg # of iterations =  6.0

     total cpu time spent up to now is       63.3 secs

     total energy              =     -77.63909940 Ry
     estimated scf accuracy    <      21.47221414 Ry

     iteration #  3     ecut=    80.00 Ry     beta= 0.70
     Davidson diagonalization with overlap
     ethr =  1.96E-03,  avg # of iterations =  5.0

     total cpu time spent up to now is       64.9 secs

     total energy              =     -79.08280788 Ry
     estimated scf accuracy    <       0.57250799 Ry

     iteration #  4     ecut=    80.00 Ry     beta= 0.70
     Davidson diagonalization with overlap
     ethr =  1.91E-03,  avg # of iterations =  1.2

     total cpu time spent up to now is       65.7 secs

     total energy              =     -79.07884959 Ry
     estimated scf accuracy    <       0.18897674 Ry

     iteration #  5     ecut=    80.00 Ry     beta= 0.70
     Davidson diagonalization with overlap
     ethr =  6.30E-04,  avg # of iterations =  3.0

     total cpu time spent up to now is       66.8 secs

     total energy              =     -79.08776534 Ry
     estimated scf accuracy    <       0.03000516 Ry

     iteration #  6     ecut=    80.00 Ry     beta= 0.70
     Davidson diagonalization with overlap
     ethr =  1.00E-04,  avg # of iterations =  5.2

     total cpu time spent up to now is       68.0 secs

     total energy              =     -79.09429926 Ry
     estimated scf accuracy    <       0.00076454 Ry

     iteration #  7     ecut=    80.00 Ry     beta= 0.70
     Davidson diagonalization with overlap
     ethr =  2.55E-06,  avg # of iterations =  6.0

     total cpu time spent up to now is       69.4 secs

     total energy              =     -79.09443911 Ry
     estimated scf accuracy    <       0.00022046 Ry

     iteration #  8     ecut=    80.00 Ry     beta= 0.70
     Davidson diagonalization with overlap
     ethr =  7.35E-07,  avg # of iterations =  2.2

     total cpu time spent up to now is       70.3 secs

     total energy              =     -79.09446687 Ry
     estimated scf accuracy    <       0.00004101 Ry

     iteration #  9     ecut=    80.00 Ry     beta= 0.70
     Davidson diagonalization with overlap
     ethr =  1.37E-07,  avg # of iterations =  1.8

     total cpu time spent up to now is       71.2 secs

     total energy              =     -79.09445290 Ry
     estimated scf accuracy    <       0.00008214 Ry

     iteration # 10     ecut=    80.00 Ry     beta= 0.70
     Davidson diagonalization with overlap
     ethr =  1.37E-07,  avg # of iterations =  2.2

     total cpu time spent up to now is       72.2 secs

     total energy              =     -79.09446048 Ry
     estimated scf accuracy    <       0.00000066 Ry

     iteration # 11     ecut=    80.00 Ry     beta= 0.70
     Davidson diagonalization with overlap
     ethr =  2.20E-09,  avg # of iterations =  4.5

     total cpu time spent up to now is       73.5 secs

     total energy              =     -79.09446081 Ry
     estimated scf accuracy    <       0.00000020 Ry

     iteration # 12     ecut=    80.00 Ry     beta= 0.70
     Davidson diagonalization with overlap
     ethr =  6.65E-10,  avg # of iterations =  2.0

     total cpu time spent up to now is       74.5 secs

     End of self-consistent calculation

          k = 0.0000 0.0000 0.0000 (  7983 PWs)   bands (ev):

   -34.8480 -34.8250  -6.1683  -3.3993   0.8641   4.9448   5.4160   5.4160
     7.6446   7.8686   7.8686   8.2867   8.5433  10.0713  11.3970  11.3970
    11.5333  13.6666  14.4328

          k = 0.0000 0.0000 0.1319 (  8020 PWs)   bands (ev):

   -34.8480 -34.8250  -6.1678  -3.4051   0.9260   4.6356   5.4199   5.4199
     7.6481   7.8422   7.8422   8.2474   9.6652  10.0894  11.4488  11.5264
    11.5264  12.0903  14.0118

          k = 0.0000 0.1122 0.0000 (  8004 PWs)   bands (ev):

   -34.8469 -34.8253  -6.0059  -3.2401   1.0158   3.7799   5.0848   5.5633
     6.3203   8.0154   8.0424   8.7060   9.8895  10.1527  10.7245  11.5398
    12.7470  13.9806  14.3755

          k = 0.0000 0.1122 0.1319 (  8002 PWs)   bands (ev):

   -34.8469 -34.8253  -6.0055  -3.2461   1.0789   3.7821   4.7706   5.5671
     6.3116   7.9892   8.0279   9.6943   9.9580  10.3395  10.6921  11.6680
    12.2484  12.7030  13.5618

          k = 0.0000 0.2243 0.0000 (  8016 PWs)   bands (ev):

   -34.8439 -34.8262  -5.5199  -2.7635   1.4696   1.5727   4.1845   5.5007
     6.0053   7.8059   8.4558   8.9015   9.0256  11.1614  11.9648  12.1986
    12.6508  12.8429  14.4565

          k = 0.0000 0.2243 0.1319 (  8012 PWs)   bands (ev):

   -34.8439 -34.8262  -5.5194  -2.7700   1.5359   1.5746   4.1735   5.1756
     6.0091   7.8372   8.4300   8.9903  10.1103  10.9508  11.9827  12.0889
    12.5446  12.6530  12.9152

          k = 0.0000 0.3365 0.0000 (  8028 PWs)   bands (ev):

   -34.8397 -34.8281  -4.7132  -1.9721  -0.4311   2.2199   2.2281   6.0592
     6.3018   6.7427   9.1890   9.2648   9.4342  10.4675  10.7353  12.1902
    12.5982  13.2792  13.3966

          k = 0.0000 0.3365 0.1319 (  8036 PWs)   bands (ev):

   -34.8397 -34.8281  -4.7125  -1.9794  -0.4298   2.2152   2.2944   5.7967
     6.3151   6.7464   9.1638   9.3468   9.5622  10.7384  10.9503  12.1795
    12.6935  12.9621  13.2803

          k = 0.0000 0.4486 0.0000 (  8030 PWs)   bands (ev):

   -34.8351 -34.8311  -3.5905  -2.1594  -0.8707   0.5330   3.2638   4.5830
     7.1655   7.7761   8.3397   9.1049  10.2194  10.2636  10.5157  11.5276
    12.4286  12.4915  13.1591

          k = 0.0000 0.4486 0.1319 (  8030 PWs)   bands (ev):

   -34.8351 -34.8311  -3.5896  -2.1583  -0.8792   0.5234   3.3417   4.6618
     6.8280   7.7796   8.0218   9.1081  10.1956  10.4401  11.2279  11.5066
    12.5911  12.8514  13.5261

          k = 0.1122 0.1122 0.0000 (  8021 PWs)   bands (ev):

   -34.8458 -34.8255  -5.8438  -3.0811   1.1672   3.8457   4.0213   5.2253
     6.2987   6.6737   8.8353   9.4805  10.1046  10.2720  10.7189  12.0917
    13.2308  13.2999  13.6938

          k = 0.1122 0.1122 0.1319 (  8020 PWs)   bands (ev):

   -34.8458 -34.8255  -5.8433  -3.0872   1.2316   3.8498   4.0213   4.9056
     6.3084   6.6355   9.5394   9.7291  10.2493  10.4250  10.8093  12.0248
    12.4547  12.9934  13.2838

          k = 0.1122 0.2243 0.0000 (  8040 PWs)   bands (ev):

   -34.8429 -34.8264  -5.3583  -2.6049   1.6199   1.7252   4.3311   4.3873
     5.6419   6.9575   8.1345   9.1065  10.5507  10.7068  11.2547  12.0124
    13.0726  13.0963  13.5818

          k = 0.1122 0.2243 0.1319 (  8029 PWs)   bands (ev):

   -34.8429 -34.8264  -5.3577  -2.6116   1.6878   1.7272   4.3200   4.3891
     5.3103   6.9323   8.2452  10.0836  10.5954  10.8104  11.3095  11.5470
    12.7827  13.0796  13.1191

          k = 0.1122 0.3365 0.0000 (  8040 PWs)   bands (ev):

   -34.8389 -34.8281  -4.5523  -1.8142  -0.2750   2.3697   2.3797   5.1099
     6.2324   6.4874   7.6928   8.9327   9.7368  10.7093  11.1376  11.3378
    11.7985  13.7976  13.9553

          k = 0.1122 0.3365 0.1319 (  8039 PWs)   bands (ev):

   -34.8389 -34.8281  -4.5516  -1.8218  -0.2736   2.3670   2.4454   5.1091
     5.9408   6.5442   7.6534   9.1200   9.6753  11.0835  11.2829  11.5450
    11.8320  13.3637  13.8308

          k = 0.1122 0.4486 0.0000 (  8037 PWs)   bands (ev):

   -34.8346 -34.8309  -3.4308  -2.0012  -0.7139   0.6884   3.4076   4.7061
     6.2353   7.3113   7.5315   8.4168   8.8574  10.0893  10.9217  11.4463
    12.4351  13.4346  13.7170

          k = 0.1122 0.4486 0.1319 (  8036 PWs)   bands (ev):

   -34.8346 -34.8309  -3.4299  -2.0001  -0.7227   0.6783   3.4874   4.7824
     6.2558   6.9529   7.5665   8.0651   8.8589  10.0684  11.8779  12.0240
    12.5260  13.4624  13.8244

          k = 0.2243 0.2243 0.0000 (  8053 PWs)   bands (ev):

   -34.8404 -34.8269  -4.8743  -2.1299   2.0693   2.0790   2.3024   4.5874
     5.0274   6.0599   8.1586   8.7268   9.2019   9.8938  11.5345  11.8761
    13.3251  13.4189  13.6601

          k = 0.2243 0.2243 0.1319 (  8049 PWs)   bands (ev):

   -34.8404 -34.8269  -4.8735  -2.1373   2.0834   2.1415   2.3013   4.5950
     4.9824   5.7122   8.3858   8.9141   9.1526  10.8301  11.2670  11.5556
    13.1900  13.3909  13.4069

          k = 0.2243 0.3365 0.0000 (  8041 PWs)   bands (ev):

   -34.8369 -34.8281  -4.0707  -1.3415   0.1913   2.8083   2.8381   2.9580
     5.5819   6.6513   6.8366   7.0386   9.4139   9.7469   9.9600  10.8494
    13.6494  13.6580  13.7781

          k = 0.2243 0.3365 0.1319 (  8049 PWs)   bands (ev):

   -34.8369 -34.8281  -4.0699  -1.3499   0.1930   2.8166   2.8961   2.9597
     5.5497   6.3397   6.9193   7.0811   9.4081   9.7613  10.0302  11.4428
    13.3889  13.5999  14.0028

          k = 0.2243 0.4486 0.0000 (  8041 PWs)   bands (ev):

   -34.8333 -34.8302  -2.9527  -1.5278  -0.2443   1.1533   3.8218   3.9877
     5.2251   5.4414   6.6196   7.5899   8.1463   8.9638  10.3325  10.8474
    12.6329  12.8810  14.5199

          k = 0.2243 0.4486 0.1319 (  8045 PWs)   bands (ev):

   -34.8333 -34.8302  -2.9516  -1.5265  -0.2542   1.1419   3.9017   3.9867
     5.3376   5.4685   6.5670   7.2119   8.1365   8.6273  10.5576  11.5348
    12.9525  13.5307  14.2843

          k = 0.3365 0.3365 0.0000 (  8035 PWs)   bands (ev):

   -34.8343 -34.8285  -3.2713  -0.5568   0.8575   1.0894   3.4046   3.5340
     3.8249   5.1569   6.9676   7.2817   7.8730   8.2348  10.3203  10.6619
    12.1952  12.8107  14.0386

          k = 0.3365 0.3365 0.1319 (  8064 PWs)   bands (ev):

   -34.8343 -34.8285  -3.2703  -0.5666   0.8622   1.0879   3.4070   3.6195
     3.7771   5.1833   6.8824   7.2121   7.8591   8.2241  10.0368  11.1321
    12.2152  12.9580  14.4403

          k = 0.3365 0.4486 0.0000 (  8058 PWs)   bands (ev):

   -34.8316 -34.8296  -2.1593  -0.7433   0.5347   1.9215   2.0567   3.3992
     4.6243   4.7114   5.8400   6.0520   8.4610   8.7097   9.5421   9.8320
    12.2419  13.0851  13.2611

          k = 0.3365 0.4486 0.1319 (  8070 PWs)   bands (ev):

   -34.8316 -34.8296  -2.1579  -0.7415   0.5231   1.9084   2.0581   3.3979
     4.6466   4.7762   5.9189   6.0703   8.0773   8.7611   9.1907  10.0217
    12.4304  13.1769  14.0116

          k = 0.4486 0.4486 0.0000 (  8062 PWs)   bands (ev):

   -34.8302 -34.8295  -1.0566   0.2400   0.4715   1.6158   1.7515   2.8230
     3.2053   4.3985   5.5553   6.3580   7.6638   8.4234   9.3465  10.0542
    11.6652  12.4317  13.1645

          k = 0.4486 0.4486 0.1319 (  8076 PWs)   bands (ev):

   -34.8302 -34.8295  -1.0549   0.2448   0.4702   1.6023   1.7532   2.8277
     3.1565   4.3620   5.7156   6.6087   7.6483   8.4828   8.9034   9.4194
    11.6887  12.2381  14.3324

     the Fermi energy is    11.2606 ev

!    total energy              =     -79.09446083 Ry
     estimated scf accuracy    <          2.9E-09 Ry
     smearing contrib. (-TS)   =      -0.00019793 Ry
     internal energy E=F+TS    =     -79.09426290 Ry

     The total energy is F=E-TS. E is the sum of the following terms:
     one-electron contribution =      -0.71065152 Ry
     hartree contribution      =      14.90405775 Ry
     xc contribution           =     -27.02433003 Ry
     ewald contribution        =     -66.26333911 Ry

     convergence has been achieved in  12 iterations

     Forces acting on atoms (cartesian axes, Ry/au):

     atom    1 type  1   force =     0.00000000    0.00000000    0.03916863
     atom    2 type  1   force =     0.00000000    0.00000000    0.03916863
     atom    3 type  1   force =     0.00000000    0.00000000   -0.03916863
     atom    4 type  1   force =     0.00000000    0.00000000   -0.03916863
     atom    5 type  1   force =     0.00000000    0.00000000    0.01184870
     atom    6 type  1   force =     0.00000000    0.00000000   -0.01184870
     atom    7 type  2   force =     0.00000000    0.00000000   -0.09822451
     atom    8 type  2   force =     0.00000000    0.00000000    0.09822451
     The non-local contrib.  to forces
     atom    1 type  1   force =     0.00000000    0.00000000   -0.08638842
     atom    2 type  1   force =     0.00000000    0.00000000   -0.08638842
     atom    3 type  1   force =     0.00000000    0.00000000    0.08638842
     atom    4 type  1   force =     0.00000000    0.00000000    0.08638842
     atom    5 type  1   force =     0.00000000    0.00000000    0.02274749
     atom    6 type  1   force =     0.00000000    0.00000000   -0.02274749
     atom    7 type  2   force =     0.00000000    0.00000000   -0.07250103
     atom    8 type  2   force =     0.00000000    0.00000000    0.07250103
     The ionic contribution  to forces
     atom    1 type  1   force =     0.00000000    0.00000000    3.85972764
     atom    2 type  1   force =    -0.00000000   -0.00000000    3.85972764
     atom    3 type  1   force =    -0.00000000    0.00000000   -3.85972764
     atom    4 type  1   force =     0.00000000    0.00000000   -3.85972764
     atom    5 type  1   force =     0.00000000   -0.00000000    0.05486424
     atom    6 type  1   force =    -0.00000000    0.00000000   -0.05486424
     atom    7 type  2   force =     0.00000000   -0.00000000   -2.90127082
     atom    8 type  2   force =     0.00000000    0.00000000    2.90127082
     The local contribution  to forces
     atom    1 type  1   force =     0.00000000    0.00000000   -3.73556431
     atom    2 type  1   force =     0.00000000    0.00000000   -3.73556431
     atom    3 type  1   force =     0.00000000   -0.00000000    3.73556431
     atom    4 type  1   force =     0.00000000   -0.00000000    3.73556431
     atom    5 type  1   force =     0.00000000    0.00000000   -0.06491711
     atom    6 type  1   force =     0.00000000    0.00000000    0.06491711
     atom    7 type  2   force =     0.00000000   -0.00000000    2.87551139
     atom    8 type  2   force =    -0.00000000    0.00000000   -2.87551139
     The core correction contribution to forces
     atom    1 type  1   force =     0.00000000   -0.00000000    0.00145918
     atom    2 type  1   force =     0.00000000    0.00000000    0.00145918
     atom    3 type  1   force =     0.00000000    0.00000000   -0.00145918
     atom    4 type  1   force =    -0.00000000   -0.00000000   -0.00145918
     atom    5 type  1   force =     0.00000000    0.00000000   -0.00084520
     atom    6 type  1   force =     0.00000000    0.00000000    0.00084520
     atom    7 type  2   force =     0.00000000    0.00000000    0.00000000
     atom    8 type  2   force =     0.00000000    0.00000000    0.00000000
     The Hubbard contrib.    to forces
     atom    1 type  1   force =     0.00000000    0.00000000    0.00000000
     atom    2 type  1   force =     0.00000000    0.00000000    0.00000000
     atom    3 type  1   force =     0.00000000    0.00000000    0.00000000
     atom    4 type  1   force =     0.00000000    0.00000000    0.00000000
     atom    5 type  1   force =     0.00000000    0.00000000    0.00000000
     atom    6 type  1   force =     0.00000000    0.00000000    0.00000000
     atom    7 type  2   force =     0.00000000    0.00000000    0.00000000
     atom    8 type  2   force =     0.00000000    0.00000000    0.00000000
     The SCF correction term to forces
     atom    1 type  1   force =     0.00000000   -0.00000000   -0.00006546
     atom    2 type  1   force =    -0.00000000    0.00000000   -0.00006546
     atom    3 type  1   force =    -0.00000000   -0.00000000    0.00006546
     atom    4 type  1   force =    -0.00000000   -0.00000000    0.00006546
     atom    5 type  1   force =     0.00000000    0.00000000   -0.00000073
     atom    6 type  1   force =     0.00000000    0.00000000    0.00000073
     atom    7 type  2   force =     0.00000000    0.00000000    0.00003595
     atom    8 type  2   force =    -0.00000000    0.00000000   -0.00003595

     Total force =     0.160355     Total SCF correction =     0.000140


     Computing stress (Cartesian axis) and pressure

[...]

     Initial potential from superposition of free atoms

     starting charge      29.9872, renormalised to      30.0000
     Starting wfcs are   28 randomized atomic wfcs

     total cpu time spent up to now is      302.1 secs

     Self-consistent Calculation

     iteration #  1     ecut=    80.00 Ry     beta= 0.70
     Davidson diagonalization with overlap
     c_bands:  1 eigenvalues not converged
     c_bands:  1 eigenvalues not converged
     c_bands:  2 eigenvalues not converged
     c_bands:  1 eigenvalues not converged
     c_bands:  1 eigenvalues not converged
     c_bands:  3 eigenvalues not converged
     c_bands:  1 eigenvalues not converged
     c_bands:  2 eigenvalues not converged
     c_bands:  1 eigenvalues not converged
     c_bands:  1 eigenvalues not converged
     c_bands:  2 eigenvalues not converged
     c_bands:  1 eigenvalues not converged
     c_bands:  1 eigenvalues not converged
     c_bands:  1 eigenvalues not converged
     c_bands:  1 eigenvalues not converged
     c_bands:  1 eigenvalues not converged
     c_bands:  1 eigenvalues not converged
     ethr =  1.00E-06,  avg # of iterations = 18.5

     total cpu time spent up to now is      305.8 secs

     total energy              =     -78.78698387 Ry
     estimated scf accuracy    <       0.58817248 Ry

     iteration #  2     ecut=    80.00 Ry     beta= 0.70
     Davidson diagonalization with overlap
     ethr =  1.96E-03,  avg # of iterations =  4.4

     total cpu time spent up to now is      307.0 secs

     total energy              =     -78.34223268 Ry
     estimated scf accuracy    <       6.60278620 Ry

     iteration #  3     ecut=    80.00 Ry     beta= 0.70
     Davidson diagonalization with overlap
     ethr =  1.96E-03,  avg # of iterations =  3.6

     total cpu time spent up to now is      308.1 secs

     total energy              =     -79.17422244 Ry
     estimated scf accuracy    <       0.00465474 Ry

     iteration #  4     ecut=    80.00 Ry     beta= 0.70
     Davidson diagonalization with overlap
     c_bands:  1 eigenvalues not converged
     ethr =  1.55E-05,  avg # of iterations =  6.1

     total cpu time spent up to now is      309.5 secs

     total energy              =     -79.17880152 Ry
     estimated scf accuracy    <       0.00506360 Ry

     iteration #  5     ecut=    80.00 Ry     beta= 0.70
     Davidson diagonalization with overlap
     ethr =  1.55E-05,  avg # of iterations =  1.9

     total cpu time spent up to now is      310.4 secs

     total energy              =     -79.17889435 Ry
     estimated scf accuracy    <       0.00075548 Ry

     iteration #  6     ecut=    80.00 Ry     beta= 0.70
     Davidson diagonalization with overlap
     ethr =  2.52E-06,  avg # of iterations =  2.8

     total cpu time spent up to now is      311.3 secs

     total energy              =     -79.17906579 Ry
     estimated scf accuracy    <       0.00002502 Ry

     iteration #  7     ecut=    80.00 Ry     beta= 0.70
     Davidson diagonalization with overlap
     ethr =  8.34E-08,  avg # of iterations =  3.4

     total cpu time spent up to now is      312.3 secs

     total energy              =     -79.17906664 Ry
     estimated scf accuracy    <       0.00001858 Ry

     iteration #  8     ecut=    80.00 Ry     beta= 0.70
     Davidson diagonalization with overlap
     ethr =  6.19E-08,  avg # of iterations =  1.3

     total cpu time spent up to now is      313.1 secs

     total energy              =     -79.17906643 Ry
     estimated scf accuracy    <       0.00000408 Ry

     iteration #  9     ecut=    80.00 Ry     beta= 0.70
     Davidson diagonalization with overlap
     ethr =  1.36E-08,  avg # of iterations =  2.7

     total cpu time spent up to now is      314.0 secs

     total energy              =     -79.17906723 Ry
     estimated scf accuracy    <       0.00000001 Ry

     iteration # 10     ecut=    80.00 Ry     beta= 0.70
     Davidson diagonalization with overlap
     ethr =  4.92E-11,  avg # of iterations =  5.5

     total cpu time spent up to now is      315.4 secs

     total energy              =     -79.17906724 Ry
     estimated scf accuracy    <       0.00000014 Ry

     iteration # 11     ecut=    80.00 Ry     beta= 0.70
     Davidson diagonalization with overlap
     ethr =  4.92E-11,  avg # of iterations =  3.4

     total cpu time spent up to now is      316.3 secs

     total energy              =     -79.17906726 Ry
     estimated scf accuracy    <          8.8E-10 Ry

     iteration # 12     ecut=    80.00 Ry     beta= 0.70
     Davidson diagonalization with overlap
     ethr =  2.94E-12,  avg # of iterations =  2.2

     total cpu time spent up to now is      317.2 secs

     End of self-consistent calculation

          k = 0.0000 0.0000 0.0000 (  6489 PWs)   bands (ev):

   -32.4898 -32.3258  -3.3665  -0.6117   2.9191   7.4512   7.4512   8.3349
     9.5041  10.1174  10.1355  10.1355  11.9749  11.9946  12.1767  12.1767
    13.2179  13.2932  18.7252

          k = 0.0000 0.0000 0.1630 (  6505 PWs)   bands (ev):

   -32.4898 -32.3258  -3.3418  -0.7738   3.5639   6.8535   7.5664   7.5664
     9.5357   9.5357   9.6275  10.0473  11.9345  12.1516  13.4834  13.4834
    14.3175  15.2804  16.6901

          k = 0.0000 0.1083 0.0000 (  6539 PWs)   bands (ev):

   -32.4846 -32.3304  -3.2159  -0.4611   3.0455   5.9086   7.5907   8.4773
     8.6184   9.9202  10.2743  10.7247  11.6677  12.0623  12.3200  12.6370
    14.4465  14.5223  16.4093

          k = 0.0000 0.1083 0.1630 (  6522 PWs)   bands (ev):

   -32.4846 -32.3304  -3.1901  -0.6287   3.7045   5.9969   6.9685   7.7058
     8.1274   9.6762   9.9588  11.6361  11.6773  12.7593  13.6226  13.6310
    14.4044  14.8969  16.7914

          k = 0.0000 0.2166 0.0000 (  6528 PWs)   bands (ev):

   -32.4696 -32.3439  -2.7647  -0.0103   3.4241   3.8418   6.5740   8.0097
     8.9042   8.9883  10.3573  10.6909  12.2537  12.7498  13.1771  14.3142
    14.4702  15.2321  15.2907

          k = 0.0000 0.2166 0.1630 (  6524 PWs)   bands (ev):

   -32.4696 -32.3439  -2.7358  -0.1941   3.9137   4.1247   6.1615   7.3145
     8.1240   9.9833  10.0979  10.4877  12.3670  13.7307  14.0402  14.4175
    14.5383  14.6195  15.9967

          k = 0.0000 0.3250 0.0000 (  6526 PWs)   bands (ev):

   -32.4469 -32.3649  -2.0154   0.7383   1.9709   4.0534   4.7142   7.4107
     8.7086   9.6157  11.0175  11.3854  12.4913  12.5006  13.4395  13.4654
    13.9169  15.1377  15.4693

          k = 0.0000 0.3250 0.1630 (  6552 PWs)   bands (ev):

   -32.4469 -32.3649  -1.9812   0.5278   2.0308   4.3656   4.8195   7.8940
     8.4356   8.8216  10.7065  10.8008  11.6103  12.5979  13.9276  14.5438
    14.5974  14.7351  15.7753

          k = 0.0000 0.4333 0.0000 (  6526 PWs)   bands (ev):

   -32.4196 -32.3911  -0.9717   0.3601   1.7804   3.1093   4.9308   6.0522
     9.6881  10.6109  10.9489  11.8387  11.8881  12.3581  12.4919  13.6092
    14.4656  14.5851  14.6839

          k = 0.0000 0.4333 0.1630 (  6553 PWs)   bands (ev):

   -32.4196 -32.3911  -0.9306   0.4099   1.5331   2.8157   5.7806   6.9942
     8.7073   9.7351   9.7994  11.0581  11.7851  12.2902  13.0509  13.4500
    14.6645  15.4348  15.7059

          k = 0.1083 0.1083 0.0000 (  6533 PWs)   bands (ev):

   -32.4796 -32.3348  -3.0654  -0.3107   3.1711   5.9528   6.1555   8.5956
     8.6196   8.9545  10.3449  11.5583  11.6476  12.0404  12.0969  14.0658
    14.9472  14.9701  15.4536

          k = 0.1083 0.1083 0.1630 (  6520 PWs)   bands (ev):

   -32.4796 -32.3348  -3.0385  -0.4838   3.8445   6.0776   6.2029   7.0817
     8.1678   8.3496  11.5513  11.9329  12.0041  12.5277  13.8792  13.9145
    14.3544  14.8370  15.1360

          k = 0.1083 0.2166 0.0000 (  6527 PWs)   bands (ev):

   -32.4655 -32.3474  -2.6147   0.1397   3.5471   3.9830   6.4840   6.7123
     8.9782   9.0466   9.2233  11.7936  12.0113  12.1639  13.2825  14.6007
    14.8598  15.3745  15.5012

          k = 0.1083 0.2166 0.1630 (  6523 PWs)   bands (ev):

   -32.4655 -32.3474  -2.5846  -0.0499   4.0575   4.2627   6.2764   6.5840
     7.4211   8.6092  10.3648  12.1235  12.6158  12.8901  13.2937  14.5917
    14.6071  14.7193  15.4058

          k = 0.1083 0.3250 0.0000 (  6525 PWs)   bands (ev):

   -32.4441 -32.3670  -1.8661   0.8877   2.1156   4.1714   4.8589   7.1567
     7.5124   9.7579   9.9267  10.8625  12.3669  12.7634  12.9458  13.5816
    13.7136  15.5976  16.0955

          k = 0.1083 0.3250 0.1630 (  6531 PWs)   bands (ev):

   -32.4441 -32.3670  -1.8308   0.6707   2.1773   4.4992   4.9535   7.2738
     7.9830   8.4256   9.5385  11.1279  11.3513  13.0432  13.2245  13.6264
    15.2644  15.3816  16.8590

          k = 0.1083 0.4333 0.0000 (  6538 PWs)   bands (ev):

   -32.4184 -32.3916  -0.8236   0.5069   1.9288   3.2563   5.0398   6.1438
     8.1764   9.4149  10.7530  10.9143  12.0298  12.1792  12.9699  13.1232
    13.6168  14.8015  15.7392

          k = 0.1083 0.4333 0.1630 (  6537 PWs)   bands (ev):

   -32.4184 -32.3916  -0.7811   0.5581   1.6741   2.9539   5.9059   7.0941
     8.2562   8.7132   9.6482   9.6929  10.8011  11.8024  13.9775  14.5226
    15.0739  15.5948  16.0737

          k = 0.2166 0.2166 0.0000 (  6531 PWs)   bands (ev):

   -32.4538 -32.3575  -2.1654   0.5889   3.9147   4.2822   4.5570   6.9450
     7.3860   8.6326   9.4734  10.6265  10.8852  12.8366  13.5249  14.8026
    15.0890  15.6096  15.9695

          k = 0.2166 0.2166 0.1630 (  6513 PWs)   bands (ev):

   -32.4538 -32.3575  -2.1319   0.3818   4.4141   4.5706   4.6742   6.5201
     6.8545   7.7342  10.2970  10.9274  11.3663  13.0269  13.0456  14.4527
    15.0832  15.3382  15.3397

          k = 0.2166 0.3250 0.0000 (  6529 PWs)   bands (ev):

   -32.4361 -32.3733  -1.4191   1.3348   2.5472   4.5220   5.1397   5.2888
     7.6115   7.9055   8.9291  10.1846  10.9498  11.7269  12.7382  14.0003
    15.3931  15.5118  16.5133

          k = 0.2166 0.3250 0.1630 (  6531 PWs)   bands (ev):

   -32.4361 -32.3733  -1.3802   1.0985   2.6154   4.8758   5.2396   5.3501
     7.2787   8.1832   9.1161   9.1924  11.2068  11.4212  12.3671  14.8714
    15.0870  15.8394  16.3903

          k = 0.2166 0.4333 0.0000 (  6540 PWs)   bands (ev):

   -32.4150 -32.3932  -0.3799   0.9460   2.3730   3.6960   5.3563   6.0723
     6.4859   7.4182   8.8998  10.1782  11.1792  11.5518  12.2808  12.4545
    15.1716  15.4143  17.1709

          k = 0.2166 0.4333 0.1630 (  6538 PWs)   bands (ev):

   -32.4150 -32.3932  -0.3335   1.0018   2.0957   3.3654   6.2156   6.2631
     7.2959   7.4812   8.5615   8.8749  10.2360  10.4463  12.8756  13.9426
    15.6654  16.3646  16.6950

          k = 0.3250 0.3250 0.0000 (  6555 PWs)   bands (ev):

   -32.4242 -32.3832  -0.6767   2.0772   3.1283   3.4288   5.0903   5.8184
     6.2536   7.1501   7.4696   9.9145  10.1487  10.8952  12.0181  14.5278
    14.9224  15.2290  16.5139

          k = 0.3250 0.3250 0.1630 (  6524 PWs)   bands (ev):

   -32.4242 -32.3832  -0.6319   1.8080   3.2652   3.4267   5.3590   5.7960
     5.9834   7.2085   8.5957   9.1745  10.0145  10.4027  11.9668  13.7189
    14.1050  16.1359  17.6225

          k = 0.3250 0.4333 0.0000 (  6532 PWs)   bands (ev):

   -32.4102 -32.3959   0.3567   1.6729   3.1099   4.2911   4.4222   5.5020
     5.9613   6.7722   7.0675   8.3528  10.3259  11.0823  11.8883  13.1581
    15.5099  15.7289  16.0463

          k = 0.3250 0.4333 0.1630 (  6528 PWs)   bands (ev):

   -32.4102 -32.3959   0.4098   1.7379   2.7924   4.0168   4.3952   5.6598
     6.4405   6.7236   8.0297   8.3113   9.9323  10.3704  11.6972  12.4394
    14.3886  15.2332  17.9992

          k = 0.4333 0.4333 0.0000 (  6511 PWs)   bands (ev):

   -32.4049 -32.3999   1.3797   2.5449   2.8546   4.0044   4.1316   5.2520
     5.6724   6.4902   6.7837   6.8848   9.7420  10.1062  12.8761  13.9765
    14.3544  15.4515  15.8804

          k = 0.4333 0.4333 0.1630 (  6520 PWs)   bands (ev):

   -32.4049 -32.3999   1.4437   2.6845   2.8459   3.7280   4.1103   4.7676
     5.2582   6.1579   8.0378   8.6031   9.8897  10.0874  11.4112  11.4576
    13.8027  14.2033  18.6914

     the Fermi energy is    13.4222 ev

!    total energy              =     -79.17906726 Ry
     estimated scf accuracy    <          1.9E-11 Ry
     smearing contrib. (-TS)   =       0.00094620 Ry
     internal energy E=F+TS    =     -79.18001346 Ry

     The total energy is F=E-TS. E is the sum of the following terms:
     one-electron contribution =      22.36793504 Ry
     hartree contribution      =       5.84851173 Ry
     xc contribution           =     -27.06064635 Ry
     ewald contribution        =     -80.33581389 Ry

     convergence has been achieved in  12 iterations

     Forces acting on atoms (cartesian axes, Ry/au):

     atom    1 type  1   force =     0.00000000    0.00000000   -0.00000396
     atom    2 type  1   force =     0.00000000    0.00000000   -0.00000396
     atom    3 type  1   force =     0.00000000    0.00000000    0.00000396
     atom    4 type  1   force =     0.00000000    0.00000000    0.00000396
     atom    5 type  1   force =     0.00000000    0.00000000   -0.00005620
     atom    6 type  1   force =     0.00000000    0.00000000    0.00005620
     atom    7 type  2   force =     0.00000000    0.00000000    0.00000689
     atom    8 type  2   force =     0.00000000    0.00000000   -0.00000689
     The non-local contrib.  to forces
     atom    1 type  1   force =     0.00000000    0.00000000   -0.09920693
     atom    2 type  1   force =     0.00000000    0.00000000   -0.09920693
     atom    3 type  1   force =     0.00000000    0.00000000    0.09920693
     atom    4 type  1   force =     0.00000000    0.00000000    0.09920693
     atom    5 type  1   force =     0.00000000    0.00000000   -0.00006279
     atom    6 type  1   force =     0.00000000    0.00000000    0.00006279
     atom    7 type  2   force =     0.00000000    0.00000000   -0.00000766
     atom    8 type  2   force =     0.00000000    0.00000000    0.00000766
     The ionic contribution  to forces
     atom    1 type  1   force =    -0.00000000   -0.00000000    0.18546078
     atom    2 type  1   force =     0.00000000    0.00000000    0.18546078
     atom    3 type  1   force =     0.00000000    0.00000000   -0.18546078
     atom    4 type  1   force =    -0.00000000   -0.00000000   -0.18546078
     atom    5 type  1   force =    -0.00000000    0.00000000   -0.00033245
     atom    6 type  1   force =     0.00000000   -0.00000000    0.00033245
     atom    7 type  2   force =    -0.00000000   -0.00000000    0.00003034
     atom    8 type  2   force =     0.00000000   -0.00000000   -0.00003034
     The local contribution  to forces
     atom    1 type  1   force =     0.00000000    0.00000000   -0.08976617
     atom    2 type  1   force =    -0.00000000   -0.00000000   -0.08976617
     atom    3 type  1   force =    -0.00000000   -0.00000000    0.08976617
     atom    4 type  1   force =     0.00000000   -0.00000000    0.08976617
     atom    5 type  1   force =    -0.00000000    0.00000000    0.00033264
     atom    6 type  1   force =    -0.00000000   -0.00000000   -0.00033264
     atom    7 type  2   force =    -0.00000000    0.00000000   -0.00001576
     atom    8 type  2   force =     0.00000000   -0.00000000    0.00001576
     The core correction contribution to forces
     atom    1 type  1   force =     0.00000000    0.00000000    0.00351317
     atom    2 type  1   force =    -0.00000000   -0.00000000    0.00351317
     atom    3 type  1   force =    -0.00000000   -0.00000000   -0.00351317
     atom    4 type  1   force =    -0.00000000    0.00000000   -0.00351317
     atom    5 type  1   force =    -0.00000000   -0.00000000    0.00000638
     atom    6 type  1   force =     0.00000000   -0.00000000   -0.00000638
     atom    7 type  2   force =     0.00000000    0.00000000    0.00000000
     atom    8 type  2   force =     0.00000000    0.00000000    0.00000000
     The Hubbard contrib.    to forces
     atom    1 type  1   force =     0.00000000    0.00000000    0.00000000
     atom    2 type  1   force =     0.00000000    0.00000000    0.00000000
     atom    3 type  1   force =     0.00000000    0.00000000    0.00000000
     atom    4 type  1   force =     0.00000000    0.00000000    0.00000000
     atom    5 type  1   force =     0.00000000    0.00000000    0.00000000
     atom    6 type  1   force =     0.00000000    0.00000000    0.00000000
     atom    7 type  2   force =     0.00000000    0.00000000    0.00000000
     atom    8 type  2   force =     0.00000000    0.00000000    0.00000000
     The SCF correction term to forces
     atom    1 type  1   force =     0.00000000   -0.00000000   -0.00000481
     atom    2 type  1   force =    -0.00000000    0.00000000   -0.00000481
     atom    3 type  1   force =    -0.00000000    0.00000000    0.00000481
     atom    4 type  1   force =     0.00000000   -0.00000000    0.00000481
     atom    5 type  1   force =    -0.00000000   -0.00000000    0.00000002
     atom    6 type  1   force =     0.00000000    0.00000000   -0.00000002
     atom    7 type  2   force =     0.00000000   -0.00000000   -0.00000003
     atom    8 type  2   force =    -0.00000000   -0.00000000    0.00000003

     Total force =     0.000080     Total SCF correction =     0.000010
     SCF correction compared to forces is large: reduce conv_thr to get better values


     Computing stress (Cartesian axis) and pressure

          total   stress  (Ry/bohr**3)                   (kbar)     P=      499.89
   0.00339821   0.00000000   0.00000000          499.89        0.00        0.00
   0.00000000   0.00339821   0.00000000            0.00      499.89        0.00
   0.00000000   0.00000000   0.00339814            0.00        0.00      499.88


     Writing all to output data dir ./output/SiLi.save/

     init_run     :      2.24s CPU      2.50s WALL (       2 calls)
     electrons    :    222.51s CPU    233.18s WALL (      20 calls)
     update_pot   :     12.43s CPU     12.83s WALL (      18 calls)
     forces       :     10.34s CPU     10.58s WALL (      20 calls)
     stress       :     56.85s CPU     59.32s WALL (      20 calls)

     Called by init_run:
     wfcinit      :      0.86s CPU      0.89s WALL (       2 calls)
     potinit      :      0.56s CPU      0.66s WALL (       2 calls)
     hinit0       :      0.74s CPU      0.78s WALL (       2 calls)

     Called by electrons:
     c_bands      :    200.45s CPU    209.50s WALL (     182 calls)
     sum_band     :     19.72s CPU     20.51s WALL (     182 calls)
     v_of_rho     :      2.15s CPU      2.65s WALL (     196 calls)
     mix_rho      :      0.28s CPU      0.38s WALL (     182 calls)

     Called by c_bands:
     init_us_2    :      5.73s CPU      6.49s WALL (   12180 calls)
     init_us_2:cp :      5.70s CPU      6.47s WALL (   12180 calls)
     cegterg      :    182.78s CPU    187.15s WALL (    5460 calls)

     Called by *egterg:
     cdiaghg      :     13.09s CPU     13.47s WALL (   27044 calls)
     h_psi        :    142.46s CPU    145.94s WALL (   27824 calls)
     g_psi        :      0.83s CPU      0.85s WALL (   22304 calls)

     Called by h_psi:
     h_psi:calbec :     24.03s CPU     24.54s WALL (   27824 calls)
     vloc_psi     :     99.37s CPU    102.03s WALL (   27824 calls)
     add_vuspsi   :     18.18s CPU     18.45s WALL (   27824 calls)

     General routines
     calbec       :     27.23s CPU     27.83s WALL (   30824 calls)
     fft          :      1.95s CPU      2.67s WALL (    2464 calls)
     ffts         :      0.09s CPU      0.18s WALL (     182 calls)
     fftw         :     98.61s CPU    101.14s WALL (  755722 calls)

     Parallel routines

     PWSCF        :   5m 4.81s CPU   5m20.19s WALL


   This run was terminated on:  15:10:34  29Dec2024            

=------------------------------------------------------------------------------=
   JOB DONE.
=------------------------------------------------------------------------------=
