
     Program PWSCF v.7.2 starts on 17Jan2025 at 13:46:12 

     This program is part of the open-source Quantum ESPRESSO suite
     for quantum simulation of materials; please cite
         "P. Giannozzi et al., J. Phys.:Condens. Matter 21 395502 (2009);
         "P. Giannozzi et al., J. Phys.:Condens. Matter 29 465901 (2017);
         "P. Giannozzi et al., J. Chem. Phys. 152 154105 (2020);
          URL http://www.quantum-espresso.org", 
     in publications or presentations arising from this work. More details at
     http://www.quantum-espresso.org/quote

     Parallel version (MPI & OpenMP), running on       8 processor cores
     Number of MPI processes:                 8
     Threads/MPI process:                     1

     MPI processes distributed on     1 nodes
     481610 MiB available memory on the printing compute node when the environment starts

     Waiting for input...
     Reading input from standard input

     Current dimensions of program PWSCF are:
     Max number of different atomic species (ntypx) = 10
     Max number of k-points (npk) =  40000
     Max angular momentum in pseudopotentials (lmaxx) =  4

     R & G space division:  proc/nbgrp/npool/nimage =       8
     Subspace diagonalization in iterative solution of the eigenvalue problem:
     a serial algorithm will be used


     Parallelization info
     --------------------
     sticks:   dense  smooth     PW     G-vecs:    dense   smooth      PW
     Min         103     103     31                 2049     2049     348
     Max         104     104     32                 2052     2052     350
     Sum         829     829    253                16409    16409    2789

     Using Slab Decomposition



     bravais-lattice index     =            6
     lattice parameter (alat)  =       5.1033  a.u.
     unit-cell volume          =     121.6647 (a.u.)^3
     number of atoms/cell      =            4
     number of atomic types    =            2
     number of electrons       =        13.00
     number of Kohn-Sham states=           11
     kinetic-energy cutoff     =     100.0000  Ry
     charge density cutoff     =     400.0000  Ry
     scf convergence threshold =      1.0E-08
     mixing beta               =       0.7000
     number of iterations used =            8  plain     mixing
     energy convergence thresh.=      1.0E-04
     force convergence thresh. =      1.0E-03
     press convergence thresh. =      5.0E-01
     Exchange-correlation= PBE
                           (   1   4   3   4   0   0   0)
     nstep                     =           50


     celldm(1)=   5.103333  celldm(2)=   0.000000  celldm(3)=   0.915383
     celldm(4)=   0.000000  celldm(5)=   0.000000  celldm(6)=   0.000000

     crystal axes: (cart. coord. in units of alat)
               a(1) = (   1.000000   0.000000   0.000000 )  
               a(2) = (   0.000000   1.000000   0.000000 )  
               a(3) = (   0.000000   0.000000   0.915383 )  

     reciprocal axes: (cart. coord. in units 2 pi/alat)
               b(1) = (  1.000000  0.000000  0.000000 )  
               b(2) = (  0.000000  1.000000  0.000000 )  
               b(3) = (  0.000000  0.000000  1.092439 )  


     PseudoPot. # 1 for Si read from file:
     ../pseudo/Si_ONCV_PBE_sr.upf
     MD5 check sum: e543d271109d17c80368dfa7c482276d
     Pseudo is Norm-conserving + core correction, Zval =  4.0
     Generated using ONCVPSP code by D. R. Hamann
     Using radial grid of 1510 points,  6 beta functions with: 
                l(1) =   0
                l(2) =   0
                l(3) =   1
                l(4) =   1
                l(5) =   2
                l(6) =   2

     PseudoPot. # 2 for Li read from file:
     ../pseudo/Li_ONCV_PBE_sr.upf
     MD5 check sum: 50ff420e78310ffa21704f3361e624a4
     Pseudo is Norm-conserving, Zval =  3.0
     Generated using ONCVPSP code by D. R. Hamann
     Using radial grid of 1944 points,  4 beta functions with: 
                l(1) =   0
                l(2) =   0
                l(3) =   1
                l(4) =   1

     atomic species   valence    mass     pseudopotential
        Si             4.00    28.08550     Si( 1.00)
        Li             3.00     6.94100     Li( 1.00)

     16 Sym. Ops., with inversion, found



   Cartesian axes

     site n.     atom                  positions (alat units)
         1           Si  tau(   1) = (   0.0000000   0.0000000   0.0000000  )
         2           Li  tau(   2) = (   0.0000000   0.5000000   0.4576914  )
         3           Li  tau(   3) = (   0.5000000   0.0000000   0.4576914  )
         4           Li  tau(   4) = (   0.5000000   0.5000000   0.0000000  )

     number of k points=   224  Marzari-Vanderbilt smearing, width (Ry)=  0.0200

     Number of k-points >= 100: set verbosity='high' to print them.

     Dense  grid:    16409 G-vectors     FFT dimensions: (  36,  36,  30)

     Estimated max dynamical RAM per process >      24.15 MB

     Estimated total dynamical RAM >     193.18 MB

     Initial potential from superposition of free atoms

     starting charge      12.9857, renormalised to      13.0000
     Starting wfcs are   10 randomized atomic wfcs +    1 random wfcs

     total cpu time spent up to now is        1.0 secs

     Self-consistent Calculation

     iteration #  1     ecut=   100.00 Ry     beta= 0.70
     Davidson diagonalization with overlap
     ethr =  1.00E-02,  avg # of iterations =  5.8

     Threshold (ethr) on eigenvalues was too large:
     Diagonalizing with lowered threshold

     Davidson diagonalization with overlap
     ethr =  1.68E-04,  avg # of iterations =  2.4

     total cpu time spent up to now is        4.2 secs

     total energy              =     -50.38340538 Ry
     estimated scf accuracy    <       0.02157047 Ry

     iteration #  2     ecut=   100.00 Ry     beta= 0.70
     Davidson diagonalization with overlap
     ethr =  1.66E-04,  avg # of iterations =  1.1

     total cpu time spent up to now is        5.2 secs

     total energy              =     -50.38401680 Ry
     estimated scf accuracy    <       0.00151291 Ry

     iteration #  3     ecut=   100.00 Ry     beta= 0.70
     Davidson diagonalization with overlap
     ethr =  1.16E-05,  avg # of iterations =  2.6

     total cpu time spent up to now is        6.4 secs

     total energy              =     -50.38407458 Ry
     estimated scf accuracy    <       0.00002559 Ry

     iteration #  4     ecut=   100.00 Ry     beta= 0.70
     Davidson diagonalization with overlap
     ethr =  1.97E-07,  avg # of iterations =  2.7

     total cpu time spent up to now is        7.7 secs

     total energy              =     -50.38407716 Ry
     estimated scf accuracy    <       0.00000095 Ry

     iteration #  5     ecut=   100.00 Ry     beta= 0.70
     Davidson diagonalization with overlap
     ethr =  7.32E-09,  avg # of iterations =  1.9

     total cpu time spent up to now is        8.8 secs

     End of self-consistent calculation

     Number of k-points >= 100: set verbosity='high' to print the bands.

     the Fermi energy is    16.3776 ev

!    total energy              =     -50.38407723 Ry
     estimated scf accuracy    <          2.4E-09 Ry
     smearing contrib. (-TS)   =      -0.00003222 Ry
     internal energy E=F+TS    =     -50.38404501 Ry

     The total energy is F=E-TS. E is the sum of the following terms:
     one-electron contribution =      -3.35754469 Ry
     hartree contribution      =       7.28536404 Ry
     xc contribution           =     -14.88164567 Ry
     ewald contribution        =     -39.43021869 Ry

     convergence has been achieved in   5 iterations

     Forces acting on atoms (cartesian axes, Ry/au):

     atom    1 type  1   force =     0.00000000    0.00000000    0.00000000
     atom    2 type  2   force =     0.00000000    0.00000000    0.00000000
     atom    3 type  2   force =     0.00000000    0.00000000    0.00000000
     atom    4 type  2   force =     0.00000000    0.00000000    0.00000000
     The non-local contrib.  to forces
     atom    1 type  1   force =     0.00000000    0.00000000    0.00000000
     atom    2 type  2   force =     0.00000000    0.00000000    0.00000000
     atom    3 type  2   force =     0.00000000    0.00000000    0.00000000
     atom    4 type  2   force =     0.00000000    0.00000000    0.00000000
     The ionic contribution  to forces
     atom    1 type  1   force =    -0.00000000   -0.00000000   -0.00000000
     atom    2 type  2   force =    -0.00000000   -0.00000000    0.00000000
     atom    3 type  2   force =    -0.00000000   -0.00000000    0.00000000
     atom    4 type  2   force =     0.00000000    0.00000000   -0.00000000
     The local contribution  to forces
     atom    1 type  1   force =    -0.00000000   -0.00000000    0.00000000
     atom    2 type  2   force =     0.00000000    0.00000000   -0.00000000
     atom    3 type  2   force =     0.00000000    0.00000000   -0.00000000
     atom    4 type  2   force =     0.00000000    0.00000000    0.00000000
     The core correction contribution to forces
     atom    1 type  1   force =     0.00000000    0.00000000   -0.00000000
     atom    2 type  2   force =     0.00000000    0.00000000    0.00000000
     atom    3 type  2   force =     0.00000000    0.00000000    0.00000000
     atom    4 type  2   force =     0.00000000    0.00000000    0.00000000
     The Hubbard contrib.    to forces
     atom    1 type  1   force =     0.00000000    0.00000000    0.00000000
     atom    2 type  2   force =     0.00000000    0.00000000    0.00000000
     atom    3 type  2   force =     0.00000000    0.00000000    0.00000000
     atom    4 type  2   force =     0.00000000    0.00000000    0.00000000
     The SCF correction term to forces
     atom    1 type  1   force =     0.00000000    0.00000000    0.00000000
     atom    2 type  2   force =     0.00000000   -0.00000000   -0.00000000
     atom    3 type  2   force =     0.00000000   -0.00000000   -0.00000000
     atom    4 type  2   force =     0.00000000   -0.00000000   -0.00000000

     Total force =     0.000000     Total SCF correction =     0.000000


     Computing stress (Cartesian axis) and pressure

          total   stress  (Ry/bohr**3)                   (kbar)     P=     3593.58
   0.02512643   0.00000000   0.00000000         3696.23        0.00        0.00
   0.00000000   0.02512643   0.00000000            0.00     3696.23        0.00
   0.00000000   0.00000000   0.02303314            0.00        0.00     3388.29


     BFGS Geometry Optimization
     Energy error            =      0.0E+00 Ry
     Gradient error          =      0.0E+00 Ry/Bohr
     Cell gradient error     =      3.2E+03 kbar

     number of scf cycles    =   1
     number of bfgs steps    =   0

     enthalpy           new  =     -49.9705474672 Ry

     new trust radius        =       0.5000000000 bohr
ibrav =      6
 celldm(1) =      6.26000895
 celldm(3) =      0.89908758
Input lattice vectors:
     1.22665108     0.00000000     0.00000000
     0.00000000     1.22665108     0.00000000
     0.00000000     0.00000000     1.10286675
New lattice vectors in INITIAL alat:
     1.22665108     0.00000000     0.00000000
     0.00000000     1.22665108     0.00000000
     0.00000000     0.00000000     1.10286675
New lattice vectors in NEW alat (for information only):
     1.00000000     0.00000000     0.00000000
     0.00000000     1.00000000     0.00000000
     0.00000000     0.00000000     0.89908758
Discrepancy in bohr =     0.000000    0.000000    0.000000
     new conv_thr            =       0.0000000100 Ry

     new unit-cell volume =    220.56005 a.u.^3 (    32.68363 Ang^3 )
     density =      2.48487 g/cm^3

CELL_PARAMETERS (alat=  5.10333302)
   1.226651078   0.000000000   0.000000000
   0.000000000   1.226651078   0.000000000
   0.000000000   0.000000000   1.102866752

ATOMIC_POSITIONS (crystal)
Si            0.0000000000        0.0000000000        0.0000000000
Li            0.0000000000        0.5000000000        0.5000000000
Li            0.5000000000        0.0000000000        0.5000000000
Li            0.5000000000        0.5000000000        0.0000000000



     Writing config-only to output data dir ./output/SiLi.save/
     NEW-OLD atomic charge density approx. for the potential
     extrapolated charge   18.82257, renormalised to   13.00000

     total cpu time spent up to now is       10.5 secs

     Self-consistent Calculation

     iteration #  1     ecut=   100.00 Ry     beta= 0.70
     Davidson diagonalization with overlap
     c_bands:  1 eigenvalues not converged
     ethr =  1.00E-06,  avg # of iterations = 10.0

     total cpu time spent up to now is       14.1 secs

     total energy              =     -50.95267992 Ry
     estimated scf accuracy    <       0.26910314 Ry

     iteration #  2     ecut=   100.00 Ry     beta= 0.70
     Davidson diagonalization with overlap
     ethr =  2.07E-03,  avg # of iterations =  2.3

     total cpu time spent up to now is       15.6 secs

     total energy              =     -51.48892786 Ry
     estimated scf accuracy    <       0.37375018 Ry

     iteration #  3     ecut=   100.00 Ry     beta= 0.70
     Davidson diagonalization with overlap
     ethr =  2.07E-03,  avg # of iterations =  1.0

     total cpu time spent up to now is       16.7 secs

     total energy              =     -51.47774902 Ry
     estimated scf accuracy    <       0.08367942 Ry

     iteration #  4     ecut=   100.00 Ry     beta= 0.70
     Davidson diagonalization with overlap
     ethr =  6.44E-04,  avg # of iterations =  1.1

     total cpu time spent up to now is       17.9 secs

     total energy              =     -51.46347649 Ry
     estimated scf accuracy    <       0.02526184 Ry

     iteration #  5     ecut=   100.00 Ry     beta= 0.70
     Davidson diagonalization with overlap
     ethr =  1.94E-04,  avg # of iterations =  2.0

     total cpu time spent up to now is       19.2 secs

     total energy              =     -51.46907359 Ry
     estimated scf accuracy    <       0.00579995 Ry

     iteration #  6     ecut=   100.00 Ry     beta= 0.70
     Davidson diagonalization with overlap
     ethr =  4.46E-05,  avg # of iterations =  1.2

     total cpu time spent up to now is       20.4 secs

     total energy              =     -51.46969958 Ry
     estimated scf accuracy    <       0.00011643 Ry

     iteration #  7     ecut=   100.00 Ry     beta= 0.70
     Davidson diagonalization with overlap
     ethr =  8.96E-07,  avg # of iterations =  2.9

     total cpu time spent up to now is       21.8 secs

     total energy              =     -51.46973287 Ry
     estimated scf accuracy    <       0.00000256 Ry

     iteration #  8     ecut=   100.00 Ry     beta= 0.70
     Davidson diagonalization with overlap
     ethr =  1.97E-08,  avg # of iterations =  2.1

     total cpu time spent up to now is       23.1 secs

     total energy              =     -51.46973360 Ry
     estimated scf accuracy    <       0.00000020 Ry

     iteration #  9     ecut=   100.00 Ry     beta= 0.70
     Davidson diagonalization with overlap
     ethr =  1.53E-09,  avg # of iterations =  2.1

     total cpu time spent up to now is       24.4 secs

     End of self-consistent calculation

     Number of k-points >= 100: set verbosity='high' to print the bands.

     the Fermi energy is     8.4648 ev

!    total energy              =     -51.46973364 Ry
     estimated scf accuracy    <          4.7E-10 Ry
     smearing contrib. (-TS)   =       0.00020412 Ry
     internal energy E=F+TS    =     -51.46993776 Ry

     The total energy is F=E-TS. E is the sum of the following terms:
     one-electron contribution =     -13.75729826 Ry
     hartree contribution      =       8.49280416 Ry
     xc contribution           =     -13.86882559 Ry
     ewald contribution        =     -32.33661807 Ry

     convergence has been achieved in   9 iterations

     Forces acting on atoms (cartesian axes, Ry/au):

     atom    1 type  1   force =     0.00000000    0.00000000    0.00000000
     atom    2 type  2   force =     0.00000000    0.00000000    0.00000000
     atom    3 type  2   force =     0.00000000    0.00000000    0.00000000
     atom    4 type  2   force =     0.00000000    0.00000000    0.00000000
     The non-local contrib.  to forces
     atom    1 type  1   force =     0.00000000    0.00000000    0.00000000
     atom    2 type  2   force =     0.00000000    0.00000000    0.00000000
     atom    3 type  2   force =     0.00000000    0.00000000    0.00000000
     atom    4 type  2   force =     0.00000000    0.00000000    0.00000000
     The ionic contribution  to forces
     atom    1 type  1   force =    -0.00000000   -0.00000000   -0.00000000
     atom    2 type  2   force =    -0.00000000   -0.00000000    0.00000000
     atom    3 type  2   force =    -0.00000000   -0.00000000    0.00000000
     atom    4 type  2   force =     0.00000000    0.00000000   -0.00000000
     The local contribution  to forces
     atom    1 type  1   force =    -0.00000000    0.00000000   -0.00000000
     atom    2 type  2   force =     0.00000000    0.00000000   -0.00000000
     atom    3 type  2   force =     0.00000000    0.00000000   -0.00000000
     atom    4 type  2   force =     0.00000000    0.00000000   -0.00000000
     The core correction contribution to forces
     atom    1 type  1   force =     0.00000000   -0.00000000    0.00000000
     atom    2 type  2   force =     0.00000000    0.00000000    0.00000000
     atom    3 type  2   force =     0.00000000    0.00000000    0.00000000
     atom    4 type  2   force =     0.00000000    0.00000000    0.00000000
     The Hubbard contrib.    to forces
     atom    1 type  1   force =     0.00000000    0.00000000    0.00000000
     atom    2 type  2   force =     0.00000000    0.00000000    0.00000000
     atom    3 type  2   force =     0.00000000    0.00000000    0.00000000
     atom    4 type  2   force =     0.00000000    0.00000000    0.00000000
     The SCF correction term to forces
     atom    1 type  1   force =    -0.00000000   -0.00000000   -0.00000000
     atom    2 type  2   force =    -0.00000000    0.00000000    0.00000000
     atom    3 type  2   force =     0.00000000    0.00000000   -0.00000000
     atom    4 type  2   force =    -0.00000000    0.00000000   -0.00000000

     Total force =     0.000000     Total SCF correction =     0.000000


     Computing stress (Cartesian axis) and pressure

          total   stress  (Ry/bohr**3)                   (kbar)     P=      615.62
   0.00443848   0.00000000   0.00000000          652.92        0.00        0.00
   0.00000000   0.00443848   0.00000000            0.00      652.92        0.00
   0.00000000   0.00000000   0.00367778            0.00        0.00      541.02

     Energy error            =      7.5E-01 Ry
     Gradient error          =      0.0E+00 Ry/Bohr
     Cell gradient error     =      1.5E+02 kbar

     number of scf cycles    =   2
     number of bfgs steps    =   1

     enthalpy           old  =     -49.9705474672 Ry
     enthalpy           new  =     -50.7200652452 Ry

     CASE: enthalpy          _new < enthalpy          _old

     new trust radius        =       0.0534860589 bohr
ibrav =      6
 celldm(1) =      6.37273444
 celldm(3) =      0.87900146
Input lattice vectors:
     1.24873968     0.00000000     0.00000000
     0.00000000     1.24873968     0.00000000
     0.00000000     0.00000000     1.09764400
New lattice vectors in INITIAL alat:
     1.24873968     0.00000000     0.00000000
     0.00000000     1.24873968     0.00000000
     0.00000000     0.00000000     1.09764400
New lattice vectors in NEW alat (for information only):
     1.00000000     0.00000000     0.00000000
     0.00000000     1.00000000     0.00000000
     0.00000000     0.00000000     0.87900146
Discrepancy in bohr =     0.000000    0.000000    0.000000
     new conv_thr            =            1.0E-10 Ry

     new unit-cell volume =    227.49249 a.u.^3 (    33.71091 Ang^3 )
     density =      2.40915 g/cm^3

CELL_PARAMETERS (alat=  5.10333302)
   1.248739680   0.000000000   0.000000000
   0.000000000   1.248739680   0.000000000
   0.000000000   0.000000000   1.097644000

ATOMIC_POSITIONS (crystal)
Si            0.0000000000        0.0000000000        0.0000000000
Li            0.0000000000        0.5000000000        0.5000000000
Li            0.5000000000        0.0000000000        0.5000000000
Li            0.5000000000        0.5000000000        0.0000000000



     Writing config-only to output data dir ./output/SiLi.save/
     NEW-OLD atomic charge density approx. for the potential
     extrapolated charge   13.39572, renormalised to   13.00000

     total cpu time spent up to now is       26.0 secs

     Self-consistent Calculation

     iteration #  1     ecut=   100.00 Ry     beta= 0.70
     Davidson diagonalization with overlap
     ethr =  1.00E-06,  avg # of iterations =  6.2

     total cpu time spent up to now is       28.4 secs

     total energy              =     -51.49777627 Ry
     estimated scf accuracy    <       0.00085874 Ry

     iteration #  2     ecut=   100.00 Ry     beta= 0.70
     Davidson diagonalization with overlap
     ethr =  6.61E-06,  avg # of iterations =  2.1

     total cpu time spent up to now is       29.9 secs

     total energy              =     -51.49980313 Ry
     estimated scf accuracy    <       0.00100155 Ry

     iteration #  3     ecut=   100.00 Ry     beta= 0.70
     Davidson diagonalization with overlap
     ethr =  6.61E-06,  avg # of iterations =  1.0

     total cpu time spent up to now is       30.9 secs

     total energy              =     -51.49983587 Ry
     estimated scf accuracy    <       0.00014898 Ry

     iteration #  4     ecut=   100.00 Ry     beta= 0.70
     Davidson diagonalization with overlap
     ethr =  1.15E-06,  avg # of iterations =  1.1

     total cpu time spent up to now is       32.0 secs

     total energy              =     -51.49979485 Ry
     estimated scf accuracy    <       0.00006865 Ry

     iteration #  5     ecut=   100.00 Ry     beta= 0.70
     Davidson diagonalization with overlap
     ethr =  5.28E-07,  avg # of iterations =  2.0

     total cpu time spent up to now is       33.1 secs

     total energy              =     -51.49980655 Ry
     estimated scf accuracy    <       0.00000033 Ry

     iteration #  6     ecut=   100.00 Ry     beta= 0.70
     Davidson diagonalization with overlap
     ethr =  2.51E-09,  avg # of iterations =  2.7

     total cpu time spent up to now is       34.5 secs

     total energy              =     -51.49980669 Ry
     estimated scf accuracy    <       0.00000003 Ry

     iteration #  7     ecut=   100.00 Ry     beta= 0.70
     Davidson diagonalization with overlap
     ethr =  2.00E-10,  avg # of iterations =  2.0

     total cpu time spent up to now is       35.8 secs

     total energy              =     -51.49980669 Ry
     estimated scf accuracy    <       0.00000004 Ry

     iteration #  8     ecut=   100.00 Ry     beta= 0.70
     Davidson diagonalization with overlap
     ethr =  2.00E-10,  avg # of iterations =  2.0

     total cpu time spent up to now is       37.0 secs

     total energy              =     -51.49980669 Ry
     estimated scf accuracy    <          1.2E-10 Ry

     iteration #  9     ecut=   100.00 Ry     beta= 0.70
     Davidson diagonalization with overlap
     ethr =  9.32E-13,  avg # of iterations =  2.9

     total cpu time spent up to now is       38.4 secs

     End of self-consistent calculation

     Number of k-points >= 100: set verbosity='high' to print the bands.

     the Fermi energy is     8.1427 ev

!    total energy              =     -51.49980670 Ry
     estimated scf accuracy    <          1.8E-11 Ry
     smearing contrib. (-TS)   =       0.00025583 Ry
     internal energy E=F+TS    =     -51.50006252 Ry

     The total energy is F=E-TS. E is the sum of the following terms:
     one-electron contribution =     -14.22914630 Ry
     hartree contribution      =       8.55949379 Ry
     xc contribution           =     -13.82691818 Ry
     ewald contribution        =     -32.00349183 Ry

     convergence has been achieved in   9 iterations

     Forces acting on atoms (cartesian axes, Ry/au):

     atom    1 type  1   force =     0.00000000    0.00000000    0.00000000
     atom    2 type  2   force =     0.00000000    0.00000000    0.00000000
     atom    3 type  2   force =     0.00000000    0.00000000    0.00000000
     atom    4 type  2   force =     0.00000000    0.00000000    0.00000000
     The non-local contrib.  to forces
     atom    1 type  1   force =     0.00000000    0.00000000    0.00000000
     atom    2 type  2   force =     0.00000000    0.00000000    0.00000000
     atom    3 type  2   force =     0.00000000    0.00000000    0.00000000
     atom    4 type  2   force =     0.00000000    0.00000000    0.00000000
     The ionic contribution  to forces
     atom    1 type  1   force =    -0.00000000   -0.00000000   -0.00000000
     atom    2 type  2   force =    -0.00000000   -0.00000000    0.00000000
     atom    3 type  2   force =    -0.00000000   -0.00000000    0.00000000
     atom    4 type  2   force =     0.00000000    0.00000000   -0.00000000
     The local contribution  to forces
     atom    1 type  1   force =     0.00000000   -0.00000000    0.00000000
     atom    2 type  2   force =     0.00000000    0.00000000   -0.00000000
     atom    3 type  2   force =     0.00000000    0.00000000   -0.00000000
     atom    4 type  2   force =     0.00000000    0.00000000    0.00000000
     The core correction contribution to forces
     atom    1 type  1   force =     0.00000000   -0.00000000    0.00000000
     atom    2 type  2   force =     0.00000000    0.00000000    0.00000000
     atom    3 type  2   force =     0.00000000    0.00000000    0.00000000
     atom    4 type  2   force =     0.00000000    0.00000000    0.00000000
     The Hubbard contrib.    to forces
     atom    1 type  1   force =     0.00000000    0.00000000    0.00000000
     atom    2 type  2   force =     0.00000000    0.00000000    0.00000000
     atom    3 type  2   force =     0.00000000    0.00000000    0.00000000
     atom    4 type  2   force =     0.00000000    0.00000000    0.00000000
     The SCF correction term to forces
     atom    1 type  1   force =    -0.00000000   -0.00000000   -0.00000000
     atom    2 type  2   force =    -0.00000000   -0.00000000    0.00000000
     atom    3 type  2   force =     0.00000000    0.00000000    0.00000000
     atom    4 type  2   force =    -0.00000000    0.00000000    0.00000000

     Total force =     0.000000     Total SCF correction =     0.000000


     Computing stress (Cartesian axis) and pressure

          total   stress  (Ry/bohr**3)                   (kbar)     P=      548.52
   0.00399766   0.00000000   0.00000000          588.08        0.00        0.00
   0.00000000   0.00399766   0.00000000            0.00      588.08        0.00
   0.00000000   0.00000000   0.00319103            0.00        0.00      469.42

     Energy error            =      6.5E-03 Ry
     Gradient error          =      0.0E+00 Ry/Bohr
     Cell gradient error     =      8.8E+01 kbar

     number of scf cycles    =   3
     number of bfgs steps    =   2

     enthalpy           old  =     -50.7200652452 Ry
     enthalpy           new  =     -50.7265754465 Ry

     CASE: enthalpy          _new < enthalpy          _old

     new trust radius        =       0.0800388958 bohr
ibrav =      6
 celldm(1) =      6.54182267
 celldm(3) =      0.83811372
Input lattice vectors:
     1.28187258     0.00000000     0.00000000
     0.00000000     1.28187258     0.00000000
     0.00000000     0.00000000     1.07435500
New lattice vectors in INITIAL alat:
     1.28187258     0.00000000     0.00000000
     0.00000000     1.28187258     0.00000000
     0.00000000     0.00000000     1.07435500
New lattice vectors in NEW alat (for information only):
     1.00000000     0.00000000     0.00000000
     0.00000000     1.00000000     0.00000000
     0.00000000     0.00000000     0.83811372
Discrepancy in bohr =     0.000000    0.000000    0.000000
     new conv_thr            =            1.0E-10 Ry

     new unit-cell volume =    234.63849 a.u.^3 (    34.76984 Ang^3 )
     density =      2.33577 g/cm^3

CELL_PARAMETERS (alat=  5.10333302)
   1.281872582   0.000000000   0.000000000
   0.000000000   1.281872582   0.000000000
   0.000000000   0.000000000   1.074355001

ATOMIC_POSITIONS (crystal)
Si            0.0000000000        0.0000000000        0.0000000000
Li            0.0000000000        0.5000000000        0.5000000000
Li            0.5000000000        0.0000000000        0.5000000000
Li            0.5000000000        0.5000000000        0.0000000000



     Writing config-only to output data dir ./output/SiLi.save/
     NEW-OLD atomic charge density approx. for the potential
     extrapolated charge   13.39548, renormalised to   13.00000

     total cpu time spent up to now is       40.0 secs

     Self-consistent Calculation

     iteration #  1     ecut=   100.00 Ry     beta= 0.70
     Davidson diagonalization with overlap
     ethr =  1.00E-06,  avg # of iterations =  7.0

     total cpu time spent up to now is       42.5 secs

     total energy              =     -51.52830681 Ry
     estimated scf accuracy    <       0.00117155 Ry

     iteration #  2     ecut=   100.00 Ry     beta= 0.70
     Davidson diagonalization with overlap
     ethr =  9.01E-06,  avg # of iterations =  2.0

     total cpu time spent up to now is       43.9 secs

     total energy              =     -51.53043358 Ry
     estimated scf accuracy    <       0.00118677 Ry

     iteration #  3     ecut=   100.00 Ry     beta= 0.70
     Davidson diagonalization with overlap
     ethr =  9.01E-06,  avg # of iterations =  1.0

     total cpu time spent up to now is       44.9 secs

     total energy              =     -51.53049395 Ry
     estimated scf accuracy    <       0.00014029 Ry

     iteration #  4     ecut=   100.00 Ry     beta= 0.70
     Davidson diagonalization with overlap
     ethr =  1.08E-06,  avg # of iterations =  1.1

     total cpu time spent up to now is       46.0 secs

     total energy              =     -51.53045985 Ry
     estimated scf accuracy    <       0.00005932 Ry

     iteration #  5     ecut=   100.00 Ry     beta= 0.70
     Davidson diagonalization with overlap
     ethr =  4.56E-07,  avg # of iterations =  2.0

     total cpu time spent up to now is       47.2 secs

     total energy              =     -51.53047023 Ry
     estimated scf accuracy    <       0.00000042 Ry

     iteration #  6     ecut=   100.00 Ry     beta= 0.70
     Davidson diagonalization with overlap
     ethr =  3.24E-09,  avg # of iterations =  2.5

     total cpu time spent up to now is       48.5 secs

     total energy              =     -51.53047037 Ry
     estimated scf accuracy    <       0.00000003 Ry

     iteration #  7     ecut=   100.00 Ry     beta= 0.70
     Davidson diagonalization with overlap
     ethr =  2.47E-10,  avg # of iterations =  2.1

     total cpu time spent up to now is       49.7 secs

     total energy              =     -51.53047037 Ry
     estimated scf accuracy    <       0.00000003 Ry

     iteration #  8     ecut=   100.00 Ry     beta= 0.70
     Davidson diagonalization with overlap
     ethr =  2.47E-10,  avg # of iterations =  2.0

     total cpu time spent up to now is       50.9 secs

     total energy              =     -51.53047037 Ry
     estimated scf accuracy    <          1.0E-10 Ry

     iteration #  9     ecut=   100.00 Ry     beta= 0.70
     Davidson diagonalization with overlap
     ethr =  8.06E-13,  avg # of iterations =  3.2

     total cpu time spent up to now is       52.3 secs

     End of self-consistent calculation

     Number of k-points >= 100: set verbosity='high' to print the bands.

     the Fermi energy is     7.8149 ev

!    total energy              =     -51.53047037 Ry
     estimated scf accuracy    <          8.1E-13 Ry
     smearing contrib. (-TS)   =       0.00059875 Ry
     internal energy E=F+TS    =     -51.53106913 Ry

     The total energy is F=E-TS. E is the sum of the following terms:
     one-electron contribution =     -14.69667610 Ry
     hartree contribution      =       8.62552471 Ry
     xc contribution           =     -13.78704680 Ry
     ewald contribution        =     -31.67287095 Ry

     convergence has been achieved in   9 iterations

     Forces acting on atoms (cartesian axes, Ry/au):

     atom    1 type  1   force =     0.00000000    0.00000000    0.00000000
     atom    2 type  2   force =     0.00000000    0.00000000    0.00000000
     atom    3 type  2   force =     0.00000000    0.00000000    0.00000000
     atom    4 type  2   force =     0.00000000    0.00000000    0.00000000
     The non-local contrib.  to forces
     atom    1 type  1   force =     0.00000000    0.00000000    0.00000000
     atom    2 type  2   force =     0.00000000    0.00000000    0.00000000
     atom    3 type  2   force =     0.00000000    0.00000000    0.00000000
     atom    4 type  2   force =     0.00000000    0.00000000    0.00000000
     The ionic contribution  to forces
     atom    1 type  1   force =    -0.00000000   -0.00000000   -0.00000000
     atom    2 type  2   force =    -0.00000000    0.00000000    0.00000000
     atom    3 type  2   force =     0.00000000   -0.00000000    0.00000000
     atom    4 type  2   force =     0.00000000   -0.00000000   -0.00000000
     The local contribution  to forces
     atom    1 type  1   force =    -0.00000000   -0.00000000    0.00000000
     atom    2 type  2   force =     0.00000000    0.00000000   -0.00000000
     atom    3 type  2   force =     0.00000000    0.00000000   -0.00000000
     atom    4 type  2   force =     0.00000000    0.00000000    0.00000000
     The core correction contribution to forces
     atom    1 type  1   force =     0.00000000   -0.00000000    0.00000000
     atom    2 type  2   force =     0.00000000    0.00000000    0.00000000
     atom    3 type  2   force =     0.00000000    0.00000000    0.00000000
     atom    4 type  2   force =     0.00000000    0.00000000    0.00000000
     The Hubbard contrib.    to forces
     atom    1 type  1   force =     0.00000000    0.00000000    0.00000000
     atom    2 type  2   force =     0.00000000    0.00000000    0.00000000
     atom    3 type  2   force =     0.00000000    0.00000000    0.00000000
     atom    4 type  2   force =     0.00000000    0.00000000    0.00000000
     The SCF correction term to forces
     atom    1 type  1   force =    -0.00000000    0.00000000   -0.00000000
     atom    2 type  2   force =    -0.00000000    0.00000000   -0.00000000
     atom    3 type  2   force =     0.00000000   -0.00000000   -0.00000000
     atom    4 type  2   force =    -0.00000000   -0.00000000    0.00000000

     Total force =     0.000000     Total SCF correction =     0.000000


     Computing stress (Cartesian axis) and pressure

          total   stress  (Ry/bohr**3)                   (kbar)     P=      481.84
   0.00351337   0.00000000   0.00000000          516.83        0.00        0.00
   0.00000000   0.00351337   0.00000000            0.00      516.83        0.00
   0.00000000   0.00000000   0.00279972            0.00        0.00      411.85

     Energy error            =      6.4E-03 Ry
     Gradient error          =      0.0E+00 Ry/Bohr
     Cell gradient error     =      8.8E+01 kbar

     number of scf cycles    =   4
     number of bfgs steps    =   3

     enthalpy           old  =     -50.7265754465 Ry
     enthalpy           new  =     -50.7329503582 Ry

     CASE: enthalpy          _new < enthalpy          _old

     new trust radius        =       0.1187778607 bohr
ibrav =      6
 celldm(1) =      6.73724633
 celldm(3) =      0.78225114
Input lattice vectors:
     1.32016592     0.00000000     0.00000000
     0.00000000     1.32016592     0.00000000
     0.00000000     0.00000000     1.03270129
New lattice vectors in INITIAL alat:
     1.32016592     0.00000000     0.00000000
     0.00000000     1.32016592     0.00000000
     0.00000000     0.00000000     1.03270129
New lattice vectors in NEW alat (for information only):
     1.00000000     0.00000000     0.00000000
     0.00000000     1.00000000     0.00000000
     0.00000000     0.00000000     0.78225114
Discrepancy in bohr =     0.000000    0.000000    0.000000
     new conv_thr            =            1.0E-10 Ry

     new unit-cell volume =    239.21779 a.u.^3 (    35.44842 Ang^3 )
     density =      2.29106 g/cm^3

CELL_PARAMETERS (alat=  5.10333302)
   1.320165920   0.000000000   0.000000000
   0.000000000   1.320165920   0.000000000
   0.000000000   0.000000000   1.032701292

ATOMIC_POSITIONS (crystal)
Si            0.0000000000        0.0000000000        0.0000000000
Li            0.0000000000        0.5000000000        0.5000000000
Li            0.5000000000        0.0000000000        0.5000000000
Li            0.5000000000        0.5000000000        0.0000000000



     Writing config-only to output data dir ./output/SiLi.save/
     NEW-OLD atomic charge density approx. for the potential
     extrapolated charge   13.24858, renormalised to   13.00000

     total cpu time spent up to now is       53.9 secs

     Self-consistent Calculation

     iteration #  1     ecut=   100.00 Ry     beta= 0.70
     Davidson diagonalization with overlap
     ethr =  1.00E-06,  avg # of iterations =  7.6

     total cpu time spent up to now is       56.5 secs

     total energy              =     -51.55114819 Ry
     estimated scf accuracy    <       0.00056839 Ry

     iteration #  2     ecut=   100.00 Ry     beta= 0.70
     Davidson diagonalization with overlap
     ethr =  4.37E-06,  avg # of iterations =  2.0

     total cpu time spent up to now is       57.9 secs

     total energy              =     -51.55196522 Ry
     estimated scf accuracy    <       0.00042458 Ry

     iteration #  3     ecut=   100.00 Ry     beta= 0.70
     Davidson diagonalization with overlap
     ethr =  3.27E-06,  avg # of iterations =  1.0

     total cpu time spent up to now is       58.9 secs

     total energy              =     -51.55199516 Ry
     estimated scf accuracy    <       0.00003770 Ry

     iteration #  4     ecut=   100.00 Ry     beta= 0.70
     Davidson diagonalization with overlap
     ethr =  2.90E-07,  avg # of iterations =  1.0

     total cpu time spent up to now is       60.0 secs

     total energy              =     -51.55199193 Ry
     estimated scf accuracy    <       0.00000832 Ry

     iteration #  5     ecut=   100.00 Ry     beta= 0.70
     Davidson diagonalization with overlap
     ethr =  6.40E-08,  avg # of iterations =  2.0

     total cpu time spent up to now is       61.2 secs

     total energy              =     -51.55199355 Ry
     estimated scf accuracy    <       0.00000025 Ry

     iteration #  6     ecut=   100.00 Ry     beta= 0.70
     Davidson diagonalization with overlap
     ethr =  1.90E-09,  avg # of iterations =  1.9

     total cpu time spent up to now is       62.3 secs

     total energy              =     -51.55199358 Ry
     estimated scf accuracy    <       0.00000002 Ry

     iteration #  7     ecut=   100.00 Ry     beta= 0.70
     Davidson diagonalization with overlap
     ethr =  1.17E-10,  avg # of iterations =  2.1

     total cpu time spent up to now is       63.5 secs

     total energy              =     -51.55199358 Ry
     estimated scf accuracy    <          3.5E-09 Ry

     iteration #  8     ecut=   100.00 Ry     beta= 0.70
     Davidson diagonalization with overlap
     ethr =  2.71E-11,  avg # of iterations =  2.0

     total cpu time spent up to now is       64.7 secs

     End of self-consistent calculation

     Number of k-points >= 100: set verbosity='high' to print the bands.

     the Fermi energy is     7.7161 ev

!    total energy              =     -51.55199358 Ry
     estimated scf accuracy    <          9.3E-12 Ry
     smearing contrib. (-TS)   =       0.00019649 Ry
     internal energy E=F+TS    =     -51.55219007 Ry

     The total energy is F=E-TS. E is the sum of the following terms:
     one-electron contribution =     -14.98374748 Ry
     hartree contribution      =       8.66207299 Ry
     xc contribution           =     -13.76379149 Ry
     ewald contribution        =     -31.46672409 Ry

     convergence has been achieved in   8 iterations

     Forces acting on atoms (cartesian axes, Ry/au):

     atom    1 type  1   force =     0.00000000    0.00000000    0.00000000
     atom    2 type  2   force =     0.00000000    0.00000000    0.00000000
     atom    3 type  2   force =     0.00000000    0.00000000    0.00000000
     atom    4 type  2   force =     0.00000000    0.00000000    0.00000000
     The non-local contrib.  to forces
     atom    1 type  1   force =     0.00000000    0.00000000    0.00000000
     atom    2 type  2   force =     0.00000000    0.00000000    0.00000000
     atom    3 type  2   force =     0.00000000    0.00000000    0.00000000
     atom    4 type  2   force =     0.00000000    0.00000000    0.00000000
     The ionic contribution  to forces
     atom    1 type  1   force =    -0.00000000   -0.00000000   -0.00000000
     atom    2 type  2   force =    -0.00000000    0.00000000    0.00000000
     atom    3 type  2   force =     0.00000000   -0.00000000    0.00000000
     atom    4 type  2   force =     0.00000000   -0.00000000   -0.00000000
     The local contribution  to forces
     atom    1 type  1   force =    -0.00000000   -0.00000000   -0.00000000
     atom    2 type  2   force =     0.00000000    0.00000000    0.00000000
     atom    3 type  2   force =     0.00000000    0.00000000    0.00000000
     atom    4 type  2   force =    -0.00000000    0.00000000    0.00000000
     The core correction contribution to forces
     atom    1 type  1   force =     0.00000000   -0.00000000   -0.00000000
     atom    2 type  2   force =     0.00000000    0.00000000    0.00000000
     atom    3 type  2   force =     0.00000000    0.00000000    0.00000000
     atom    4 type  2   force =     0.00000000    0.00000000    0.00000000
     The Hubbard contrib.    to forces
     atom    1 type  1   force =     0.00000000    0.00000000    0.00000000
     atom    2 type  2   force =     0.00000000    0.00000000    0.00000000
     atom    3 type  2   force =     0.00000000    0.00000000    0.00000000
     atom    4 type  2   force =     0.00000000    0.00000000    0.00000000
     The SCF correction term to forces
     atom    1 type  1   force =    -0.00000000   -0.00000000    0.00000000
     atom    2 type  2   force =     0.00000000    0.00000000   -0.00000000
     atom    3 type  2   force =     0.00000000    0.00000000    0.00000000
     atom    4 type  2   force =     0.00000000    0.00000000    0.00000000

     Total force =     0.000000     Total SCF correction =     0.000000


     Computing stress (Cartesian axis) and pressure

          total   stress  (Ry/bohr**3)                   (kbar)     P=      435.94
   0.00316763   0.00000000   0.00000000          465.97        0.00        0.00
   0.00000000   0.00316763   0.00000000            0.00      465.97        0.00
   0.00000000   0.00000000   0.00255505            0.00        0.00      375.86

     Energy error            =      6.0E-03 Ry
     Gradient error          =      0.0E+00 Ry/Bohr
     Cell gradient error     =      1.2E+02 kbar

     number of scf cycles    =   5
     number of bfgs steps    =   4

     enthalpy           old  =     -50.7329503582 Ry
     enthalpy           new  =     -50.7389088242 Ry

     CASE: enthalpy          _new < enthalpy          _old

     new trust radius        =       0.1871530727 bohr
ibrav =      6
 celldm(1) =      6.97664704
 celldm(3) =      0.70970474
Input lattice vectors:
     1.36707658     0.00000000     0.00000000
     0.00000000     1.36707658     0.00000000
     0.00000000     0.00000000     0.97022073
New lattice vectors in INITIAL alat:
     1.36707658     0.00000000     0.00000000
     0.00000000     1.36707658     0.00000000
     0.00000000     0.00000000     0.97022073
New lattice vectors in NEW alat (for information only):
     1.00000000     0.00000000     0.00000000
     0.00000000     1.00000000     0.00000000
     0.00000000     0.00000000     0.70970474
Discrepancy in bohr =     0.000000    0.000000    0.000000
     new conv_thr            =            1.0E-10 Ry

     new unit-cell volume =    241.00051 a.u.^3 (    35.71259 Ang^3 )
     density =      2.27411 g/cm^3

CELL_PARAMETERS (alat=  5.10333302)
   1.367076578   0.000000000   0.000000000
   0.000000000   1.367076578   0.000000000
   0.000000000   0.000000000   0.970220727

ATOMIC_POSITIONS (crystal)
Si            0.0000000000        0.0000000000        0.0000000000
Li            0.0000000000        0.5000000000        0.5000000000
Li            0.5000000000        0.0000000000        0.5000000000
Li            0.5000000000        0.5000000000        0.0000000000



     Writing config-only to output data dir ./output/SiLi.save/
     NEW-OLD atomic charge density approx. for the potential
     extrapolated charge   13.09606, renormalised to   13.00000

     total cpu time spent up to now is       66.3 secs

     Self-consistent Calculation

     iteration #  1     ecut=   100.00 Ry     beta= 0.70
     Davidson diagonalization with overlap
     ethr =  1.00E-06,  avg # of iterations =  8.1

     total cpu time spent up to now is       69.1 secs

     total energy              =     -51.56250428 Ry
     estimated scf accuracy    <       0.00038775 Ry

     iteration #  2     ecut=   100.00 Ry     beta= 0.70
     Davidson diagonalization with overlap
     ethr =  2.98E-06,  avg # of iterations =  2.0

     total cpu time spent up to now is       70.5 secs

     total energy              =     -51.56272191 Ry
     estimated scf accuracy    <       0.00026473 Ry

     iteration #  3     ecut=   100.00 Ry     beta= 0.70
     Davidson diagonalization with overlap
     ethr =  2.04E-06,  avg # of iterations =  1.6

     total cpu time spent up to now is       71.5 secs

     total energy              =     -51.56275979 Ry
     estimated scf accuracy    <       0.00000594 Ry

     iteration #  4     ecut=   100.00 Ry     beta= 0.70
     Davidson diagonalization with overlap
     ethr =  4.57E-08,  avg # of iterations =  2.0

     total cpu time spent up to now is       72.7 secs

     total energy              =     -51.56276043 Ry
     estimated scf accuracy    <       0.00000044 Ry

     iteration #  5     ecut=   100.00 Ry     beta= 0.70
     Davidson diagonalization with overlap
     ethr =  3.40E-09,  avg # of iterations =  2.1

     total cpu time spent up to now is       73.9 secs

     total energy              =     -51.56276050 Ry
     estimated scf accuracy    <          9.4E-09 Ry

     iteration #  6     ecut=   100.00 Ry     beta= 0.70
     Davidson diagonalization with overlap
     ethr =  7.26E-11,  avg # of iterations =  2.5

     total cpu time spent up to now is       75.1 secs

     total energy              =     -51.56276050 Ry
     estimated scf accuracy    <          1.2E-09 Ry

     iteration #  7     ecut=   100.00 Ry     beta= 0.70
     Davidson diagonalization with overlap
     ethr =  9.49E-12,  avg # of iterations =  2.0

     total cpu time spent up to now is       76.3 secs

     End of self-consistent calculation

     Number of k-points >= 100: set verbosity='high' to print the bands.

     the Fermi energy is     7.7479 ev

!    total energy              =     -51.56276050 Ry
     estimated scf accuracy    <          3.1E-11 Ry
     smearing contrib. (-TS)   =       0.00021010 Ry
     internal energy E=F+TS    =     -51.56297060 Ry

     The total energy is F=E-TS. E is the sum of the following terms:
     one-electron contribution =     -15.08827117 Ry
     hartree contribution      =       8.66720117 Ry
     xc contribution           =     -13.75899098 Ry
     ewald contribution        =     -31.38290962 Ry

     convergence has been achieved in   7 iterations

     Forces acting on atoms (cartesian axes, Ry/au):

     atom    1 type  1   force =     0.00000000    0.00000000    0.00000000
     atom    2 type  2   force =     0.00000000    0.00000000    0.00000000
     atom    3 type  2   force =     0.00000000    0.00000000    0.00000000
     atom    4 type  2   force =     0.00000000    0.00000000    0.00000000
     The non-local contrib.  to forces
     atom    1 type  1   force =     0.00000000    0.00000000    0.00000000
     atom    2 type  2   force =     0.00000000    0.00000000    0.00000000
     atom    3 type  2   force =     0.00000000    0.00000000    0.00000000
     atom    4 type  2   force =     0.00000000    0.00000000    0.00000000
     The ionic contribution  to forces
     atom    1 type  1   force =    -0.00000000   -0.00000000   -0.00000000
     atom    2 type  2   force =    -0.00000000   -0.00000000   -0.00000000
     atom    3 type  2   force =    -0.00000000   -0.00000000   -0.00000000
     atom    4 type  2   force =     0.00000000    0.00000000   -0.00000000
     The local contribution  to forces
     atom    1 type  1   force =    -0.00000000   -0.00000000   -0.00000000
     atom    2 type  2   force =     0.00000000    0.00000000    0.00000000
     atom    3 type  2   force =     0.00000000    0.00000000    0.00000000
     atom    4 type  2   force =     0.00000000    0.00000000   -0.00000000
     The core correction contribution to forces
     atom    1 type  1   force =     0.00000000    0.00000000    0.00000000
     atom    2 type  2   force =     0.00000000    0.00000000    0.00000000
     atom    3 type  2   force =     0.00000000    0.00000000    0.00000000
     atom    4 type  2   force =     0.00000000    0.00000000    0.00000000
     The Hubbard contrib.    to forces
     atom    1 type  1   force =     0.00000000    0.00000000    0.00000000
     atom    2 type  2   force =     0.00000000    0.00000000    0.00000000
     atom    3 type  2   force =     0.00000000    0.00000000    0.00000000
     atom    4 type  2   force =     0.00000000    0.00000000    0.00000000
     The SCF correction term to forces
     atom    1 type  1   force =     0.00000000   -0.00000000    0.00000000
     atom    2 type  2   force =    -0.00000000    0.00000000   -0.00000000
     atom    3 type  2   force =    -0.00000000    0.00000000   -0.00000000
     atom    4 type  2   force =    -0.00000000    0.00000000   -0.00000000

     Total force =     0.000000     Total SCF correction =     0.000000


     Computing stress (Cartesian axis) and pressure

          total   stress  (Ry/bohr**3)                   (kbar)     P=      405.36
   0.00273756   0.00000000   0.00000000          402.71        0.00        0.00
   0.00000000   0.00273756   0.00000000            0.00      402.71        0.00
   0.00000000   0.00000000   0.00279172            0.00        0.00      410.68

     Energy error            =      4.7E-03 Ry
     Gradient error          =      0.0E+00 Ry/Bohr
     Cell gradient error     =      9.7E+01 kbar

     number of scf cycles    =   6
     number of bfgs steps    =   5

     enthalpy           old  =     -50.7389088242 Ry
     enthalpy           new  =     -50.7436164144 Ry

     CASE: enthalpy          _new < enthalpy          _old

     new trust radius        =       0.0230746535 bohr
ibrav =      6
 celldm(1) =      6.92479773
 celldm(3) =      0.71497767
Input lattice vectors:
     1.35691669     0.00000000     0.00000000
     0.00000000     1.35691669     0.00000000
     0.00000000     0.00000000     0.97016513
New lattice vectors in INITIAL alat:
     1.35691669     0.00000000     0.00000000
     0.00000000     1.35691669     0.00000000
     0.00000000     0.00000000     0.97016513
New lattice vectors in NEW alat (for information only):
     1.00000000     0.00000000     0.00000000
     0.00000000     1.00000000     0.00000000
     0.00000000     0.00000000     0.71497767
Discrepancy in bohr =     0.000000    0.000000    0.000000
     new conv_thr            =            1.0E-10 Ry

     new unit-cell volume =    237.41806 a.u.^3 (    35.18173 Ang^3 )
     density =      2.30843 g/cm^3

CELL_PARAMETERS (alat=  5.10333302)
   1.356916687   0.000000000   0.000000000
   0.000000000   1.356916687   0.000000000
   0.000000000   0.000000000   0.970165130

ATOMIC_POSITIONS (crystal)
Si            0.0000000000        0.0000000000        0.0000000000
Li            0.0000000000        0.5000000000        0.5000000000
Li            0.5000000000        0.0000000000        0.5000000000
Li            0.5000000000        0.5000000000        0.0000000000



     Writing config-only to output data dir ./output/SiLi.save/
     NEW-OLD atomic charge density approx. for the potential
     extrapolated charge   12.80406, renormalised to   13.00000

     total cpu time spent up to now is       78.0 secs

     Self-consistent Calculation

     iteration #  1     ecut=   100.00 Ry     beta= 0.70
     Davidson diagonalization with overlap
     ethr =  1.00E-06,  avg # of iterations =  4.6

     total cpu time spent up to now is       79.9 secs

     total energy              =     -51.55207177 Ry
     estimated scf accuracy    <       0.00019133 Ry

     iteration #  2     ecut=   100.00 Ry     beta= 0.70
     Davidson diagonalization with overlap
     ethr =  1.47E-06,  avg # of iterations =  2.2

     total cpu time spent up to now is       81.3 secs

     total energy              =     -51.55252676 Ry
     estimated scf accuracy    <       0.00022285 Ry

     iteration #  3     ecut=   100.00 Ry     beta= 0.70
     Davidson diagonalization with overlap
     ethr =  1.47E-06,  avg # of iterations =  1.0

     total cpu time spent up to now is       82.4 secs

     total energy              =     -51.55254039 Ry
     estimated scf accuracy    <       0.00002584 Ry

     iteration #  4     ecut=   100.00 Ry     beta= 0.70
     Davidson diagonalization with overlap
     ethr =  1.99E-07,  avg # of iterations =  1.0

     total cpu time spent up to now is       83.4 secs

     total energy              =     -51.55253310 Ry
     estimated scf accuracy    <       0.00001230 Ry

     iteration #  5     ecut=   100.00 Ry     beta= 0.70
     Davidson diagonalization with overlap
     ethr =  9.46E-08,  avg # of iterations =  1.8

     total cpu time spent up to now is       84.5 secs

     total energy              =     -51.55253492 Ry
     estimated scf accuracy    <       0.00000002 Ry

     iteration #  6     ecut=   100.00 Ry     beta= 0.70
     Davidson diagonalization with overlap
     ethr =  1.70E-10,  avg # of iterations =  3.7

     total cpu time spent up to now is       86.0 secs

     total energy              =     -51.55253495 Ry
     estimated scf accuracy    <       0.00000001 Ry

     iteration #  7     ecut=   100.00 Ry     beta= 0.70
     Davidson diagonalization with overlap
     ethr =  8.59E-11,  avg # of iterations =  1.0

     total cpu time spent up to now is       87.1 secs

     total energy              =     -51.55253495 Ry
     estimated scf accuracy    <          3.7E-09 Ry

     iteration #  8     ecut=   100.00 Ry     beta= 0.70
     Davidson diagonalization with overlap
     ethr =  2.83E-11,  avg # of iterations =  2.0

     total cpu time spent up to now is       88.2 secs

     End of self-consistent calculation

     Number of k-points >= 100: set verbosity='high' to print the bands.

     the Fermi energy is     7.8829 ev

!    total energy              =     -51.55253495 Ry
     estimated scf accuracy    <          9.5E-11 Ry
     smearing contrib. (-TS)   =       0.00022400 Ry
     internal energy E=F+TS    =     -51.55275895 Ry

     The total energy is F=E-TS. E is the sum of the following terms:
     one-electron contribution =     -14.86762917 Ry
     hartree contribution      =       8.63443763 Ry
     xc contribution           =     -13.77884379 Ry
     ewald contribution        =     -31.54072362 Ry

     convergence has been achieved in   8 iterations

     Forces acting on atoms (cartesian axes, Ry/au):

     atom    1 type  1   force =     0.00000000    0.00000000    0.00000000
     atom    2 type  2   force =     0.00000000    0.00000000    0.00000000
     atom    3 type  2   force =     0.00000000    0.00000000    0.00000000
     atom    4 type  2   force =     0.00000000    0.00000000    0.00000000
     The non-local contrib.  to forces
     atom    1 type  1   force =     0.00000000    0.00000000    0.00000000
     atom    2 type  2   force =     0.00000000    0.00000000    0.00000000
     atom    3 type  2   force =     0.00000000    0.00000000    0.00000000
     atom    4 type  2   force =     0.00000000    0.00000000    0.00000000
     The ionic contribution  to forces
     atom    1 type  1   force =    -0.00000000   -0.00000000   -0.00000000
     atom    2 type  2   force =    -0.00000000    0.00000000   -0.00000000
     atom    3 type  2   force =     0.00000000   -0.00000000   -0.00000000
     atom    4 type  2   force =     0.00000000    0.00000000   -0.00000000
     The local contribution  to forces
     atom    1 type  1   force =     0.00000000   -0.00000000    0.00000000
     atom    2 type  2   force =     0.00000000    0.00000000    0.00000000
     atom    3 type  2   force =     0.00000000    0.00000000    0.00000000
     atom    4 type  2   force =     0.00000000    0.00000000   -0.00000000
     The core correction contribution to forces
     atom    1 type  1   force =     0.00000000    0.00000000    0.00000000
     atom    2 type  2   force =     0.00000000    0.00000000    0.00000000
     atom    3 type  2   force =     0.00000000    0.00000000    0.00000000
     atom    4 type  2   force =     0.00000000    0.00000000    0.00000000
     The Hubbard contrib.    to forces
     atom    1 type  1   force =     0.00000000    0.00000000    0.00000000
     atom    2 type  2   force =     0.00000000    0.00000000    0.00000000
     atom    3 type  2   force =     0.00000000    0.00000000    0.00000000
     atom    4 type  2   force =     0.00000000    0.00000000    0.00000000
     The SCF correction term to forces
     atom    1 type  1   force =    -0.00000000   -0.00000000    0.00000000
     atom    2 type  2   force =    -0.00000000   -0.00000000    0.00000000
     atom    3 type  2   force =     0.00000000   -0.00000000    0.00000000
     atom    4 type  2   force =     0.00000000   -0.00000000   -0.00000000

     Total force =     0.000000     Total SCF correction =     0.000000


     Computing stress (Cartesian axis) and pressure

          total   stress  (Ry/bohr**3)                   (kbar)     P=      434.81
   0.00297252   0.00000000   0.00000000          437.27        0.00        0.00
   0.00000000   0.00297252   0.00000000            0.00      437.27        0.00
   0.00000000   0.00000000   0.00292225            0.00        0.00      429.88

     Energy error            =      2.0E-03 Ry
     Gradient error          =      0.0E+00 Ry/Bohr
     Cell gradient error     =      7.0E+01 kbar

     number of scf cycles    =   7
     number of bfgs steps    =   6

     enthalpy           old  =     -50.7436164144 Ry
     enthalpy           new  =     -50.7455673576 Ry

     CASE: enthalpy          _new < enthalpy          _old

     new trust radius        =       0.0346109885 bohr
ibrav =      6
 celldm(1) =      6.90695794
 celldm(3) =      0.70877355
Input lattice vectors:
     1.35342097     0.00000000     0.00000000
     0.00000000     1.35342097     0.00000000
     0.00000000     0.00000000     0.95926899
New lattice vectors in INITIAL alat:
     1.35342097     0.00000000     0.00000000
     0.00000000     1.35342097     0.00000000
     0.00000000     0.00000000     0.95926899
New lattice vectors in NEW alat (for information only):
     1.00000000     0.00000000     0.00000000
     0.00000000     1.00000000     0.00000000
     0.00000000     0.00000000     0.70877355
Discrepancy in bohr =     0.000000    0.000000    0.000000
     new conv_thr            =            1.0E-10 Ry

     new unit-cell volume =    233.54358 a.u.^3 (    34.60759 Ang^3 )
     density =      2.34672 g/cm^3

CELL_PARAMETERS (alat=  5.10333302)
   1.353420974   0.000000000   0.000000000
   0.000000000   1.353420974   0.000000000
   0.000000000   0.000000000   0.959268988

ATOMIC_POSITIONS (crystal)
Si            0.0000000000        0.0000000000        0.0000000000
Li            0.0000000000        0.5000000000        0.5000000000
Li            0.5000000000        0.0000000000        0.5000000000
Li            0.5000000000        0.5000000000        0.0000000000



     Writing config-only to output data dir ./output/SiLi.save/
     NEW-OLD atomic charge density approx. for the potential
     extrapolated charge   12.78457, renormalised to   13.00000

     total cpu time spent up to now is       89.8 secs

     Self-consistent Calculation

     iteration #  1     ecut=   100.00 Ry     beta= 0.70
     Davidson diagonalization with overlap
     ethr =  1.00E-06,  avg # of iterations =  4.9

     total cpu time spent up to now is       91.8 secs

     total energy              =     -51.54018764 Ry
     estimated scf accuracy    <       0.00016534 Ry

     iteration #  2     ecut=   100.00 Ry     beta= 0.70
     Davidson diagonalization with overlap
     ethr =  1.27E-06,  avg # of iterations =  2.3

     total cpu time spent up to now is       93.3 secs

     total energy              =     -51.54070490 Ry
     estimated scf accuracy    <       0.00020423 Ry

     iteration #  3     ecut=   100.00 Ry     beta= 0.70
     Davidson diagonalization with overlap
     ethr =  1.27E-06,  avg # of iterations =  1.1

     total cpu time spent up to now is       94.4 secs

     total energy              =     -51.54071284 Ry
     estimated scf accuracy    <       0.00003026 Ry

     iteration #  4     ecut=   100.00 Ry     beta= 0.70
     Davidson diagonalization with overlap
     ethr =  2.33E-07,  avg # of iterations =  1.0

     total cpu time spent up to now is       95.4 secs

     total energy              =     -51.54070427 Ry
     estimated scf accuracy    <       0.00001426 Ry

     iteration #  5     ecut=   100.00 Ry     beta= 0.70
     Davidson diagonalization with overlap
     ethr =  1.10E-07,  avg # of iterations =  1.8

     total cpu time spent up to now is       96.6 secs

     total energy              =     -51.54070639 Ry
     estimated scf accuracy    <       0.00000002 Ry

     iteration #  6     ecut=   100.00 Ry     beta= 0.70
     Davidson diagonalization with overlap
     ethr =  1.37E-10,  avg # of iterations =  3.9

     total cpu time spent up to now is       98.1 secs

     total energy              =     -51.54070642 Ry
     estimated scf accuracy    <       0.00000002 Ry

     iteration #  7     ecut=   100.00 Ry     beta= 0.70
     Davidson diagonalization with overlap
     ethr =  1.37E-10,  avg # of iterations =  1.0

     total cpu time spent up to now is       99.2 secs

     total energy              =     -51.54070642 Ry
     estimated scf accuracy    <          5.4E-09 Ry

     iteration #  8     ecut=   100.00 Ry     beta= 0.70
     Davidson diagonalization with overlap
     ethr =  4.12E-11,  avg # of iterations =  2.0

     total cpu time spent up to now is      100.4 secs

     total energy              =     -51.54070642 Ry
     estimated scf accuracy    <          1.2E-10 Ry

     iteration #  9     ecut=   100.00 Ry     beta= 0.70
     Davidson diagonalization with overlap
     ethr =  9.44E-13,  avg # of iterations =  1.9

     total cpu time spent up to now is      101.5 secs

     End of self-consistent calculation

     Number of k-points >= 100: set verbosity='high' to print the bands.

     the Fermi energy is     8.0515 ev

!    total energy              =     -51.54070642 Ry
     estimated scf accuracy    <          1.5E-11 Ry
     smearing contrib. (-TS)   =       0.00027022 Ry
     internal energy E=F+TS    =     -51.54097664 Ry

     The total energy is F=E-TS. E is the sum of the following terms:
     one-electron contribution =     -14.62202510 Ry
     hartree contribution      =       8.59639532 Ry
     xc contribution           =     -13.80205944 Ry
     ewald contribution        =     -31.71328743 Ry

     convergence has been achieved in   9 iterations

     Forces acting on atoms (cartesian axes, Ry/au):

     atom    1 type  1   force =     0.00000000    0.00000000    0.00000000
     atom    2 type  2   force =     0.00000000    0.00000000    0.00000000
     atom    3 type  2   force =     0.00000000    0.00000000    0.00000000
     atom    4 type  2   force =     0.00000000    0.00000000    0.00000000
     The non-local contrib.  to forces
     atom    1 type  1   force =     0.00000000    0.00000000    0.00000000
     atom    2 type  2   force =     0.00000000    0.00000000    0.00000000
     atom    3 type  2   force =     0.00000000    0.00000000    0.00000000
     atom    4 type  2   force =     0.00000000    0.00000000    0.00000000
     The ionic contribution  to forces
     atom    1 type  1   force =    -0.00000000   -0.00000000    0.00000000
     atom    2 type  2   force =    -0.00000000    0.00000000   -0.00000000
     atom    3 type  2   force =     0.00000000   -0.00000000   -0.00000000
     atom    4 type  2   force =     0.00000000    0.00000000    0.00000000
     The local contribution  to forces
     atom    1 type  1   force =    -0.00000000   -0.00000000   -0.00000000
     atom    2 type  2   force =     0.00000000    0.00000000    0.00000000
     atom    3 type  2   force =     0.00000000    0.00000000    0.00000000
     atom    4 type  2   force =     0.00000000    0.00000000    0.00000000
     The core correction contribution to forces
     atom    1 type  1   force =    -0.00000000    0.00000000    0.00000000
     atom    2 type  2   force =     0.00000000    0.00000000    0.00000000
     atom    3 type  2   force =     0.00000000    0.00000000    0.00000000
     atom    4 type  2   force =     0.00000000    0.00000000    0.00000000
     The Hubbard contrib.    to forces
     atom    1 type  1   force =     0.00000000    0.00000000    0.00000000
     atom    2 type  2   force =     0.00000000    0.00000000    0.00000000
     atom    3 type  2   force =     0.00000000    0.00000000    0.00000000
     atom    4 type  2   force =     0.00000000    0.00000000    0.00000000
     The SCF correction term to forces
     atom    1 type  1   force =     0.00000000    0.00000000    0.00000000
     atom    2 type  2   force =    -0.00000000   -0.00000000   -0.00000000
     atom    3 type  2   force =    -0.00000000    0.00000000   -0.00000000
     atom    4 type  2   force =     0.00000000    0.00000000    0.00000000

     Total force =     0.000000     Total SCF correction =     0.000000


     Computing stress (Cartesian axis) and pressure

          total   stress  (Ry/bohr**3)                   (kbar)     P=      465.49
   0.00315841   0.00000000   0.00000000          464.62        0.00        0.00
   0.00000000   0.00315841   0.00000000            0.00      464.62        0.00
   0.00000000   0.00000000   0.00317625            0.00        0.00      467.24

     Energy error            =      1.3E-03 Ry
     Gradient error          =      0.0E+00 Ry/Bohr
     Cell gradient error     =      3.5E+01 kbar

     number of scf cycles    =   8
     number of bfgs steps    =   7

     enthalpy           old  =     -50.7455673576 Ry
     enthalpy           new  =     -50.7469079176 Ry

     CASE: enthalpy          _new < enthalpy          _old

     new trust radius        =       0.0190295412 bohr
ibrav =      6
 celldm(1) =      6.86395470
 celldm(3) =      0.70936817
Input lattice vectors:
     1.34499447     0.00000000     0.00000000
     0.00000000     1.34499447     0.00000000
     0.00000000     0.00000000     0.95409627
New lattice vectors in INITIAL alat:
     1.34499447     0.00000000     0.00000000
     0.00000000     1.34499447     0.00000000
     0.00000000     0.00000000     0.95409627
New lattice vectors in NEW alat (for information only):
     1.00000000     0.00000000     0.00000000
     0.00000000     1.00000000     0.00000000
     0.00000000     0.00000000     0.70936817
Discrepancy in bohr =     0.000000    0.000000    0.000000
     new conv_thr            =            1.0E-10 Ry

     new unit-cell volume =    229.40080 a.u.^3 (    33.99369 Ang^3 )
     density =      2.38910 g/cm^3

CELL_PARAMETERS (alat=  5.10333302)
   1.344994474   0.000000000   0.000000000
   0.000000000   1.344994474   0.000000000
   0.000000000   0.000000000   0.954096274

ATOMIC_POSITIONS (crystal)
Si            0.0000000000        0.0000000000        0.0000000000
Li            0.0000000000        0.5000000000        0.5000000000
Li            0.5000000000        0.0000000000        0.5000000000
Li            0.5000000000        0.5000000000        0.0000000000



     Writing config-only to output data dir ./output/SiLi.save/
     NEW-OLD atomic charge density approx. for the potential
     extrapolated charge   12.76549, renormalised to   13.00000

     total cpu time spent up to now is      103.1 secs

     Self-consistent Calculation

     iteration #  1     ecut=   100.00 Ry     beta= 0.70
     Davidson diagonalization with overlap
     ethr =  1.00E-06,  avg # of iterations =  4.2

     total cpu time spent up to now is      104.9 secs

     total energy              =     -51.52644935 Ry
     estimated scf accuracy    <       0.00023413 Ry

     iteration #  2     ecut=   100.00 Ry     beta= 0.70
     Davidson diagonalization with overlap
     ethr =  1.80E-06,  avg # of iterations =  2.1

     total cpu time spent up to now is      106.4 secs

     total energy              =     -51.52708361 Ry
     estimated scf accuracy    <       0.00028117 Ry

     iteration #  3     ecut=   100.00 Ry     beta= 0.70
     Davidson diagonalization with overlap
     ethr =  1.80E-06,  avg # of iterations =  1.1

     total cpu time spent up to now is      107.4 secs

     total energy              =     -51.52709725 Ry
     estimated scf accuracy    <       0.00003739 Ry

     iteration #  4     ecut=   100.00 Ry     beta= 0.70
     Davidson diagonalization with overlap
     ethr =  2.88E-07,  avg # of iterations =  1.0

     total cpu time spent up to now is      108.5 secs

     total energy              =     -51.52708684 Ry
     estimated scf accuracy    <       0.00001744 Ry

     iteration #  5     ecut=   100.00 Ry     beta= 0.70
     Davidson diagonalization with overlap
     ethr =  1.34E-07,  avg # of iterations =  1.9

     total cpu time spent up to now is      109.6 secs

     total energy              =     -51.52708949 Ry
     estimated scf accuracy    <       0.00000003 Ry

     iteration #  6     ecut=   100.00 Ry     beta= 0.70
     Davidson diagonalization with overlap
     ethr =  2.12E-10,  avg # of iterations =  3.8

     total cpu time spent up to now is      111.1 secs

     total energy              =     -51.52708953 Ry
     estimated scf accuracy    <       0.00000002 Ry

     iteration #  7     ecut=   100.00 Ry     beta= 0.70
     Davidson diagonalization with overlap
     ethr =  1.73E-10,  avg # of iterations =  1.0

     total cpu time spent up to now is      112.2 secs

     total energy              =     -51.52708953 Ry
     estimated scf accuracy    <          7.8E-09 Ry

     iteration #  8     ecut=   100.00 Ry     beta= 0.70
     Davidson diagonalization with overlap
     ethr =  5.99E-11,  avg # of iterations =  2.0

     total cpu time spent up to now is      113.4 secs

     total energy              =     -51.52708953 Ry
     estimated scf accuracy    <          1.3E-10 Ry

     iteration #  9     ecut=   100.00 Ry     beta= 0.70
     Davidson diagonalization with overlap
     ethr =  1.04E-12,  avg # of iterations =  2.2

     total cpu time spent up to now is      114.6 secs

     End of self-consistent calculation

     Number of k-points >= 100: set verbosity='high' to print the bands.

     the Fermi energy is     8.2260 ev

!    total energy              =     -51.52708953 Ry
     estimated scf accuracy    <          2.3E-11 Ry
     smearing contrib. (-TS)   =       0.00031074 Ry
     internal energy E=F+TS    =     -51.52740027 Ry

     The total energy is F=E-TS. E is the sum of the following terms:
     one-electron contribution =     -14.35383872 Ry
     hartree contribution      =       8.55635872 Ry
     xc contribution           =     -13.82677389 Ry
     ewald contribution        =     -31.90314638 Ry

     convergence has been achieved in   9 iterations

     Forces acting on atoms (cartesian axes, Ry/au):

     atom    1 type  1   force =     0.00000000    0.00000000    0.00000000
     atom    2 type  2   force =     0.00000000    0.00000000    0.00000000
     atom    3 type  2   force =     0.00000000    0.00000000    0.00000000
     atom    4 type  2   force =     0.00000000    0.00000000    0.00000000
     The non-local contrib.  to forces
     atom    1 type  1   force =     0.00000000    0.00000000    0.00000000
     atom    2 type  2   force =     0.00000000    0.00000000    0.00000000
     atom    3 type  2   force =     0.00000000    0.00000000    0.00000000
     atom    4 type  2   force =     0.00000000    0.00000000    0.00000000
     The ionic contribution  to forces
     atom    1 type  1   force =    -0.00000000   -0.00000000    0.00000000
     atom    2 type  2   force =    -0.00000000   -0.00000000   -0.00000000
     atom    3 type  2   force =    -0.00000000   -0.00000000   -0.00000000
     atom    4 type  2   force =    -0.00000000   -0.00000000    0.00000000
     The local contribution  to forces
     atom    1 type  1   force =    -0.00000000   -0.00000000    0.00000000
     atom    2 type  2   force =     0.00000000    0.00000000   -0.00000000
     atom    3 type  2   force =     0.00000000    0.00000000   -0.00000000
     atom    4 type  2   force =     0.00000000    0.00000000    0.00000000
     The core correction contribution to forces
     atom    1 type  1   force =     0.00000000    0.00000000    0.00000000
     atom    2 type  2   force =     0.00000000    0.00000000    0.00000000
     atom    3 type  2   force =     0.00000000    0.00000000    0.00000000
     atom    4 type  2   force =     0.00000000    0.00000000    0.00000000
     The Hubbard contrib.    to forces
     atom    1 type  1   force =     0.00000000    0.00000000    0.00000000
     atom    2 type  2   force =     0.00000000    0.00000000    0.00000000
     atom    3 type  2   force =     0.00000000    0.00000000    0.00000000
     atom    4 type  2   force =     0.00000000    0.00000000    0.00000000
     The SCF correction term to forces
     atom    1 type  1   force =     0.00000000   -0.00000000   -0.00000000
     atom    2 type  2   force =    -0.00000000    0.00000000    0.00000000
     atom    3 type  2   force =     0.00000000   -0.00000000    0.00000000
     atom    4 type  2   force =     0.00000000    0.00000000   -0.00000000

     Total force =     0.000000     Total SCF correction =     0.000000


     Computing stress (Cartesian axis) and pressure

          total   stress  (Ry/bohr**3)                   (kbar)     P=      501.90
   0.00341765   0.00000000   0.00000000          502.75        0.00        0.00
   0.00000000   0.00341765   0.00000000            0.00      502.75        0.00
   0.00000000   0.00000000   0.00340017            0.00        0.00      500.18

     Energy error            =      4.6E-04 Ry
     Gradient error          =      0.0E+00 Ry/Bohr
     Cell gradient error     =      2.8E+00 kbar

     number of scf cycles    =   9
     number of bfgs steps    =   8

     enthalpy           old  =     -50.7469079176 Ry
     enthalpy           new  =     -50.7473720591 Ry

     CASE: enthalpy          _new < enthalpy          _old

     new trust radius        =       0.0029806325 bohr
ibrav =      6
 celldm(1) =      6.87003591
 celldm(3) =      0.70804288
Input lattice vectors:
     1.34618609     0.00000000     0.00000000
     0.00000000     1.34618609     0.00000000
     0.00000000     0.00000000     0.95315747
New lattice vectors in INITIAL alat:
     1.34618609     0.00000000     0.00000000
     0.00000000     1.34618609     0.00000000
     0.00000000     0.00000000     0.95315747
New lattice vectors in NEW alat (for information only):
     1.00000000     0.00000000     0.00000000
     0.00000000     1.00000000     0.00000000
     0.00000000     0.00000000     0.70804288
Discrepancy in bohr =     0.000000    0.000000    0.000000
     new conv_thr            =            1.0E-10 Ry

     new unit-cell volume =    229.58134 a.u.^3 (    34.02044 Ang^3 )
     density =      2.38723 g/cm^3

CELL_PARAMETERS (alat=  5.10333302)
   1.346186088   0.000000000   0.000000000
   0.000000000   1.346186088   0.000000000
   0.000000000   0.000000000   0.953157474

ATOMIC_POSITIONS (crystal)
Si            0.0000000000        0.0000000000        0.0000000000
Li            0.0000000000        0.5000000000        0.5000000000
Li            0.5000000000        0.0000000000        0.5000000000
Li            0.5000000000        0.5000000000        0.0000000000



     Writing config-only to output data dir ./output/SiLi.save/
     NEW-OLD atomic charge density approx. for the potential
     extrapolated charge   13.01021, renormalised to   13.00000

     total cpu time spent up to now is      116.2 secs

     Self-consistent Calculation

     iteration #  1     ecut=   100.00 Ry     beta= 0.70
     Davidson diagonalization with overlap
     ethr =  1.00E-06,  avg # of iterations =  2.0

     Threshold (ethr) on eigenvalues was too large:
     Diagonalizing with lowered threshold

     Davidson diagonalization with overlap
     ethr =  7.08E-09,  avg # of iterations =  2.3

     total cpu time spent up to now is      118.6 secs

     total energy              =     -51.52770458 Ry
     estimated scf accuracy    <       0.00000103 Ry

     iteration #  2     ecut=   100.00 Ry     beta= 0.70
     Davidson diagonalization with overlap
     ethr =  7.94E-09,  avg # of iterations =  2.1

     total cpu time spent up to now is      119.9 secs

     total energy              =     -51.52770605 Ry
     estimated scf accuracy    <       0.00000102 Ry

     iteration #  3     ecut=   100.00 Ry     beta= 0.70
     Davidson diagonalization with overlap
     ethr =  7.81E-09,  avg # of iterations =  1.1

     total cpu time spent up to now is      120.9 secs

     total energy              =     -51.52770614 Ry
     estimated scf accuracy    <       0.00000008 Ry

     iteration #  4     ecut=   100.00 Ry     beta= 0.70
     Davidson diagonalization with overlap
     ethr =  5.79E-10,  avg # of iterations =  1.1

     total cpu time spent up to now is      121.9 secs

     total energy              =     -51.52770612 Ry
     estimated scf accuracy    <       0.00000004 Ry

     iteration #  5     ecut=   100.00 Ry     beta= 0.70
     Davidson diagonalization with overlap
     ethr =  2.82E-10,  avg # of iterations =  1.8

     total cpu time spent up to now is      122.9 secs

     total energy              =     -51.52770613 Ry
     estimated scf accuracy    <          1.2E-10 Ry

     iteration #  6     ecut=   100.00 Ry     beta= 0.70
     Davidson diagonalization with overlap
     ethr =  9.36E-13,  avg # of iterations =  3.6

     total cpu time spent up to now is      124.3 secs

     End of self-consistent calculation

     Number of k-points >= 100: set verbosity='high' to print the bands.

     the Fermi energy is     8.2204 ev

!    total energy              =     -51.52770613 Ry
[...]

     total cpu time spent up to now is      125.8 secs

     Self-consistent Calculation

     iteration #  1     ecut=   100.00 Ry     beta= 0.70
     Davidson diagonalization with overlap
     ethr =  1.00E-06,  avg # of iterations =  1.0

     Threshold (ethr) on eigenvalues was too large:
     Diagonalizing with lowered threshold

     Davidson diagonalization with overlap
     ethr =  5.64E-11,  avg # of iterations =  3.6

     total cpu time spent up to now is      128.3 secs

     total energy              =     -51.52775310 Ry
     estimated scf accuracy    <          9.0E-09 Ry

     iteration #  2     ecut=   100.00 Ry     beta= 0.70
     Davidson diagonalization with overlap
     ethr =  6.96E-11,  avg # of iterations =  2.1

     total cpu time spent up to now is      129.5 secs

     total energy              =     -51.52775311 Ry
     estimated scf accuracy    <          1.6E-09 Ry

     iteration #  3     ecut=   100.00 Ry     beta= 0.70
     Davidson diagonalization with overlap
     ethr =  1.24E-11,  avg # of iterations =  1.1

     total cpu time spent up to now is      130.5 secs

     total energy              =     -51.52775311 Ry
     estimated scf accuracy    <          1.8E-10 Ry

     iteration #  4     ecut=   100.00 Ry     beta= 0.70
     Davidson diagonalization with overlap
     ethr =  1.42E-12,  avg # of iterations =  1.0

     total cpu time spent up to now is      131.5 secs

     End of self-consistent calculation

     Number of k-points >= 100: set verbosity='high' to print the bands.

     the Fermi energy is     8.2193 ev

!    total energy              =     -51.52775311 Ry
     estimated scf accuracy    <          3.1E-11 Ry
     smearing contrib. (-TS)   =       0.00031149 Ry
     internal energy E=F+TS    =     -51.52806460 Ry

     The total energy is F=E-TS. E is the sum of the following terms:
     one-electron contribution =     -14.36643544 Ry
     hartree contribution      =       8.55807345 Ry
     xc contribution           =     -13.82571377 Ry
     ewald contribution        =     -31.89398884 Ry

     convergence has been achieved in   4 iterations

     Forces acting on atoms (cartesian axes, Ry/au):

     atom    1 type  1   force =     0.00000000    0.00000000    0.00000000
     atom    2 type  2   force =     0.00000000    0.00000000    0.00000000
     atom    3 type  2   force =     0.00000000    0.00000000    0.00000000
     atom    4 type  2   force =     0.00000000    0.00000000    0.00000000
     The non-local contrib.  to forces
     atom    1 type  1   force =     0.00000000    0.00000000    0.00000000
     atom    2 type  2   force =     0.00000000    0.00000000    0.00000000
     atom    3 type  2   force =     0.00000000    0.00000000    0.00000000
     atom    4 type  2   force =     0.00000000    0.00000000    0.00000000
     The ionic contribution  to forces
     atom    1 type  1   force =    -0.00000000   -0.00000000    0.00000000
     atom    2 type  2   force =    -0.00000000    0.00000000   -0.00000000
     atom    3 type  2   force =     0.00000000   -0.00000000   -0.00000000
     atom    4 type  2   force =     0.00000000    0.00000000    0.00000000
     The local contribution  to forces
     atom    1 type  1   force =    -0.00000000   -0.00000000   -0.00000000
     atom    2 type  2   force =     0.00000000    0.00000000   -0.00000000
     atom    3 type  2   force =     0.00000000    0.00000000   -0.00000000
     atom    4 type  2   force =     0.00000000    0.00000000    0.00000000
     The core correction contribution to forces
     atom    1 type  1   force =     0.00000000    0.00000000    0.00000000
     atom    2 type  2   force =     0.00000000    0.00000000    0.00000000
     atom    3 type  2   force =     0.00000000    0.00000000    0.00000000
     atom    4 type  2   force =     0.00000000    0.00000000    0.00000000
     The Hubbard contrib.    to forces
     atom    1 type  1   force =     0.00000000    0.00000000    0.00000000
     atom    2 type  2   force =     0.00000000    0.00000000    0.00000000
     atom    3 type  2   force =     0.00000000    0.00000000    0.00000000
     atom    4 type  2   force =     0.00000000    0.00000000    0.00000000
     The SCF correction term to forces
     atom    1 type  1   force =    -0.00000000   -0.00000000   -0.00000000
     atom    2 type  2   force =     0.00000000    0.00000000    0.00000000
     atom    3 type  2   force =     0.00000000    0.00000000    0.00000000
     atom    4 type  2   force =     0.00000000   -0.00000000    0.00000000

     Total force =     0.000000     Total SCF correction =     0.000000


     Computing stress (Cartesian axis) and pressure

          total   stress  (Ry/bohr**3)                   (kbar)     P=      499.96
   0.00339873   0.00000000   0.00000000          499.97        0.00        0.00
   0.00000000   0.00339873   0.00000000            0.00      499.97        0.00
   0.00000000   0.00000000   0.00339853            0.00        0.00      499.94

     Energy error            =      1.7E-07 Ry
     Gradient error          =      0.0E+00 Ry/Bohr
     Cell gradient error     =      5.9E-02 kbar
ibrav =      6
 celldm(1) =      6.86912015
 celldm(3) =      0.70836859
Input lattice vectors:
     1.34600664     0.00000000     0.00000000
     0.00000000     1.34600664     0.00000000
     0.00000000     0.00000000     0.95346883
New lattice vectors in INITIAL alat:
     1.34600664     0.00000000     0.00000000
     0.00000000     1.34600664     0.00000000
     0.00000000     0.00000000     0.95346883
New lattice vectors in NEW alat (for information only):
     1.00000000     0.00000000     0.00000000
     0.00000000     1.00000000     0.00000000
     0.00000000     0.00000000     0.70836859
Discrepancy in bohr =     0.000000    0.000000    0.000000

     bfgs converged in  11 scf cycles and  10 bfgs steps
     (criteria: energy <  1.0E-04 Ry, force <  1.0E-03 Ry/Bohr, cell <  5.0E-01 kbar)

     End of BFGS Geometry Optimization

     Final enthalpy           =     -50.7473751888 Ry

     File ./output/SiLi.bfgs deleted, as requested
Begin final coordinates
     new unit-cell volume =    229.59511 a.u.^3 (    34.02249 Ang^3 )
     density =      2.38708 g/cm^3

CELL_PARAMETERS (alat=  5.10333302)
   1.346006645   0.000000000   0.000000000
   0.000000000   1.346006645   0.000000000
   0.000000000   0.000000000   0.953468829

ATOMIC_POSITIONS (crystal)
Si            0.0000000000        0.0000000000        0.0000000000
Li            0.0000000000        0.5000000000        0.5000000000
Li            0.5000000000        0.0000000000        0.5000000000
Li            0.5000000000        0.5000000000        0.0000000000
End final coordinates



     Writing config-only to output data dir ./output/SiLi.save/

     Final scf calculation at the relaxed structure.
     The G-vectors are recalculated for the final unit cell
     Results may differ from those at the preceding step.

     Parallelization info
     --------------------
     sticks:   dense  smooth     PW     G-vecs:    dense   smooth      PW
     Min         185     185     54                 3878     3878     626
     Max         187     187     55                 3882     3882     627
     Sum        1489    1489    437                31031    31031    5013

     Using Slab Decomposition



     bravais-lattice index     =            6
     lattice parameter (alat)  =       5.1033  a.u.
     unit-cell volume          =     229.5951 (a.u.)^3
     number of atoms/cell      =            4
     number of atomic types    =            2
     number of electrons       =        13.00
     number of Kohn-Sham states=           11
     kinetic-energy cutoff     =     100.0000  Ry
     charge density cutoff     =     400.0000  Ry
     scf convergence threshold =      1.0E-10
     mixing beta               =       0.7000
     number of iterations used =            8  plain     mixing
     press convergence thresh. =      5.0E-01
     Exchange-correlation= PBE
                           (   1   4   3   4   0   0   0)

     celldm(1)=   5.103333  celldm(2)=   0.000000  celldm(3)=   0.915383
     celldm(4)=   0.000000  celldm(5)=   0.000000  celldm(6)=   0.000000

     crystal axes: (cart. coord. in units of alat)
               a(1) = (   1.346007   0.000000   0.000000 )  
               a(2) = (   0.000000   1.346007   0.000000 )  
               a(3) = (   0.000000   0.000000   0.953469 )  

     reciprocal axes: (cart. coord. in units 2 pi/alat)
               b(1) = (  0.742938  0.000000  0.000000 )  
               b(2) = (  0.000000  0.742938  0.000000 )  
               b(3) = (  0.000000  0.000000  1.048802 )  


     PseudoPot. # 1 for Si read from file:
     ../pseudo/Si_ONCV_PBE_sr.upf
     MD5 check sum: e543d271109d17c80368dfa7c482276d
     Pseudo is Norm-conserving + core correction, Zval =  4.0
     Generated using ONCVPSP code by D. R. Hamann
     Using radial grid of 1510 points,  6 beta functions with: 
                l(1) =   0
                l(2) =   0
                l(3) =   1
                l(4) =   1
                l(5) =   2
                l(6) =   2

     PseudoPot. # 2 for Li read from file:
     ../pseudo/Li_ONCV_PBE_sr.upf
     MD5 check sum: 50ff420e78310ffa21704f3361e624a4
     Pseudo is Norm-conserving, Zval =  3.0
     Generated using ONCVPSP code by D. R. Hamann
     Using radial grid of 1944 points,  4 beta functions with: 
                l(1) =   0
                l(2) =   0
                l(3) =   1
                l(4) =   1

     atomic species   valence    mass     pseudopotential
        Si             4.00    28.08550     Si( 1.00)
        Li             3.00     6.94100     Li( 1.00)

     16 Sym. Ops., with inversion, found



   Cartesian axes

     site n.     atom                  positions (alat units)
         1           Si  tau(   1) = (   0.0000000   0.0000000   0.0000000  )
         2           Li  tau(   2) = (   0.0000000   0.6730033   0.4767344  )
         3           Li  tau(   3) = (   0.6730033   0.0000000   0.4767344  )
         4           Li  tau(   4) = (   0.6730033   0.6730033   0.0000000  )

     number of k points=   224  Marzari-Vanderbilt smearing, width (Ry)=  0.0200

     Number of k-points >= 100: set verbosity='high' to print them.

     Dense  grid:    31031 G-vectors     FFT dimensions: (  45,  45,  32)

     Estimated max dynamical RAM per process >      34.10 MB

     Estimated total dynamical RAM >     272.84 MB

     Initial potential from superposition of free atoms

     starting charge      12.9857, renormalised to      13.0000
     Starting wfcs are   10 randomized atomic wfcs +    1 random wfcs

     total cpu time spent up to now is      134.2 secs

     Self-consistent Calculation

     iteration #  1     ecut=   100.00 Ry     beta= 0.70
     Davidson diagonalization with overlap
     c_bands:  1 eigenvalues not converged
     c_bands:  3 eigenvalues not converged
     c_bands:  1 eigenvalues not converged
     c_bands:  1 eigenvalues not converged
     c_bands:  2 eigenvalues not converged
     c_bands:  1 eigenvalues not converged
     c_bands:  1 eigenvalues not converged
     c_bands:  1 eigenvalues not converged
     c_bands:  1 eigenvalues not converged
     c_bands:  1 eigenvalues not converged
     c_bands:  1 eigenvalues not converged
     c_bands:  1 eigenvalues not converged
     c_bands:  1 eigenvalues not converged
     c_bands:  1 eigenvalues not converged
     c_bands:  1 eigenvalues not converged
     c_bands:  1 eigenvalues not converged
     c_bands:  1 eigenvalues not converged
     c_bands:  1 eigenvalues not converged
     c_bands:  1 eigenvalues not converged
     c_bands:  1 eigenvalues not converged
     c_bands:  1 eigenvalues not converged
     c_bands:  1 eigenvalues not converged
     c_bands:  1 eigenvalues not converged
     c_bands:  1 eigenvalues not converged
     c_bands:  2 eigenvalues not converged
     c_bands:  1 eigenvalues not converged
     c_bands:  2 eigenvalues not converged
     c_bands:  1 eigenvalues not converged
     c_bands:  1 eigenvalues not converged
     ethr =  1.00E-06,  avg # of iterations = 15.5

     total cpu time spent up to now is      140.8 secs

     total energy              =     -51.53170376 Ry
     estimated scf accuracy    <       0.01193602 Ry

     iteration #  2     ecut=   100.00 Ry     beta= 0.70
     Davidson diagonalization with overlap
     ethr =  9.18E-05,  avg # of iterations =  1.1

     total cpu time spent up to now is      142.6 secs

     total energy              =     -51.53196434 Ry
     estimated scf accuracy    <       0.00089886 Ry

     iteration #  3     ecut=   100.00 Ry     beta= 0.70
     Davidson diagonalization with overlap
     ethr =  6.91E-06,  avg # of iterations =  1.7

     total cpu time spent up to now is      144.5 secs

     total energy              =     -51.53202826 Ry
     estimated scf accuracy    <       0.00017964 Ry

     iteration #  4     ecut=   100.00 Ry     beta= 0.70
     Davidson diagonalization with overlap
     ethr =  1.38E-06,  avg # of iterations =  1.8

     total cpu time spent up to now is      146.4 secs

     total energy              =     -51.53206338 Ry
     estimated scf accuracy    <       0.00000304 Ry

     iteration #  5     ecut=   100.00 Ry     beta= 0.70
     Davidson diagonalization with overlap
     ethr =  2.34E-08,  avg # of iterations =  1.8

     total cpu time spent up to now is      148.2 secs

     total energy              =     -51.53206378 Ry
     estimated scf accuracy    <       0.00000001 Ry

     iteration #  6     ecut=   100.00 Ry     beta= 0.70
     Davidson diagonalization with overlap
     ethr =  9.71E-11,  avg # of iterations =  3.8

     total cpu time spent up to now is      150.6 secs

     total energy              =     -51.53206379 Ry
     estimated scf accuracy    <          1.1E-09 Ry

     iteration #  7     ecut=   100.00 Ry     beta= 0.70
     Davidson diagonalization with overlap
     ethr =  8.23E-12,  avg # of iterations =  2.0

     total cpu time spent up to now is      152.5 secs

     End of self-consistent calculation

     Number of k-points >= 100: set verbosity='high' to print the bands.

     the Fermi energy is     8.2190 ev

!    total energy              =     -51.53206379 Ry
     estimated scf accuracy    <          3.3E-11 Ry
     smearing contrib. (-TS)   =       0.00031132 Ry
     internal energy E=F+TS    =     -51.53237511 Ry

     The total energy is F=E-TS. E is the sum of the following terms:
     one-electron contribution =     -14.37567458 Ry
     hartree contribution      =       8.56686612 Ry
     xc contribution           =     -13.82957782 Ry
     ewald contribution        =     -31.89398884 Ry

     convergence has been achieved in   7 iterations

     Forces acting on atoms (cartesian axes, Ry/au):

     atom    1 type  1   force =     0.00000000    0.00000000    0.00000000
     atom    2 type  2   force =     0.00000000    0.00000000    0.00000000
     atom    3 type  2   force =     0.00000000    0.00000000    0.00000000
     atom    4 type  2   force =     0.00000000    0.00000000    0.00000000
     The non-local contrib.  to forces
     atom    1 type  1   force =     0.00000000    0.00000000    0.00000000
     atom    2 type  2   force =     0.00000000    0.00000000    0.00000000
     atom    3 type  2   force =     0.00000000    0.00000000    0.00000000
     atom    4 type  2   force =     0.00000000    0.00000000    0.00000000
     The ionic contribution  to forces
     atom    1 type  1   force =    -0.00000000   -0.00000000    0.00000000
     atom    2 type  2   force =    -0.00000000    0.00000000   -0.00000000
     atom    3 type  2   force =     0.00000000   -0.00000000   -0.00000000
     atom    4 type  2   force =     0.00000000    0.00000000    0.00000000
     The local contribution  to forces
     atom    1 type  1   force =    -0.00000000   -0.00000000   -0.00000000
     atom    2 type  2   force =    -0.00000000    0.00000000   -0.00000000
     atom    3 type  2   force =     0.00000000    0.00000000   -0.00000000
     atom    4 type  2   force =     0.00000000    0.00000000   -0.00000000
     The core correction contribution to forces
     atom    1 type  1   force =    -0.00000000    0.00000000   -0.00000000
     atom    2 type  2   force =     0.00000000    0.00000000    0.00000000
     atom    3 type  2   force =     0.00000000    0.00000000    0.00000000
     atom    4 type  2   force =     0.00000000    0.00000000    0.00000000
     The Hubbard contrib.    to forces
     atom    1 type  1   force =     0.00000000    0.00000000    0.00000000
     atom    2 type  2   force =     0.00000000    0.00000000    0.00000000
     atom    3 type  2   force =     0.00000000    0.00000000    0.00000000
     atom    4 type  2   force =     0.00000000    0.00000000    0.00000000
     The SCF correction term to forces
     atom    1 type  1   force =    -0.00000000    0.00000000   -0.00000000
     atom    2 type  2   force =     0.00000000   -0.00000000    0.00000000
     atom    3 type  2   force =     0.00000000   -0.00000000    0.00000000
     atom    4 type  2   force =     0.00000000   -0.00000000   -0.00000000

     Total force =     0.000000     Total SCF correction =     0.000000


     Computing stress (Cartesian axis) and pressure

          total   stress  (Ry/bohr**3)                   (kbar)     P=      523.72
   0.00362726   0.00000000   0.00000000          533.59        0.00        0.00
   0.00000000   0.00362726   0.00000000            0.00      533.59        0.00
   0.00000000   0.00000000   0.00342594            0.00        0.00      503.97


     Writing all to output data dir ./output/SiLi.save/

     init_run     :      1.64s CPU      1.88s WALL (       2 calls)
     electrons    :    121.01s CPU    133.02s WALL (      12 calls)
     update_pot   :      1.77s CPU      1.81s WALL (      10 calls)
     forces       :      2.69s CPU      2.83s WALL (      12 calls)
     stress       :     14.49s CPU     14.82s WALL (      12 calls)

     Called by init_run:
     wfcinit      :      0.96s CPU      1.00s WALL (       2 calls)
     potinit      :      0.22s CPU      0.27s WALL (       2 calls)
     hinit0       :      0.42s CPU      0.46s WALL (       2 calls)

     Called by electrons:
     c_bands      :    105.72s CPU    116.68s WALL (      93 calls)
     sum_band     :     14.92s CPU     15.61s WALL (      93 calls)
     v_of_rho     :      0.34s CPU      0.52s WALL (     102 calls)
     mix_rho      :      0.04s CPU      0.06s WALL (      93 calls)

     Called by c_bands:
     init_us_2    :      3.55s CPU      3.88s WALL (   47488 calls)
     init_us_2:cp :      3.49s CPU      3.83s WALL (   47488 calls)
     cegterg      :     98.73s CPU    103.96s WALL (   20832 calls)

     Called by *egterg:
     cdiaghg      :     10.17s CPU     10.75s WALL (   70200 calls)
     h_psi        :     78.78s CPU     82.94s WALL (   73560 calls)
     g_psi        :      0.43s CPU      0.45s WALL (   52280 calls)

     Called by h_psi:
     h_psi:calbec :      5.53s CPU      5.79s WALL (   73560 calls)
     vloc_psi     :     69.22s CPU     72.92s WALL (   73560 calls)
     add_vuspsi   :      3.59s CPU      3.75s WALL (   73560 calls)

     General routines
     calbec       :      6.95s CPU      7.31s WALL (   87000 calls)
     fft          :      0.47s CPU      0.71s WALL (    1321 calls)
     ffts         :      0.01s CPU      0.02s WALL (      93 calls)
     fftw         :     71.72s CPU     75.42s WALL ( 1449896 calls)

     Parallel routines

     PWSCF        :   2m22.23s CPU   2m36.03s WALL


   This run was terminated on:  13:48:48  17Jan2025            

=------------------------------------------------------------------------------=
   JOB DONE.
=------------------------------------------------------------------------------=
