
     Program PWSCF v.7.2 starts on 17Jan2025 at 15:15:34 

     This program is part of the open-source Quantum ESPRESSO suite
     for quantum simulation of materials; please cite
         "P. Giannozzi et al., J. Phys.:Condens. Matter 21 395502 (2009);
         "P. Giannozzi et al., J. Phys.:Condens. Matter 29 465901 (2017);
         "P. Giannozzi et al., J. Chem. Phys. 152 154105 (2020);
          URL http://www.quantum-espresso.org", 
     in publications or presentations arising from this work. More details at
     http://www.quantum-espresso.org/quote

     Parallel version (MPI & OpenMP), running on       8 processor cores
     Number of MPI processes:                 8
     Threads/MPI process:                     1

     MPI processes distributed on     1 nodes
     482071 MiB available memory on the printing compute node when the environment starts

     Waiting for input...
     Reading input from standard input

     Current dimensions of program PWSCF are:
     Max number of different atomic species (ntypx) = 10
     Max number of k-points (npk) =  40000
     Max angular momentum in pseudopotentials (lmaxx) =  4

     R & G space division:  proc/nbgrp/npool/nimage =       8
     Subspace diagonalization in iterative solution of the eigenvalue problem:
     a serial algorithm will be used


     Parallelization info
     --------------------
     sticks:   dense  smooth     PW     G-vecs:    dense   smooth      PW
     Min         138     138     42                 2139     2139     366
     Max         140     140     44                 2140     2140     367
     Sum        1111    1111    349                17117    17117    2929

     Using Slab Decomposition



     bravais-lattice index     =            4
     lattice parameter (alat)  =       6.3483  a.u.
     unit-cell volume          =     126.4695 (a.u.)^3
     number of atoms/cell      =            4
     number of atomic types    =            2
     number of electrons       =        13.00
     number of Kohn-Sham states=           11
     kinetic-energy cutoff     =     100.0000  Ry
     charge density cutoff     =     400.0000  Ry
     scf convergence threshold =      1.0E-08
     mixing beta               =       0.7000
     number of iterations used =            8  plain     mixing
     energy convergence thresh.=      1.0E-04
     force convergence thresh. =      1.0E-03
     press convergence thresh. =      5.0E-01
     Exchange-correlation= PBE
                           (   1   4   3   4   0   0   0)
     nstep                     =           50


     celldm(1)=   6.348258  celldm(2)=   0.000000  celldm(3)=   0.570810
     celldm(4)=   0.000000  celldm(5)=   0.000000  celldm(6)=   0.000000

     crystal axes: (cart. coord. in units of alat)
               a(1) = (   1.000000   0.000000   0.000000 )  
               a(2) = (  -0.500000   0.866025   0.000000 )  
               a(3) = (   0.000000   0.000000   0.570810 )  

     reciprocal axes: (cart. coord. in units 2 pi/alat)
               b(1) = (  1.000000  0.577350 -0.000000 )  
               b(2) = (  0.000000  1.154701  0.000000 )  
               b(3) = (  0.000000 -0.000000  1.751896 )  


     PseudoPot. # 1 for Si read from file:
     ../pseudo/Si_ONCV_PBE_sr.upf
     MD5 check sum: e543d271109d17c80368dfa7c482276d
     Pseudo is Norm-conserving + core correction, Zval =  4.0
     Generated using ONCVPSP code by D. R. Hamann
     Using radial grid of 1510 points,  6 beta functions with: 
                l(1) =   0
                l(2) =   0
                l(3) =   1
                l(4) =   1
                l(5) =   2
                l(6) =   2

     PseudoPot. # 2 for Li read from file:
     ../pseudo/Li_ONCV_PBE_sr.upf
     MD5 check sum: 50ff420e78310ffa21704f3361e624a4
     Pseudo is Norm-conserving, Zval =  3.0
     Generated using ONCVPSP code by D. R. Hamann
     Using radial grid of 1944 points,  4 beta functions with: 
                l(1) =   0
                l(2) =   0
                l(3) =   1
                l(4) =   1

     atomic species   valence    mass     pseudopotential
        Si             4.00    28.08550     Si( 1.00)
        Li             3.00     6.94100     Li( 1.00)

     24 Sym. Ops., with inversion, found



   Cartesian axes

     site n.     atom                  positions (alat units)
         1           Si  tau(   1) = (   0.0000000   0.0000000   0.0000000  )
         2           Li  tau(   2) = (  -0.2500000   0.4330127   0.2854050  )
         3           Li  tau(   3) = (   0.5000000   0.0000000   0.2854050  )
         4           Li  tau(   4) = (   0.2500000   0.4330127   0.2854050  )

     number of k points=   209  Marzari-Vanderbilt smearing, width (Ry)=  0.0200

     Number of k-points >= 100: set verbosity='high' to print them.

     Dense  grid:    17117 G-vectors     FFT dimensions: (  45,  45,  24)

     Estimated max dynamical RAM per process >      24.01 MB

     Estimated total dynamical RAM >     192.05 MB

     Initial potential from superposition of free atoms

     starting charge      12.9857, renormalised to      13.0000
     Starting wfcs are   10 randomized atomic wfcs +    1 random wfcs

     total cpu time spent up to now is        1.0 secs

     Self-consistent Calculation

     iteration #  1     ecut=   100.00 Ry     beta= 0.70
     Davidson diagonalization with overlap
     ethr =  1.00E-02,  avg # of iterations =  6.0

     Threshold (ethr) on eigenvalues was too large:
     Diagonalizing with lowered threshold

     Davidson diagonalization with overlap
     ethr =  2.87E-04,  avg # of iterations =  1.9

     total cpu time spent up to now is        4.6 secs

     total energy              =     -50.46822684 Ry
     estimated scf accuracy    <       0.03708751 Ry

     iteration #  2     ecut=   100.00 Ry     beta= 0.70
     Davidson diagonalization with overlap
     ethr =  2.85E-04,  avg # of iterations =  2.1

     total cpu time spent up to now is        6.0 secs

     total energy              =     -50.47294579 Ry
     estimated scf accuracy    <       0.00464664 Ry

     iteration #  3     ecut=   100.00 Ry     beta= 0.70
     Davidson diagonalization with overlap
     ethr =  3.57E-05,  avg # of iterations =  2.6

     total cpu time spent up to now is        7.4 secs

     total energy              =     -50.47369987 Ry
     estimated scf accuracy    <       0.00034071 Ry

     iteration #  4     ecut=   100.00 Ry     beta= 0.70
     Davidson diagonalization with overlap
     ethr =  2.62E-06,  avg # of iterations =  2.8

     total cpu time spent up to now is        8.9 secs

     total energy              =     -50.47372726 Ry
     estimated scf accuracy    <       0.00000295 Ry

     iteration #  5     ecut=   100.00 Ry     beta= 0.70
     Davidson diagonalization with overlap
     ethr =  2.27E-08,  avg # of iterations =  2.2

     total cpu time spent up to now is       10.4 secs

     total energy              =     -50.47372800 Ry
     estimated scf accuracy    <       0.00000019 Ry

     iteration #  6     ecut=   100.00 Ry     beta= 0.70
     Davidson diagonalization with overlap
     ethr =  1.49E-09,  avg # of iterations =  2.1

     total cpu time spent up to now is       11.8 secs

     End of self-consistent calculation

     Number of k-points >= 100: set verbosity='high' to print the bands.

     the Fermi energy is    16.2795 ev

!    total energy              =     -50.47372804 Ry
     estimated scf accuracy    <          3.1E-10 Ry
     smearing contrib. (-TS)   =      -0.00026892 Ry
     internal energy E=F+TS    =     -50.47345912 Ry

     The total energy is F=E-TS. E is the sum of the following terms:
     one-electron contribution =      -4.27592008 Ry
     hartree contribution      =       7.28839239 Ry
     xc contribution           =     -14.83043801 Ry
     ewald contribution        =     -38.65549343 Ry

     convergence has been achieved in   6 iterations

     Forces acting on atoms (cartesian axes, Ry/au):

     atom    1 type  1   force =    -0.00000000   -0.00000000    0.00000000
     atom    2 type  2   force =     0.00000000    0.00000000    0.00000000
     atom    3 type  2   force =     0.00000000    0.00000000    0.00000000
     atom    4 type  2   force =     0.00000000    0.00000000   -0.00000000
     The non-local contrib.  to forces
     atom    1 type  1   force =     0.00000000    0.00000000   -0.00000000
     atom    2 type  2   force =     0.00000000    0.00000000    0.00000000
     atom    3 type  2   force =    -0.00000000   -0.00000000    0.00000000
     atom    4 type  2   force =    -0.00000000   -0.00000000    0.00000000
     The ionic contribution  to forces
     atom    1 type  1   force =    -0.00000000   -0.00000000   -0.00000000
     atom    2 type  2   force =    -0.00000000    0.00000000    0.00000000
     atom    3 type  2   force =     0.00000000    0.00000000    0.00000000
     atom    4 type  2   force =     0.00000000    0.00000000    0.00000000
     The local contribution  to forces
     atom    1 type  1   force =    -0.00000000   -0.00000000    0.00000000
     atom    2 type  2   force =    -0.00000000   -0.00000000   -0.00000000
     atom    3 type  2   force =     0.00000000   -0.00000000    0.00000000
     atom    4 type  2   force =     0.00000000    0.00000000   -0.00000000
     The core correction contribution to forces
     atom    1 type  1   force =     0.00000000    0.00000000   -0.00000000
     atom    2 type  2   force =     0.00000000    0.00000000    0.00000000
     atom    3 type  2   force =     0.00000000    0.00000000    0.00000000
     atom    4 type  2   force =     0.00000000    0.00000000    0.00000000
     The Hubbard contrib.    to forces
     atom    1 type  1   force =     0.00000000    0.00000000    0.00000000
     atom    2 type  2   force =     0.00000000    0.00000000    0.00000000
     atom    3 type  2   force =     0.00000000    0.00000000    0.00000000
     atom    4 type  2   force =     0.00000000    0.00000000    0.00000000
     The SCF correction term to forces
     atom    1 type  1   force =    -0.00000000   -0.00000000    0.00000000
     atom    2 type  2   force =    -0.00000000   -0.00000000   -0.00000000
     atom    3 type  2   force =     0.00000000    0.00000000   -0.00000000
     atom    4 type  2   force =    -0.00000000   -0.00000000   -0.00000000

     Total force =     0.000000     Total SCF correction =     0.000000


     Computing stress (Cartesian axis) and pressure

          total   stress  (Ry/bohr**3)                   (kbar)     P=     3372.71
   0.02333280   0.00000000   0.00000000         3432.37        0.00        0.00
   0.00000000   0.02333280   0.00000000            0.00     3432.37        0.00
   0.00000000   0.00000000   0.02211600            0.00        0.00     3253.38


     BFGS Geometry Optimization
     Energy error            =      0.0E+00 Ry
     Gradient error          =      4.9E-32 Ry/Bohr
     Cell gradient error     =      2.9E+03 kbar

     number of scf cycles    =   1
     number of bfgs steps    =   0

     enthalpy           new  =     -50.0438668143 Ry

     new trust radius        =       0.5000000000 bohr
ibrav =      4
 celldm(1) =      7.75950044
 celldm(3) =      0.56447296
Input lattice vectors:
     1.22230388     0.00000000     0.00000000
    -0.61115194     1.05854621     0.00000000
     0.00000000     0.00000000     0.68995748
New lattice vectors in INITIAL alat:
     1.22230388     0.00000000     0.00000000
    -0.61115194     1.05854621     0.00000000
     0.00000000     0.00000000     0.68995748
New lattice vectors in NEW alat (for information only):
     1.00000000     0.00000000     0.00000000
    -0.50000000     0.86602540     0.00000000
     0.00000000     0.00000000     0.56447296
Discrepancy in bohr =     0.000000    0.000000    0.000000
     new conv_thr            =       0.0000000100 Ry

     new unit-cell volume =    228.38893 a.u.^3 (    33.84375 Ang^3 )
     density =      2.39969 g/cm^3

CELL_PARAMETERS (alat=  6.34825805)
   1.222303879   0.000000000   0.000000000
  -0.611151939   1.058546210   0.000000000
   0.000000000   0.000000000   0.689957484

ATOMIC_POSITIONS (crystal)
Si           -0.0000000000       -0.0000000000        0.0000000000
Li            0.0000000000        0.5000000000        0.5000000000
Li            0.5000000000        0.0000000000        0.5000000000
Li            0.5000000000        0.5000000000        0.5000000000



     Writing config-only to output data dir ./output/SiLi.save/
     NEW-OLD atomic charge density approx. for the potential
     extrapolated charge   18.79492, renormalised to   13.00000

     total cpu time spent up to now is       13.4 secs

     Self-consistent Calculation

     iteration #  1     ecut=   100.00 Ry     beta= 0.70
     Davidson diagonalization with overlap
     c_bands:  1 eigenvalues not converged
     ethr =  1.00E-06,  avg # of iterations = 10.6

     total cpu time spent up to now is       17.7 secs

     total energy              =     -51.02524787 Ry
     estimated scf accuracy    <       0.22160671 Ry

     iteration #  2     ecut=   100.00 Ry     beta= 0.70
     Davidson diagonalization with overlap
     ethr =  1.70E-03,  avg # of iterations =  2.7

     total cpu time spent up to now is       19.6 secs

     total energy              =     -51.50798126 Ry
     estimated scf accuracy    <       0.40065616 Ry

     iteration #  3     ecut=   100.00 Ry     beta= 0.70
     Davidson diagonalization with overlap
     ethr =  1.70E-03,  avg # of iterations =  1.8

     total cpu time spent up to now is       21.2 secs

     total energy              =     -51.53220189 Ry
     estimated scf accuracy    <       0.07228469 Ry

     iteration #  4     ecut=   100.00 Ry     beta= 0.70
     Davidson diagonalization with overlap
     ethr =  5.56E-04,  avg # of iterations =  1.0

     total cpu time spent up to now is       22.5 secs

     total energy              =     -51.49548712 Ry
     estimated scf accuracy    <       0.06667732 Ry

     iteration #  5     ecut=   100.00 Ry     beta= 0.70
     Davidson diagonalization with overlap
     ethr =  5.13E-04,  avg # of iterations =  1.3

     total cpu time spent up to now is       23.9 secs

     total energy              =     -51.50276859 Ry
     estimated scf accuracy    <       0.00170033 Ry

     iteration #  6     ecut=   100.00 Ry     beta= 0.70
     Davidson diagonalization with overlap
     ethr =  1.31E-05,  avg # of iterations =  3.1

     total cpu time spent up to now is       25.6 secs

     total energy              =     -51.50301806 Ry
     estimated scf accuracy    <       0.00027991 Ry

     iteration #  7     ecut=   100.00 Ry     beta= 0.70
     Davidson diagonalization with overlap
     ethr =  2.15E-06,  avg # of iterations =  1.9

     total cpu time spent up to now is       27.0 secs

     total energy              =     -51.50300781 Ry
     estimated scf accuracy    <       0.00016141 Ry

     iteration #  8     ecut=   100.00 Ry     beta= 0.70
     Davidson diagonalization with overlap
     ethr =  1.24E-06,  avg # of iterations =  1.3

     total cpu time spent up to now is       28.4 secs

     total energy              =     -51.50300849 Ry
     estimated scf accuracy    <       0.00003100 Ry

     iteration #  9     ecut=   100.00 Ry     beta= 0.70
     Davidson diagonalization with overlap
     ethr =  2.38E-07,  avg # of iterations =  2.0

     total cpu time spent up to now is       29.7 secs

     total energy              =     -51.50301247 Ry
     estimated scf accuracy    <       0.00000024 Ry

     iteration # 10     ecut=   100.00 Ry     beta= 0.70
     Davidson diagonalization with overlap
     ethr =  1.85E-09,  avg # of iterations =  2.8

     total cpu time spent up to now is       31.2 secs

     total energy              =     -51.50301253 Ry
     estimated scf accuracy    <       0.00000003 Ry

     iteration # 11     ecut=   100.00 Ry     beta= 0.70
     Davidson diagonalization with overlap
     ethr =  2.53E-10,  avg # of iterations =  1.9

     total cpu time spent up to now is       32.5 secs

     End of self-consistent calculation

     Number of k-points >= 100: set verbosity='high' to print the bands.

     the Fermi energy is     8.5272 ev

!    total energy              =     -51.50301254 Ry
     estimated scf accuracy    <          5.7E-10 Ry
     smearing contrib. (-TS)   =       0.00047522 Ry
     internal energy E=F+TS    =     -51.50348776 Ry

     The total energy is F=E-TS. E is the sum of the following terms:
     one-electron contribution =     -14.48027009 Ry
     hartree contribution      =       8.58596785 Ry
     xc contribution           =     -13.85253864 Ry
     ewald contribution        =     -31.75664687 Ry

     convergence has been achieved in  11 iterations

     Forces acting on atoms (cartesian axes, Ry/au):

     atom    1 type  1   force =     0.00000000    0.00000000    0.00000000
     atom    2 type  2   force =     0.00000000   -0.00000000    0.00000000
     atom    3 type  2   force =     0.00000000    0.00000000    0.00000000
     atom    4 type  2   force =    -0.00000000   -0.00000000    0.00000000
     The non-local contrib.  to forces
     atom    1 type  1   force =    -0.00000000   -0.00000000    0.00000000
     atom    2 type  2   force =    -0.00000000   -0.00000000    0.00000000
     atom    3 type  2   force =    -0.00000000   -0.00000000   -0.00000000
     atom    4 type  2   force =    -0.00000000   -0.00000000   -0.00000000
     The ionic contribution  to forces
     atom    1 type  1   force =     0.00000000   -0.00000000   -0.00000000
     atom    2 type  2   force =    -0.00000000    0.00000000   -0.00000000
     atom    3 type  2   force =    -0.00000000   -0.00000000   -0.00000000
     atom    4 type  2   force =     0.00000000   -0.00000000   -0.00000000
     The local contribution  to forces
     atom    1 type  1   force =    -0.00000000   -0.00000000   -0.00000000
     atom    2 type  2   force =    -0.00000000   -0.00000000    0.00000000
     atom    3 type  2   force =    -0.00000000   -0.00000000    0.00000000
     atom    4 type  2   force =    -0.00000000    0.00000000    0.00000000
     The core correction contribution to forces
     atom    1 type  1   force =     0.00000000    0.00000000    0.00000000
     atom    2 type  2   force =     0.00000000    0.00000000    0.00000000
     atom    3 type  2   force =     0.00000000    0.00000000    0.00000000
     atom    4 type  2   force =     0.00000000    0.00000000    0.00000000
     The Hubbard contrib.    to forces
     atom    1 type  1   force =     0.00000000    0.00000000    0.00000000
     atom    2 type  2   force =     0.00000000    0.00000000    0.00000000
     atom    3 type  2   force =     0.00000000    0.00000000    0.00000000
     atom    4 type  2   force =     0.00000000    0.00000000    0.00000000
     The SCF correction term to forces
     atom    1 type  1   force =    -0.00000000   -0.00000000   -0.00000000
     atom    2 type  2   force =     0.00000000    0.00000000   -0.00000000
     atom    3 type  2   force =    -0.00000000    0.00000000   -0.00000000
     atom    4 type  2   force =     0.00000000    0.00000000   -0.00000000

     Total force =     0.000000     Total SCF correction =     0.000000


     Computing stress (Cartesian axis) and pressure

          total   stress  (Ry/bohr**3)                   (kbar)     P=      538.31
   0.00409276  -0.00000000   0.00000000          602.07       -0.00        0.00
  -0.00000000   0.00409276   0.00000000           -0.00      602.07        0.00
   0.00000000   0.00000000   0.00279256            0.00        0.00      410.80

     Energy error            =      6.8E-01 Ry
     Gradient error          =      1.1E-31 Ry/Bohr
     Cell gradient error     =      1.0E+02 kbar

     number of scf cycles    =   2
     number of bfgs steps    =   1

     enthalpy           old  =     -50.0438668143 Ry
     enthalpy           new  =     -50.7267343255 Ry

     CASE: enthalpy          _new < enthalpy          _old

     new trust radius        =       0.0690819318 bohr
ibrav =      4
 celldm(1) =      7.89526744
 celldm(3) =      0.54208664
Input lattice vectors:
     1.24369037    -0.00000000     0.00000000
    -0.62184519     1.07706746     0.00000000
     0.00000000     0.00000000     0.67418793
New lattice vectors in INITIAL alat:
     1.24369037     0.00000000     0.00000000
    -0.62184519     1.07706746     0.00000000
     0.00000000     0.00000000     0.67418793
New lattice vectors in NEW alat (for information only):
     1.00000000     0.00000000     0.00000000
    -0.50000000     0.86602540     0.00000000
     0.00000000     0.00000000     0.54208664
Discrepancy in bohr =     0.000000    0.000000    0.000000
     new conv_thr            =            1.0E-10 Ry

     new unit-cell volume =    231.04675 a.u.^3 (    34.23760 Ang^3 )
     density =      2.37208 g/cm^3

CELL_PARAMETERS (alat=  6.34825805)
   1.243690374   0.000000000   0.000000000
  -0.621845187   1.077067459   0.000000000
   0.000000000   0.000000000   0.674187935

ATOMIC_POSITIONS (crystal)
Si           -0.0000000000       -0.0000000000        0.0000000000
Li            0.0000000000        0.5000000000        0.5000000000
Li            0.5000000000        0.0000000000        0.5000000000
Li            0.5000000000        0.5000000000        0.5000000000



     Writing config-only to output data dir ./output/SiLi.save/
     NEW-OLD atomic charge density approx. for the potential
     extrapolated charge   13.14938, renormalised to   13.00000

     total cpu time spent up to now is       34.1 secs

     Self-consistent Calculation

     iteration #  1     ecut=   100.00 Ry     beta= 0.70
     Davidson diagonalization with overlap
     c_bands:  1 eigenvalues not converged
     ethr =  1.00E-06,  avg # of iterations =  6.7

     total cpu time spent up to now is       36.8 secs

     total energy              =     -51.51780233 Ry
     estimated scf accuracy    <       0.00015106 Ry

     iteration #  2     ecut=   100.00 Ry     beta= 0.70
     Davidson diagonalization with overlap
     ethr =  1.16E-06,  avg # of iterations =  2.0

     total cpu time spent up to now is       38.4 secs

     total energy              =     -51.51803072 Ry
     estimated scf accuracy    <       0.00003519 Ry

     iteration #  3     ecut=   100.00 Ry     beta= 0.70
     Davidson diagonalization with overlap
     ethr =  2.71E-07,  avg # of iterations =  1.0

     total cpu time spent up to now is       39.7 secs

     total energy              =     -51.51802804 Ry
     estimated scf accuracy    <       0.00000593 Ry

     iteration #  4     ecut=   100.00 Ry     beta= 0.70
     Davidson diagonalization with overlap
     ethr =  4.57E-08,  avg # of iterations =  1.9

     total cpu time spent up to now is       41.1 secs

     total energy              =     -51.51802856 Ry
     estimated scf accuracy    <       0.00000004 Ry

     iteration #  5     ecut=   100.00 Ry     beta= 0.70
     Davidson diagonalization with overlap
     ethr =  2.91E-10,  avg # of iterations =  3.2

     total cpu time spent up to now is       42.7 secs

     total energy              =     -51.51802858 Ry
     estimated scf accuracy    <       0.00000003 Ry

     iteration #  6     ecut=   100.00 Ry     beta= 0.70
     Davidson diagonalization with overlap
     ethr =  2.14E-10,  avg # of iterations =  1.1

     total cpu time spent up to now is       43.8 secs

     total energy              =     -51.51802858 Ry
     estimated scf accuracy    <          1.6E-09 Ry

     iteration #  7     ecut=   100.00 Ry     beta= 0.70
     Davidson diagonalization with overlap
     ethr =  1.24E-11,  avg # of iterations =  2.1

     total cpu time spent up to now is       45.2 secs

     End of self-consistent calculation

     Number of k-points >= 100: set verbosity='high' to print the bands.

     the Fermi energy is     8.4259 ev

!    total energy              =     -51.51802858 Ry
     estimated scf accuracy    <          6.1E-12 Ry
     smearing contrib. (-TS)   =      -0.00006016 Ry
     internal energy E=F+TS    =     -51.51796842 Ry

     The total energy is F=E-TS. E is the sum of the following terms:
     one-electron contribution =     -14.59571288 Ry
     hartree contribution      =       8.58922906 Ry
     xc contribution           =     -13.83926654 Ry
     ewald contribution        =     -31.67221806 Ry

     convergence has been achieved in   7 iterations

     Forces acting on atoms (cartesian axes, Ry/au):

     atom    1 type  1   force =     0.00000000    0.00000000   -0.00000000
     atom    2 type  2   force =    -0.00000000    0.00000000    0.00000000
     atom    3 type  2   force =     0.00000000   -0.00000000   -0.00000000
     atom    4 type  2   force =    -0.00000000   -0.00000000   -0.00000000
     The non-local contrib.  to forces
     atom    1 type  1   force =     0.00000000    0.00000000    0.00000000
     atom    2 type  2   force =     0.00000000    0.00000000    0.00000000
     atom    3 type  2   force =     0.00000000    0.00000000    0.00000000
     atom    4 type  2   force =    -0.00000000   -0.00000000    0.00000000
     The ionic contribution  to forces
     atom    1 type  1   force =     0.00000000    0.00000000   -0.00000000
     atom    2 type  2   force =    -0.00000000    0.00000000    0.00000000
     atom    3 type  2   force =     0.00000000    0.00000000    0.00000000
     atom    4 type  2   force =     0.00000000   -0.00000000    0.00000000
     The local contribution  to forces
     atom    1 type  1   force =    -0.00000000   -0.00000000    0.00000000
     atom    2 type  2   force =     0.00000000   -0.00000000   -0.00000000
     atom    3 type  2   force =    -0.00000000   -0.00000000   -0.00000000
     atom    4 type  2   force =    -0.00000000   -0.00000000   -0.00000000
     The core correction contribution to forces
     atom    1 type  1   force =     0.00000000    0.00000000   -0.00000000
     atom    2 type  2   force =     0.00000000    0.00000000    0.00000000
     atom    3 type  2   force =     0.00000000    0.00000000    0.00000000
     atom    4 type  2   force =     0.00000000    0.00000000    0.00000000
     The Hubbard contrib.    to forces
     atom    1 type  1   force =     0.00000000    0.00000000    0.00000000
     atom    2 type  2   force =     0.00000000    0.00000000    0.00000000
     atom    3 type  2   force =     0.00000000    0.00000000    0.00000000
     atom    4 type  2   force =     0.00000000    0.00000000    0.00000000
     The SCF correction term to forces
     atom    1 type  1   force =    -0.00000000    0.00000000    0.00000000
     atom    2 type  2   force =    -0.00000000    0.00000000    0.00000000
     atom    3 type  2   force =     0.00000000    0.00000000    0.00000000
     atom    4 type  2   force =     0.00000000    0.00000000    0.00000000

     Total force =     0.000000     Total SCF correction =     0.000000


     Computing stress (Cartesian axis) and pressure

          total   stress  (Ry/bohr**3)                   (kbar)     P=      514.38
   0.00365691   0.00000000   0.00000000          537.95        0.00        0.00
   0.00000000   0.00365691   0.00000000            0.00      537.95        0.00
   0.00000000   0.00000000   0.00317616            0.00        0.00      467.23

     Energy error            =      6.0E-03 Ry
     Gradient error          =      1.2E-31 Ry/Bohr
     Cell gradient error     =      3.8E+01 kbar

     number of scf cycles    =   3
     number of bfgs steps    =   2

     enthalpy           old  =     -50.7267343255 Ry
     enthalpy           new  =     -50.7327166272 Ry

     CASE: enthalpy          _new < enthalpy          _old

     new trust radius        =       0.0427490424 bohr
ibrav =      4
 celldm(1) =      7.97585339
 celldm(3) =      0.52906374
Input lattice vectors:
     1.25638456     0.00000000     0.00000000
    -0.62819228     1.08806094     0.00000000
     0.00000000     0.00000000     0.66470752
New lattice vectors in INITIAL alat:
     1.25638456     0.00000000     0.00000000
    -0.62819228     1.08806094     0.00000000
     0.00000000     0.00000000     0.66470752
New lattice vectors in NEW alat (for information only):
     1.00000000     0.00000000     0.00000000
    -0.50000000     0.86602540     0.00000000
     0.00000000     0.00000000     0.52906374
Discrepancy in bohr =     0.000000    0.000000    0.000000
     new conv_thr            =            1.0E-10 Ry

     new unit-cell volume =    232.47171 a.u.^3 (    34.44875 Ang^3 )
     density =      2.35754 g/cm^3

CELL_PARAMETERS (alat=  6.34825805)
   1.256384558   0.000000000   0.000000000
  -0.628192279   1.088060944   0.000000000
   0.000000000   0.000000000   0.664707518

ATOMIC_POSITIONS (crystal)
Si            0.0000000000        0.0000000000       -0.0000000000
Li            0.0000000000        0.5000000000        0.5000000000
Li            0.5000000000       -0.0000000000        0.5000000000
Li            0.5000000000        0.5000000000        0.5000000000



     Writing config-only to output data dir ./output/SiLi.save/
     NEW-OLD atomic charge density approx. for the potential
     extrapolated charge   13.07960, renormalised to   13.00000

     total cpu time spent up to now is       46.7 secs

     Self-consistent Calculation

     iteration #  1     ecut=   100.00 Ry     beta= 0.70
     Davidson diagonalization with overlap
     ethr =  1.00E-06,  avg # of iterations =  5.8

     total cpu time spent up to now is       49.1 secs

     total energy              =     -51.52373671 Ry
     estimated scf accuracy    <       0.00006433 Ry

     iteration #  2     ecut=   100.00 Ry     beta= 0.70
     Davidson diagonalization with overlap
     ethr =  4.95E-07,  avg # of iterations =  2.0

     total cpu time spent up to now is       50.6 secs

     total energy              =     -51.52380316 Ry
     estimated scf accuracy    <       0.00001141 Ry

     iteration #  3     ecut=   100.00 Ry     beta= 0.70
     Davidson diagonalization with overlap
     ethr =  8.78E-08,  avg # of iterations =  1.0

     total cpu time spent up to now is       51.7 secs

     total energy              =     -51.52380290 Ry
     estimated scf accuracy    <       0.00000165 Ry

     iteration #  4     ecut=   100.00 Ry     beta= 0.70
     Davidson diagonalization with overlap
     ethr =  1.27E-08,  avg # of iterations =  2.0

     total cpu time spent up to now is       53.2 secs

     total energy              =     -51.52380301 Ry
     estimated scf accuracy    <       0.00000055 Ry

     iteration #  5     ecut=   100.00 Ry     beta= 0.70
     Davidson diagonalization with overlap
     ethr =  4.26E-09,  avg # of iterations =  2.0

     total cpu time spent up to now is       54.5 secs

     total energy              =     -51.52380313 Ry
     estimated scf accuracy    <          2.0E-09 Ry

     iteration #  6     ecut=   100.00 Ry     beta= 0.70
     Davidson diagonalization with overlap
     ethr =  1.53E-11,  avg # of iterations =  2.7

     total cpu time spent up to now is       55.9 secs

     total energy              =     -51.52380313 Ry
     estimated scf accuracy    <          1.0E-10 Ry

     iteration #  7     ecut=   100.00 Ry     beta= 0.70
     Davidson diagonalization with overlap
     ethr =  7.83E-13,  avg # of iterations =  2.0

     total cpu time spent up to now is       57.2 secs

     End of self-consistent calculation

     Number of k-points >= 100: set verbosity='high' to print the bands.

     the Fermi energy is     8.3910 ev

!    total energy              =     -51.52380313 Ry
     estimated scf accuracy    <          7.1E-13 Ry
     smearing contrib. (-TS)   =      -0.00026830 Ry
     internal energy E=F+TS    =     -51.52353482 Ry

     The total energy is F=E-TS. E is the sum of the following terms:
     one-electron contribution =     -14.66175935 Ry
     hartree contribution      =       8.59184342 Ry
     xc contribution           =     -13.83255614 Ry
     ewald contribution        =     -31.62106275 Ry

     convergence has been achieved in   7 iterations

     Forces acting on atoms (cartesian axes, Ry/au):

     atom    1 type  1   force =     0.00000000    0.00000000   -0.00000000
     atom    2 type  2   force =     0.00000000   -0.00000000    0.00000000
     atom    3 type  2   force =     0.00000000   -0.00000000   -0.00000000
     atom    4 type  2   force =     0.00000000    0.00000000    0.00000000
     The non-local contrib.  to forces
     atom    1 type  1   force =     0.00000000    0.00000000    0.00000000
     atom    2 type  2   force =     0.00000000    0.00000000   -0.00000000
     atom    3 type  2   force =     0.00000000    0.00000000    0.00000000
     atom    4 type  2   force =     0.00000000    0.00000000    0.00000000
     The ionic contribution  to forces
     atom    1 type  1   force =     0.00000000    0.00000000   -0.00000000
     atom    2 type  2   force =    -0.00000000    0.00000000    0.00000000
     atom    3 type  2   force =     0.00000000    0.00000000    0.00000000
     atom    4 type  2   force =     0.00000000    0.00000000    0.00000000
     The local contribution  to forces
     atom    1 type  1   force =    -0.00000000   -0.00000000   -0.00000000
     atom    2 type  2   force =     0.00000000   -0.00000000   -0.00000000
     atom    3 type  2   force =    -0.00000000    0.00000000   -0.00000000
     atom    4 type  2   force =    -0.00000000   -0.00000000   -0.00000000
     The core correction contribution to forces
     atom    1 type  1   force =     0.00000000    0.00000000   -0.00000000
     atom    2 type  2   force =     0.00000000    0.00000000    0.00000000
     atom    3 type  2   force =     0.00000000    0.00000000    0.00000000
     atom    4 type  2   force =     0.00000000    0.00000000    0.00000000
     The Hubbard contrib.    to forces
     atom    1 type  1   force =     0.00000000    0.00000000    0.00000000
     atom    2 type  2   force =     0.00000000    0.00000000    0.00000000
     atom    3 type  2   force =     0.00000000    0.00000000    0.00000000
     atom    4 type  2   force =     0.00000000    0.00000000    0.00000000
     The SCF correction term to forces
     atom    1 type  1   force =    -0.00000000   -0.00000000   -0.00000000
     atom    2 type  2   force =     0.00000000    0.00000000   -0.00000000
     atom    3 type  2   force =     0.00000000   -0.00000000    0.00000000
     atom    4 type  2   force =     0.00000000   -0.00000000    0.00000000

     Total force =     0.000000     Total SCF correction =     0.000000


     Computing stress (Cartesian axis) and pressure

          total   stress  (Ry/bohr**3)                   (kbar)     P=      502.57
   0.00340524   0.00000000   0.00000000          500.93        0.00        0.00
   0.00000000   0.00340524   0.00000000            0.00      500.93        0.00
  -0.00000000  -0.00000000   0.00343874           -0.00       -0.00      505.86

     Energy error            =      9.3E-04 Ry
     Gradient error          =      3.1E-31 Ry/Bohr
     Cell gradient error     =      5.9E+00 kbar

     number of scf cycles    =   4
     number of bfgs steps    =   3

     enthalpy           old  =     -50.7327166272 Ry
     enthalpy           new  =     -50.7336478260 Ry

     CASE: enthalpy          _new < enthalpy          _old

     new trust radius        =       0.0035758373 bohr
ibrav =      4
 celldm(1) =      7.97368300
 celldm(3) =      0.52982832
Input lattice vectors:
     1.25604267     0.00000000    -0.00000000
    -0.62802134     1.08776486    -0.00000000
     0.00000000     0.00000000     0.66548698
New lattice vectors in INITIAL alat:
     1.25604267     0.00000000     0.00000000
    -0.62802134     1.08776486     0.00000000
     0.00000000     0.00000000     0.66548698
New lattice vectors in NEW alat (for information only):
     1.00000000     0.00000000     0.00000000
    -0.50000000     0.86602540     0.00000000
     0.00000000     0.00000000     0.52982832
Discrepancy in bohr =     0.000000    0.000000    0.000000
     new conv_thr            =            1.0E-10 Ry

     new unit-cell volume =    232.61767 a.u.^3 (    34.47038 Ang^3 )
     density =      2.35607 g/cm^3

CELL_PARAMETERS (alat=  6.34825805)
   1.256042671   0.000000000   0.000000000
  -0.628021335   1.087764861   0.000000000
   0.000000000   0.000000000   0.665486977

ATOMIC_POSITIONS (crystal)
Si            0.0000000000        0.0000000000       -0.0000000000
Li            0.0000000000        0.5000000000        0.5000000000
Li            0.5000000000       -0.0000000000        0.5000000000
Li            0.5000000000        0.5000000000        0.5000000000



     Writing config-only to output data dir ./output/SiLi.save/
     NEW-OLD atomic charge density approx. for the potential
     extrapolated charge   13.00815, renormalised to   13.00000

     total cpu time spent up to now is       58.7 secs

     Self-consistent Calculation

     iteration #  1     ecut=   100.00 Ry     beta= 0.70
     Davidson diagonalization with overlap
     ethr =  1.00E-06,  avg # of iterations =  2.0

     Threshold (ethr) on eigenvalues was too large:
     Diagonalizing with lowered threshold

     Davidson diagonalization with overlap
     ethr =  6.25E-09,  avg # of iterations =  2.4

     total cpu time spent up to now is       61.4 secs

     total energy              =     -51.52430398 Ry
     estimated scf accuracy    <       0.00000082 Ry

     iteration #  2     ecut=   100.00 Ry     beta= 0.70
     Davidson diagonalization with overlap
     ethr =  6.33E-09,  avg # of iterations =  2.0

     total cpu time spent up to now is       62.9 secs

     total energy              =     -51.52430493 Ry
     estimated scf accuracy    <       0.00000085 Ry

     iteration #  3     ecut=   100.00 Ry     beta= 0.70
     Davidson diagonalization with overlap
     ethr =  6.33E-09,  avg # of iterations =  1.8

     total cpu time spent up to now is       64.1 secs

     total energy              =     -51.52430503 Ry
     estimated scf accuracy    <       0.00000004 Ry

     iteration #  4     ecut=   100.00 Ry     beta= 0.70
     Davidson diagonalization with overlap
     ethr =  3.43E-10,  avg # of iterations =  1.2

     total cpu time spent up to now is       65.3 secs

     total energy              =     -51.52430502 Ry
     estimated scf accuracy    <       0.00000001 Ry

     iteration #  5     ecut=   100.00 Ry     beta= 0.70
     Davidson diagonalization with overlap
     ethr =  9.44E-11,  avg # of iterations =  2.0

     total cpu time spent up to now is       66.6 secs

     End of self-consistent calculation

     Number of k-points >= 100: set verbosity='high' to print the bands.

     the Fermi energy is     8.3829 ev

!    total energy              =     -51.52430502 Ry
     estimated scf accuracy    <          6.7E-11 Ry
     smearing contrib. (-TS)   =      -0.00025750 Ry
     internal energy E=F+TS    =     -51.52404752 Ry

     The total energy is F=E-TS. E is the sum of the following terms:
     one-electron contribution =     -14.67263568 Ry
     hartree contribution      =       8.59399288 Ry
     xc contribution           =     -13.83157412 Ry
     ewald contribution        =     -31.61383060 Ry

     convergence has been achieved in   5 iterations

     Forces acting on atoms (cartesian axes, Ry/au):

     atom    1 type  1   force =     0.00000000    0.00000000    0.00000000
     atom    2 type  2   force =    -0.00000000   -0.00000000    0.00000000
     atom    3 type  2   force =     0.00000000   -0.00000000    0.00000000
     atom    4 type  2   force =    -0.00000000   -0.00000000   -0.00000000
     The non-local contrib.  to forces
     atom    1 type  1   force =    -0.00000000    0.00000000    0.00000000
     atom    2 type  2   force =    -0.00000000   -0.00000000   -0.00000000
     atom    3 type  2   force =     0.00000000    0.00000000    0.00000000
     atom    4 type  2   force =     0.00000000    0.00000000    0.00000000
     The ionic contribution  to forces
     atom    1 type  1   force =     0.00000000    0.00000000   -0.00000000
     atom    2 type  2   force =    -0.00000000    0.00000000    0.00000000
     atom    3 type  2   force =     0.00000000    0.00000000    0.00000000
     atom    4 type  2   force =     0.00000000    0.00000000    0.00000000
     The local contribution  to forces
     atom    1 type  1   force =    -0.00000000   -0.00000000   -0.00000000
     atom    2 type  2   force =     0.00000000   -0.00000000   -0.00000000
     atom    3 type  2   force =    -0.00000000    0.00000000   -0.00000000
     atom    4 type  2   force =    -0.00000000   -0.00000000   -0.00000000
     The core correction contribution to forces
     atom    1 type  1   force =     0.00000000    0.00000000   -0.00000000
     atom    2 type  2   force =     0.00000000    0.00000000    0.00000000
     atom    3 type  2   force =     0.00000000    0.00000000    0.00000000
     atom    4 type  2   force =     0.00000000    0.00000000    0.00000000
     The Hubbard contrib.    to forces
     atom    1 type  1   force =     0.00000000    0.00000000    0.00000000
     atom    2 type  2   force =     0.00000000    0.00000000    0.00000000
     atom    3 type  2   force =     0.00000000    0.00000000    0.00000000
     atom    4 type  2   force =     0.00000000    0.00000000    0.00000000
     The SCF correction term to forces
     atom    1 type  1   force =    -0.00000000    0.00000000   -0.00000000
     atom    2 type  2   force =     0.00000000    0.00000000   -0.00000000
     atom    3 type  2   force =     0.00000000    0.00000000    0.00000000
     atom    4 type  2   force =     0.00000000    0.00000000   -0.00000000

     Total force =     0.000000     Total SCF correction =     0.000000


     Computing stress (Cartesian axis) and pressure

          total   stress  (Ry/bohr**3)                   (kbar)     P=      501.26
   0.00340700   0.00000000   0.00000000          501.19        0.00        0.00
   0.00000000   0.00340700  -0.00000000            0.00      501.19       -0.00
   0.00000000   0.00000000   0.00340849            0.00        0.00      501.41

     Energy error            =      5.8E-06 Ry
     Gradient error          =      4.5E-31 Ry/Bohr
     Cell gradient error     =      1.4E+00 kbar

     number of scf cycles    =   5
     number of bfgs steps    =   4

     enthalpy           old  =     -50.7336478260 Ry
     enthalpy           new  =     -50.7336536377 Ry

     CASE: enthalpy          _new < enthalpy          _old

     new trust radius        =       0.0007300067 bohr
ibrav =      4
 celldm(1) =      7.97467710
 celldm(3) =      0.52988905
Input lattice vectors:
     1.25619927     0.00000000     0.00000000
    -0.62809963     1.08790048     0.00000000
     0.00000000    -0.00000000     0.66564624
New lattice vectors in INITIAL alat:
     1.25619927     0.00000000     0.00000000
    -0.62809963     1.08790048     0.00000000
     0.00000000     0.00000000     0.66564624
New lattice vectors in NEW alat (for information only):
     1.00000000     0.00000000     0.00000000
    -0.50000000     0.86602540     0.00000000
     0.00000000     0.00000000     0.52988905
Discrepancy in bohr =     0.000000    0.000000    0.000000
     new conv_thr            =            1.0E-10 Ry

     new unit-cell volume =    232.73136 a.u.^3 (    34.48723 Ang^3 )
     density =      2.35491 g/cm^3

CELL_PARAMETERS (alat=  6.34825805)
   1.256199265   0.000000000   0.000000000
  -0.628099633   1.087900476   0.000000000
   0.000000000   0.000000000   0.665646240

ATOMIC_POSITIONS (crystal)
Si            0.0000000000        0.0000000000       -0.0000000000
Li           -0.0000000000        0.5000000000        0.5000000000
Li            0.5000000000       -0.0000000000        0.5000000000
Li            0.5000000000        0.5000000000        0.5000000000



     Writing config-only to output data dir ./output/SiLi.save/
     NEW-OLD atomic charge density approx. for the potential
     extrapolated charge   13.00634, renormalised to   13.00000

     total cpu time spent up to now is       68.1 secs

     Self-consistent Calculation

     iteration #  1     ecut=   100.00 Ry     beta= 0.70
     Davidson diagonalization with overlap
     ethr =  1.00E-06,  avg # of iterations =  1.0

     Threshold (ethr) on eigenvalues was too large:
     Diagonalizing with lowered threshold

     Davidson diagonalization with overlap
     ethr =  1.30E-09,  avg # of iterations =  2.7

     total cpu time spent up to now is       70.8 secs

     total energy              =     -51.52469157 Ry
     estimated scf accuracy    <       0.00000016 Ry

     iteration #  2     ecut=   100.00 Ry     beta= 0.70
     Davidson diagonalization with overlap
     ethr =  1.26E-09,  avg # of iterations =  2.3

     total cpu time spent up to now is       72.2 secs

     total energy              =     -51.52469204 Ry
     estimated scf accuracy    <       0.00000023 Ry

     iteration #  3     ecut=   100.00 Ry     beta= 0.70
     Davidson diagonalization with overlap
     ethr =  1.26E-09,  avg # of iterations =  1.5

     total cpu time spent up to now is       73.5 secs

     total energy              =     -51.52469205 Ry
     estimated scf accuracy    <       0.00000003 Ry

     iteration #  4     ecut=   100.00 Ry     beta= 0.70
     Davidson diagonalization with overlap
     ethr =  2.24E-10,  avg # of iterations =  1.0

     total cpu time spent up to now is       74.6 secs

     total energy              =     -51.52469204 Ry
     estimated scf accuracy    <       0.00000001 Ry

     iteration #  5     ecut=   100.00 Ry     beta= 0.70
     Davidson diagonalization with overlap
     ethr =  1.15E-10,  avg # of iterations =  2.0

     total cpu time spent up to now is       75.9 secs

     End of self-consistent calculation

     Number of k-points >= 100: set verbosity='high' to print the bands.

     the Fermi energy is     8.3778 ev

!    total energy              =     -51.52469204 Ry
     estimated scf accuracy    <          8.7E-11 Ry
     smearing contrib. (-TS)   =      -0.00025582 Ry
     internal energy E=F+TS    =     -51.52443623 Ry

     The total energy is F=E-TS. E is the sum of the following terms:
     one-electron contribution =     -14.68011958 Ry
     hartree contribution      =       8.59520670 Ry
     xc contribution           =     -13.83089145 Ry
     ewald contribution        =     -31.60863190 Ry

     convergence has been achieved in   5 iterations

     Forces acting on atoms (cartesian axes, Ry/au):

     atom    1 type  1   force =     0.00000000    0.00000000    0.00000000
     atom    2 type  2   force =     0.00000000    0.00000000    0.00000000
     atom    3 type  2   force =     0.00000000    0.00000000    0.00000000
     atom    4 type  2   force =    -0.00000000    0.00000000    0.00000000
     The non-local contrib.  to forces
     atom    1 type  1   force =     0.00000000   -0.00000000   -0.00000000
     atom    2 type  2   force =    -0.00000000   -0.00000000   -0.00000000
     atom    3 type  2   force =     0.00000000    0.00000000    0.00000000
     atom    4 type  2   force =     0.00000000    0.00000000    0.00000000
     The ionic contribution  to forces
     atom    1 type  1   force =     0.00000000    0.00000000   -0.00000000
     atom    2 type  2   force =    -0.00000000    0.00000000    0.00000000
     atom    3 type  2   force =     0.00000000    0.00000000    0.00000000
     atom    4 type  2   force =     0.00000000    0.00000000    0.00000000
     The local contribution  to forces
     atom    1 type  1   force =    -0.00000000   -0.00000000   -0.00000000
     atom    2 type  2   force =     0.00000000   -0.00000000   -0.00000000
     atom    3 type  2   force =    -0.00000000    0.00000000   -0.00000000
     atom    4 type  2   force =    -0.00000000   -0.00000000    0.00000000
     The core correction contribution to forces
     atom    1 type  1   force =     0.00000000   -0.00000000    0.00000000
     atom    2 type  2   force =     0.00000000    0.00000000    0.00000000
     atom    3 type  2   force =     0.00000000    0.00000000    0.00000000
     atom    4 type  2   force =     0.00000000    0.00000000    0.00000000
     The Hubbard contrib.    to forces
     atom    1 type  1   force =     0.00000000    0.00000000    0.00000000
     atom    2 type  2   force =     0.00000000    0.00000000    0.00000000
     atom    3 type  2   force =     0.00000000    0.00000000    0.00000000
     atom    4 type  2   force =     0.00000000    0.00000000    0.00000000
     The SCF correction term to forces
     atom    1 type  1   force =    -0.00000000    0.00000000   -0.00000000
     atom    2 type  2   force =     0.00000000    0.00000000    0.00000000
     atom    3 type  2   force =    -0.00000000   -0.00000000    0.00000000
     atom    4 type  2   force =    -0.00000000   -0.00000000    0.00000000

     Total force =     0.000000     Total SCF correction =     0.000000


     Computing stress (Cartesian axis) and pressure

          total   stress  (Ry/bohr**3)                   (kbar)     P=      500.29
   0.00340130   0.00000000   0.00000000          500.35        0.00        0.00
   0.00000000   0.00340130  -0.00000000            0.00      500.35       -0.00
   0.00000000  -0.00000000   0.00340007            0.00       -0.00      500.17

     Energy error            =      6.0E-07 Ry
     Gradient error          =      2.1E-31 Ry/Bohr
     Cell gradient error     =      3.5E-01 kbar
ibrav =      4
 celldm(1) =      7.97467710
 celldm(3) =      0.52988905
Input lattice vectors:
     1.25619927     0.00000000     0.00000000
    -0.62809963     1.08790048     0.00000000
     0.00000000     0.00000000     0.66564624
New lattice vectors in INITIAL alat:
     1.25619927     0.00000000     0.00000000
    -0.62809963     1.08790048     0.00000000
     0.00000000     0.00000000     0.66564624
New lattice vectors in NEW alat (for information only):
     1.00000000     0.00000000     0.00000000
    -0.50000000     0.86602540     0.00000000
     0.00000000     0.00000000     0.52988905
Discrepancy in bohr =     0.000000    0.000000    0.000000

     bfgs converged in   6 scf cycles and   5 bfgs steps
     (criteria: energy <  1.0E-04 Ry, force <  1.0E-03 Ry/Bohr, cell <  5.0E-01 kbar)

     End of BFGS Geometry Optimization

     Final enthalpy           =     -50.7336542376 Ry

     File ./output/SiLi.bfgs deleted, as requested
Begin final coordinates
     new unit-cell volume =    232.73136 a.u.^3 (    34.48723 Ang^3 )
     density =      2.35491 g/cm^3

CELL_PARAMETERS (alat=  6.34825805)
   1.256199265   0.000000000   0.000000000
  -0.628099633   1.087900476   0.000000000
   0.000000000   0.000000000   0.665646240

ATOMIC_POSITIONS (crystal)
Si            0.0000000000        0.0000000000       -0.0000000000
Li           -0.0000000000        0.5000000000        0.5000000000
Li            0.5000000000       -0.0000000000        0.5000000000
Li            0.5000000000        0.5000000000        0.5000000000
End final coordinates



     Writing config-only to output data dir ./output/SiLi.save/

     Final scf calculation at the relaxed structure.
     The G-vectors are recalculated for the final unit cell
     Results may differ from those at the preceding step.

     Parallelization info
     --------------------
     sticks:   dense  smooth     PW     G-vecs:    dense   smooth      PW
     Min         219     219     63                 3929     3929     637
     Max         221     221     64                 3930     3930     640
     Sum        1759    1759    511                31437    31437    5109

     Using Slab Decomposition



     bravais-lattice index     =            4
     lattice parameter (alat)  =       6.3483  a.u.
     unit-cell volume          =     232.7314 (a.u.)^3
     number of atoms/cell      =            4
     number of atomic types    =            2
     number of electrons       =        13.00
     number of Kohn-Sham states=           11
     kinetic-energy cutoff     =     100.0000  Ry
     charge density cutoff     =     400.0000  Ry
     scf convergence threshold =      1.0E-10
     mixing beta               =       0.7000
     number of iterations used =            8  plain     mixing
     press convergence thresh. =      5.0E-01
     Exchange-correlation= PBE
                           (   1   4   3   4   0   0   0)

     celldm(1)=   6.348258  celldm(2)=   0.000000  celldm(3)=   0.570810
     celldm(4)=   0.000000  celldm(5)=   0.000000  celldm(6)=   0.000000

     crystal axes: (cart. coord. in units of alat)
               a(1) = (   1.256199   0.000000   0.000000 )  
               a(2) = (  -0.628100   1.087900   0.000000 )  
               a(3) = (   0.000000   0.000000   0.665646 )  

     reciprocal axes: (cart. coord. in units 2 pi/alat)
               b(1) = (  0.796052  0.459601 -0.000000 )  
               b(2) = (  0.000000  0.919202  0.000000 )  
               b(3) = (  0.000000 -0.000000  1.502299 )  


     PseudoPot. # 1 for Si read from file:
     ../pseudo/Si_ONCV_PBE_sr.upf
     MD5 check sum: e543d271109d17c80368dfa7c482276d
     Pseudo is Norm-conserving + core correction, Zval =  4.0
     Generated using ONCVPSP code by D. R. Hamann
     Using radial grid of 1510 points,  6 beta functions with: 
                l(1) =   0
                l(2) =   0
                l(3) =   1
                l(4) =   1
                l(5) =   2
                l(6) =   2

     PseudoPot. # 2 for Li read from file:
     ../pseudo/Li_ONCV_PBE_sr.upf
     MD5 check sum: 50ff420e78310ffa21704f3361e624a4
     Pseudo is Norm-conserving, Zval =  3.0
     Generated using ONCVPSP code by D. R. Hamann
     Using radial grid of 1944 points,  4 beta functions with: 
                l(1) =   0
                l(2) =   0
                l(3) =   1
                l(4) =   1

     atomic species   valence    mass     pseudopotential
        Si             4.00    28.08550     Si( 1.00)
        Li             3.00     6.94100     Li( 1.00)

     24 Sym. Ops., with inversion, found



   Cartesian axes

     site n.     atom                  positions (alat units)
         1           Si  tau(   1) = (   0.0000000   0.0000000  -0.0000000  )
         2           Li  tau(   2) = (  -0.3140498   0.5439502   0.3328231  )
         3           Li  tau(   3) = (   0.6280996  -0.0000000   0.3328231  )
         4           Li  tau(   4) = (   0.3140498   0.5439502   0.3328231  )

     number of k points=   209  Marzari-Vanderbilt smearing, width (Ry)=  0.0200

     Number of k-points >= 100: set verbosity='high' to print them.

     Dense  grid:    31437 G-vectors     FFT dimensions: (  54,  54,  27)

     Estimated max dynamical RAM per process >      33.41 MB

     Estimated total dynamical RAM >     267.29 MB

     Initial potential from superposition of free atoms

     starting charge      12.9857, renormalised to      13.0000
     Starting wfcs are   10 randomized atomic wfcs +    1 random wfcs

     total cpu time spent up to now is       78.5 secs

     Self-consistent Calculation

     iteration #  1     ecut=   100.00 Ry     beta= 0.70
     Davidson diagonalization with overlap
     c_bands:  1 eigenvalues not converged
     c_bands:  2 eigenvalues not converged
     c_bands:  2 eigenvalues not converged
     c_bands:  1 eigenvalues not converged
     c_bands:  1 eigenvalues not converged
     c_bands:  1 eigenvalues not converged
     c_bands:  1 eigenvalues not converged
     c_bands:  1 eigenvalues not converged
     c_bands:  1 eigenvalues not converged
     c_bands:  1 eigenvalues not converged
     c_bands:  2 eigenvalues not converged
     c_bands:  1 eigenvalues not converged
     c_bands:  1 eigenvalues not converged
     c_bands:  1 eigenvalues not converged
     c_bands:  1 eigenvalues not converged
     c_bands:  1 eigenvalues not converged
     c_bands:  1 eigenvalues not converged
     c_bands:  1 eigenvalues not converged
     c_bands:  2 eigenvalues not converged
     c_bands:  1 eigenvalues not converged
     c_bands:  1 eigenvalues not converged
     c_bands:  1 eigenvalues not converged
     c_bands:  1 eigenvalues not converged
     c_bands:  2 eigenvalues not converged
     c_bands:  1 eigenvalues not converged
     ethr =  1.00E-06,  avg # of iterations = 16.2

     total cpu time spent up to now is       85.5 secs

     total energy              =     -51.52529231 Ry
     estimated scf accuracy    <       0.01209552 Ry

     iteration #  2     ecut=   100.00 Ry     beta= 0.70
     Davidson diagonalization with overlap
     ethr =  9.30E-05,  avg # of iterations =  1.0

     total cpu time spent up to now is       87.3 secs

     total energy              =     -51.52541172 Ry
     estimated scf accuracy    <       0.00110244 Ry

     iteration #  3     ecut=   100.00 Ry     beta= 0.70
     Davidson diagonalization with overlap
     ethr =  8.48E-06,  avg # of iterations =  2.0

     total cpu time spent up to now is       89.3 secs

     total energy              =     -51.52550022 Ry
     estimated scf accuracy    <       0.00042214 Ry

     iteration #  4     ecut=   100.00 Ry     beta= 0.70
     Davidson diagonalization with overlap
     ethr =  3.25E-06,  avg # of iterations =  2.0

     total cpu time spent up to now is       91.3 secs

     total energy              =     -51.52557996 Ry
     estimated scf accuracy    <       0.00000213 Ry

     iteration #  5     ecut=   100.00 Ry     beta= 0.70
     Davidson diagonalization with overlap
     ethr =  1.64E-08,  avg # of iterations =  2.0

     total cpu time spent up to now is       93.3 secs

     total energy              =     -51.52558032 Ry
     estimated scf accuracy    <          4.4E-09 Ry

     iteration #  6     ecut=   100.00 Ry     beta= 0.70
     Davidson diagonalization with overlap
     ethr =  3.35E-11,  avg # of iterations =  4.0

     total cpu time spent up to now is       95.9 secs

     total energy              =     -51.52558033 Ry
     estimated scf accuracy    <          1.4E-10 Ry

     iteration #  7     ecut=   100.00 Ry     beta= 0.70
     Davidson diagonalization with overlap
     ethr =  1.04E-12,  avg # of iterations =  1.9

     total cpu time spent up to now is       97.8 secs

     End of self-consistent calculation

     Number of k-points >= 100: set verbosity='high' to print the bands.

     the Fermi energy is     8.3775 ev

!    total energy              =     -51.52558033 Ry
     estimated scf accuracy    <          3.5E-12 Ry
     smearing contrib. (-TS)   =      -0.00025584 Ry
     internal energy E=F+TS    =     -51.52532449 Ry

     The total energy is F=E-TS. E is the sum of the following terms:
     one-electron contribution =     -14.68247180 Ry
     hartree contribution      =       8.59772922 Ry
     xc contribution           =     -13.83195001 Ry
     ewald contribution        =     -31.60863190 Ry

     convergence has been achieved in   7 iterations

     Forces acting on atoms (cartesian axes, Ry/au):

     atom    1 type  1   force =     0.00000000    0.00000000    0.00000000
     atom    2 type  2   force =     0.00000000    0.00000000    0.00000000
     atom    3 type  2   force =     0.00000000    0.00000000    0.00000000
     atom    4 type  2   force =    -0.00000000   -0.00000000   -0.00000000
     The non-local contrib.  to forces
     atom    1 type  1   force =     0.00000000   -0.00000000    0.00000000
     atom    2 type  2   force =     0.00000000    0.00000000    0.00000000
     atom    3 type  2   force =    -0.00000000    0.00000000   -0.00000000
     atom    4 type  2   force =    -0.00000000    0.00000000   -0.00000000
     The ionic contribution  to forces
     atom    1 type  1   force =     0.00000000    0.00000000   -0.00000000
     atom    2 type  2   force =    -0.00000000    0.00000000    0.00000000
     atom    3 type  2   force =     0.00000000    0.00000000    0.00000000
     atom    4 type  2   force =    -0.00000000   -0.00000000    0.00000000
     The local contribution  to forces
     atom    1 type  1   force =     0.00000000   -0.00000000    0.00000000
     atom    2 type  2   force =     0.00000000   -0.00000000   -0.00000000
     atom    3 type  2   force =    -0.00000000    0.00000000   -0.00000000
     atom    4 type  2   force =    -0.00000000   -0.00000000   -0.00000000
     The core correction contribution to forces
     atom    1 type  1   force =     0.00000000    0.00000000    0.00000000
     atom    2 type  2   force =     0.00000000    0.00000000    0.00000000
     atom    3 type  2   force =     0.00000000    0.00000000    0.00000000
     atom    4 type  2   force =     0.00000000    0.00000000    0.00000000
     The Hubbard contrib.    to forces
     atom    1 type  1   force =     0.00000000    0.00000000    0.00000000
     atom    2 type  2   force =     0.00000000    0.00000000    0.00000000
     atom    3 type  2   force =     0.00000000    0.00000000    0.00000000
     atom    4 type  2   force =     0.00000000    0.00000000    0.00000000
     The SCF correction term to forces
     atom    1 type  1   force =    -0.00000000    0.00000000   -0.00000000
     atom    2 type  2   force =    -0.00000000    0.00000000   -0.00000000
     atom    3 type  2   force =    -0.00000000    0.00000000    0.00000000
     atom    4 type  2   force =    -0.00000000    0.00000000    0.00000000

     Total force =     0.000000     Total SCF correction =     0.000000


     Computing stress (Cartesian axis) and pressure

          total   stress  (Ry/bohr**3)                   (kbar)     P=      506.83
   0.00345770  -0.00000000   0.00000000          508.64       -0.00        0.00
  -0.00000000   0.00345770   0.00000000           -0.00      508.64        0.00
   0.00000000   0.00000000   0.00342063            0.00        0.00      503.19


     Writing all to output data dir ./output/SiLi.save/

     init_run     :      1.67s CPU      1.85s WALL (       2 calls)
     electrons    :     78.06s CPU     86.53s WALL (       7 calls)
     update_pot   :      0.97s CPU      0.98s WALL (       5 calls)
     forces       :      1.59s CPU      1.68s WALL (       7 calls)
     stress       :      8.57s CPU      8.76s WALL (       7 calls)

     Called by init_run:
     wfcinit      :      1.04s CPU      1.07s WALL (       2 calls)
     potinit      :      0.23s CPU      0.27s WALL (       2 calls)
     hinit0       :      0.38s CPU      0.42s WALL (       2 calls)

     Called by electrons:
     c_bands      :     67.81s CPU     75.65s WALL (      51 calls)
     sum_band     :     10.00s CPU     10.36s WALL (      51 calls)
     v_of_rho     :      0.23s CPU      0.44s WALL (      55 calls)
     mix_rho      :      0.03s CPU      0.04s WALL (      51 calls)

     Called by c_bands:
     init_us_2    :      1.91s CPU      2.08s WALL (   24662 calls)
     init_us_2:cp :      1.88s CPU      2.05s WALL (   24662 calls)
     cegterg      :     64.08s CPU     67.07s WALL (   10659 calls)

     Called by *egterg:
     cdiaghg      :      5.23s CPU      5.49s WALL (   37499 calls)
     h_psi        :     53.85s CPU     56.35s WALL (   39589 calls)
     g_psi        :      0.23s CPU      0.24s WALL (   28512 calls)

     Called by h_psi:
     h_psi:calbec :      2.98s CPU      3.12s WALL (   39589 calls)
     vloc_psi     :     48.64s CPU     50.87s WALL (   39589 calls)
     add_vuspsi   :      1.99s CPU      2.07s WALL (   39589 calls)

     General routines
     calbec       :      3.75s CPU      3.93s WALL (   46904 calls)
     fft          :      0.38s CPU      0.68s WALL (     726 calls)
     ffts         :      0.01s CPU      0.01s WALL (      51 calls)
     fftw         :     51.22s CPU     53.43s WALL (  747943 calls)

     Parallel routines

     PWSCF        :   1m31.39s CPU   1m41.11s WALL


   This run was terminated on:  15:17:15  17Jan2025            

=------------------------------------------------------------------------------=
   JOB DONE.
=------------------------------------------------------------------------------=
