
     Program PWSCF v.7.2 starts on 29Dec2024 at 11:31: 9 

     This program is part of the open-source Quantum ESPRESSO suite
     for quantum simulation of materials; please cite
         "P. Giannozzi et al., J. Phys.:Condens. Matter 21 395502 (2009);
         "P. Giannozzi et al., J. Phys.:Condens. Matter 29 465901 (2017);
         "P. Giannozzi et al., J. Chem. Phys. 152 154105 (2020);
          URL http://www.quantum-espresso.org", 
     in publications or presentations arising from this work. More details at
     http://www.quantum-espresso.org/quote

     Parallel version (MPI & OpenMP), running on       8 processor cores
     Number of MPI processes:                 8
     Threads/MPI process:                     1

     MPI processes distributed on     1 nodes
     482332 MiB available memory on the printing compute node when the environment starts

     Waiting for input...
     Reading input from standard input

     Current dimensions of program PWSCF are:
     Max number of different atomic species (ntypx) = 10
     Max number of k-points (npk) =  40000
     Max angular momentum in pseudopotentials (lmaxx) =  4

     R & G space division:  proc/nbgrp/npool/nimage =       8
     Subspace diagonalization in iterative solution of the eigenvalue problem:
     a serial algorithm will be used


     Parallelization info
     --------------------
     sticks:   dense  smooth     PW     G-vecs:    dense   smooth      PW
     Min          99      99     30                 1697     1697     282
     Max         101     101     31                 1700     1700     285
     Sum         797     797    241                13581    13581    2269

     Using Slab Decomposition



     bravais-lattice index     =            6
     lattice parameter (alat)  =       5.6261  a.u.
     unit-cell volume          =     140.8417 (a.u.)^3
     number of atoms/cell      =            4
     number of atomic types    =            2
     number of electrons       =        15.00
     number of Kohn-Sham states=           12
     kinetic-energy cutoff     =      80.0000  Ry
     charge density cutoff     =     320.0000  Ry
     scf convergence threshold =      1.0E-08
     mixing beta               =       0.7000
     number of iterations used =            8  plain     mixing
     energy convergence thresh.=      1.0E-04
     force convergence thresh. =      1.0E-03
     press convergence thresh. =      1.0E+00
     Exchange-correlation= PBE
                           (   1   4   3   4   0   0   0)
     nstep                     =           50


     celldm(1)=   5.626085  celldm(2)=   0.000000  celldm(3)=   0.790883
     celldm(4)=   0.000000  celldm(5)=   0.000000  celldm(6)=   0.000000

     crystal axes: (cart. coord. in units of alat)
               a(1) = (   1.000000   0.000000   0.000000 )  
               a(2) = (   0.000000   1.000000   0.000000 )  
               a(3) = (   0.000000   0.000000   0.790883 )  

     reciprocal axes: (cart. coord. in units 2 pi/alat)
               b(1) = (  1.000000  0.000000  0.000000 )  
               b(2) = (  0.000000  1.000000  0.000000 )  
               b(3) = (  0.000000  0.000000  1.264409 )  


     PseudoPot. # 1 for Si read from file:
     ../pseudo/Si_ONCV_PBE_sr.upf
     MD5 check sum: e543d271109d17c80368dfa7c482276d
     Pseudo is Norm-conserving + core correction, Zval =  4.0
     Generated using ONCVPSP code by D. R. Hamann
     Using radial grid of 1510 points,  6 beta functions with: 
                l(1) =   0
                l(2) =   0
                l(3) =   1
                l(4) =   1
                l(5) =   2
                l(6) =   2

     PseudoPot. # 2 for Li read from file:
     ../pseudo/Li_ONCV_PBE_sr.upf
     MD5 check sum: 50ff420e78310ffa21704f3361e624a4
     Pseudo is Norm-conserving, Zval =  3.0
     Generated using ONCVPSP code by D. R. Hamann
     Using radial grid of 1944 points,  4 beta functions with: 
                l(1) =   0
                l(2) =   0
                l(3) =   1
                l(4) =   1

     atomic species   valence    mass     pseudopotential
        Si             4.00    28.08550     Si( 1.00)
        Li             3.00     6.94100     Li( 1.00)

     16 Sym. Ops., with inversion, found



   Cartesian axes

     site n.     atom                  positions (alat units)
         1           Si  tau(   1) = (   0.0000000   0.5000000   0.3954416  )
         2           Si  tau(   2) = (   0.5000000   0.0000000   0.3954416  )
         3           Si  tau(   3) = (   0.0000000   0.0000000   0.0000000  )
         4           Li  tau(   4) = (   0.5000000   0.5000000   0.0000000  )

     number of k points=    50  Marzari-Vanderbilt smearing, width (Ry)=  0.0200
                       cart. coord. in units 2pi/alat
        k(    1) = (   0.0000000   0.0000000   0.0000000), wk =   0.0045351
        k(    2) = (   0.0000000   0.0000000   0.1404899), wk =   0.0090703
        k(    3) = (   0.0000000   0.0000000   0.2809798), wk =   0.0090703
        k(    4) = (   0.0000000   0.0000000   0.4214698), wk =   0.0090703
        k(    5) = (   0.0000000   0.0000000   0.5619597), wk =   0.0090703
        k(    6) = (   0.0000000   0.1428571   0.0000000), wk =   0.0181406
        k(    7) = (   0.0000000   0.1428571   0.1404899), wk =   0.0362812
        k(    8) = (   0.0000000   0.1428571   0.2809798), wk =   0.0362812
        k(    9) = (   0.0000000   0.1428571   0.4214698), wk =   0.0362812
        k(   10) = (   0.0000000   0.1428571   0.5619597), wk =   0.0362812
        k(   11) = (   0.0000000   0.2857143   0.0000000), wk =   0.0181406
        k(   12) = (   0.0000000   0.2857143   0.1404899), wk =   0.0362812
        k(   13) = (   0.0000000   0.2857143   0.2809798), wk =   0.0362812
        k(   14) = (   0.0000000   0.2857143   0.4214698), wk =   0.0362812
        k(   15) = (   0.0000000   0.2857143   0.5619597), wk =   0.0362812
        k(   16) = (   0.0000000   0.4285714   0.0000000), wk =   0.0181406
        k(   17) = (   0.0000000   0.4285714   0.1404899), wk =   0.0362812
        k(   18) = (   0.0000000   0.4285714   0.2809798), wk =   0.0362812
        k(   19) = (   0.0000000   0.4285714   0.4214698), wk =   0.0362812
        k(   20) = (   0.0000000   0.4285714   0.5619597), wk =   0.0362812
        k(   21) = (   0.1428571   0.1428571   0.0000000), wk =   0.0181406
        k(   22) = (   0.1428571   0.1428571   0.1404899), wk =   0.0362812
        k(   23) = (   0.1428571   0.1428571   0.2809798), wk =   0.0362812
        k(   24) = (   0.1428571   0.1428571   0.4214698), wk =   0.0362812
        k(   25) = (   0.1428571   0.1428571   0.5619597), wk =   0.0362812
        k(   26) = (   0.1428571   0.2857143   0.0000000), wk =   0.0362812
        k(   27) = (   0.1428571   0.2857143   0.1404899), wk =   0.0725624
        k(   28) = (   0.1428571   0.2857143   0.2809798), wk =   0.0725624
        k(   29) = (   0.1428571   0.2857143   0.4214698), wk =   0.0725624
        k(   30) = (   0.1428571   0.2857143   0.5619597), wk =   0.0725624
        k(   31) = (   0.1428571   0.4285714   0.0000000), wk =   0.0362812
        k(   32) = (   0.1428571   0.4285714   0.1404899), wk =   0.0725624
        k(   33) = (   0.1428571   0.4285714   0.2809798), wk =   0.0725624
        k(   34) = (   0.1428571   0.4285714   0.4214698), wk =   0.0725624
        k(   35) = (   0.1428571   0.4285714   0.5619597), wk =   0.0725624
        k(   36) = (   0.2857143   0.2857143   0.0000000), wk =   0.0181406
        k(   37) = (   0.2857143   0.2857143   0.1404899), wk =   0.0362812
        k(   38) = (   0.2857143   0.2857143   0.2809798), wk =   0.0362812
        k(   39) = (   0.2857143   0.2857143   0.4214698), wk =   0.0362812
        k(   40) = (   0.2857143   0.2857143   0.5619597), wk =   0.0362812
        k(   41) = (   0.2857143   0.4285714   0.0000000), wk =   0.0362812
        k(   42) = (   0.2857143   0.4285714   0.1404899), wk =   0.0725624
        k(   43) = (   0.2857143   0.4285714   0.2809798), wk =   0.0725624
        k(   44) = (   0.2857143   0.4285714   0.4214698), wk =   0.0725624
        k(   45) = (   0.2857143   0.4285714   0.5619597), wk =   0.0725624
        k(   46) = (   0.4285714   0.4285714   0.0000000), wk =   0.0181406
        k(   47) = (   0.4285714   0.4285714   0.1404899), wk =   0.0362812
        k(   48) = (   0.4285714   0.4285714   0.2809798), wk =   0.0362812
        k(   49) = (   0.4285714   0.4285714   0.4214698), wk =   0.0362812
        k(   50) = (   0.4285714   0.4285714   0.5619597), wk =   0.0362812

     Dense  grid:    13581 G-vectors     FFT dimensions: (  36,  36,  25)

     Estimated max dynamical RAM per process >      14.98 MB

     Estimated total dynamical RAM >     119.81 MB

     Initial potential from superposition of free atoms

     starting charge      14.9936, renormalised to      15.0000
     Starting wfcs are   14 randomized atomic wfcs

     total cpu time spent up to now is        0.7 secs

     Self-consistent Calculation

     iteration #  1     ecut=    80.00 Ry     beta= 0.70
     Davidson diagonalization with overlap
     ethr =  1.00E-02,  avg # of iterations =  6.9

     Threshold (ethr) on eigenvalues was too large:
     Diagonalizing with lowered threshold

     Davidson diagonalization with overlap
     ethr =  4.94E-04,  avg # of iterations =  2.1

     total cpu time spent up to now is        1.4 secs

     total energy              =     -37.71489651 Ry
     estimated scf accuracy    <       0.07454478 Ry

     iteration #  2     ecut=    80.00 Ry     beta= 0.70
     Davidson diagonalization with overlap
     ethr =  4.97E-04,  avg # of iterations =  2.1

     total cpu time spent up to now is        1.7 secs

     total energy              =     -37.72152428 Ry
     estimated scf accuracy    <       0.00761055 Ry

     iteration #  3     ecut=    80.00 Ry     beta= 0.70
     Davidson diagonalization with overlap
     ethr =  5.07E-05,  avg # of iterations =  4.1

     total cpu time spent up to now is        2.0 secs

     total energy              =     -37.72278322 Ry
     estimated scf accuracy    <       0.00077461 Ry

     iteration #  4     ecut=    80.00 Ry     beta= 0.70
     Davidson diagonalization with overlap
     ethr =  5.16E-06,  avg # of iterations =  3.0

     total cpu time spent up to now is        2.3 secs

     total energy              =     -37.72287196 Ry
     estimated scf accuracy    <       0.00000455 Ry

     iteration #  5     ecut=    80.00 Ry     beta= 0.70
     Davidson diagonalization with overlap
     ethr =  3.03E-08,  avg # of iterations =  4.0

     total cpu time spent up to now is        2.7 secs

     total energy              =     -37.72287675 Ry
     estimated scf accuracy    <       0.00000080 Ry

     iteration #  6     ecut=    80.00 Ry     beta= 0.70
     Davidson diagonalization with overlap
     ethr =  5.33E-09,  avg # of iterations =  2.0

     total cpu time spent up to now is        3.0 secs

     End of self-consistent calculation

          k = 0.0000 0.0000 0.0000 (  1657 PWs)   bands (ev):

   -22.6029   3.6614  15.5367  15.5367  19.1849  21.7656  24.9232  25.4517
    27.9814  31.9813  31.9813  34.7642

          k = 0.0000 0.0000 0.1405 (  1681 PWs)   bands (ev):

   -22.5813   3.9262  15.8019  15.8019  19.4209  20.5894  22.0458  28.2999
    29.8132  32.0712  32.0723  32.5967

          k = 0.0000 0.0000 0.2810 (  1701 PWs)   bands (ev):

   -22.5265   4.7090  16.5995  16.5995  16.9280  20.0748  21.7344  28.7005
    28.7005  29.2455  32.9473  32.9473

          k = 0.0000 0.0000 0.4215 (  1697 PWs)   bands (ev):

   -22.4636   5.9598  13.6773  17.9342  17.9342  20.9532  21.5029  25.2358
    25.2358  30.7675  34.1024  34.1024

          k = 0.0000 0.0000 0.5620 (  1684 PWs)   bands (ev):

   -22.4223   7.4285  11.2082  19.8072  19.8072  21.3441  21.6468  22.2685
    22.2685  32.5603  33.3928  35.6561

          k = 0.0000 0.1429 0.0000 (  1688 PWs)   bands (ev):

   -22.5952   3.8650  13.7399  15.8091  20.3363  22.8744  25.1678  25.4508
    25.6946  32.3877  33.3989  34.8852

          k = 0.0000 0.1429 0.1405 (  1690 PWs)   bands (ev):

   -22.5741   4.1334  13.9908  16.0743  20.3272  20.9567  23.3598  25.9860
    29.1724  31.4246  32.7170  33.0964

          k = 0.0000 0.1429 0.2810 (  1704 PWs)   bands (ev):

   -22.5204   4.9270  14.7271  16.8715  17.1142  20.7557  23.3357  26.8294
    28.1620  29.0498  31.5122  35.7904

          k = 0.0000 0.1429 0.4215 (  1698 PWs)   bands (ev):

   -22.4588   6.1973  13.8442  15.9780  18.2050  20.5300  23.6034  25.4733
    25.5702  28.3964  32.9165  35.8407

          k = 0.0000 0.1429 0.5620 (  1697 PWs)   bands (ev):

   -22.4183   7.7046  11.3663  17.5276  19.3666  20.0722  22.5390  23.8311
    24.4531  30.3045  33.2261  34.2841

          k = 0.0000 0.2857 0.0000 (  1710 PWs)   bands (ev):

   -22.5780   4.4228  11.3393  16.6187  20.7248  22.7233  24.4950  25.8985
    27.4260  31.0708  33.3125  35.6861

          k = 0.0000 0.2857 0.1405 (  1705 PWs)   bands (ev):

   -22.5579   4.7027  11.5747  16.8832  20.3002  21.8941  23.0081  27.1908
    27.9954  29.9052  33.4476  34.7111

          k = 0.0000 0.2857 0.2810 (  1693 PWs)   bands (ev):

   -22.5066   5.5309  12.2677  17.5789  17.6777  20.5687  23.8564  26.7337
    27.5709  29.8030  30.2565  36.8434

          k = 0.0000 0.2857 0.4215 (  1689 PWs)   bands (ev):

   -22.4479   6.8625  13.3012  14.5511  19.0033  19.0815  25.1301  26.1731
    26.5336  27.1873  31.5175  33.2015

          k = 0.0000 0.2857 0.5620 (  1699 PWs)   bands (ev):

   -22.4092   8.4925  11.8040  14.9389  17.2244  20.8410  23.3281  26.1722
    27.0178  27.4062  30.0680  33.1486

          k = 0.0000 0.4286 0.0000 (  1718 PWs)   bands (ev):

   -22.5642   5.0607   9.7207  17.8729  20.3407  20.7587  24.5706  27.0719
    28.9873  31.8475  34.1952  36.4195

          k = 0.0000 0.4286 0.1405 (  1707 PWs)   bands (ev):

   -22.5448   5.3593   9.9369  18.1312  20.1879  20.6299  22.7718  26.6970
    29.1668  31.9733  34.3118  36.1419

          k = 0.0000 0.4286 0.2810 (  1691 PWs)   bands (ev):

   -22.4956   6.2449  10.5752  18.0576  18.9052  20.2522  21.4983  26.0493
    29.5536  30.7880  32.0427  34.8174

          k = 0.0000 0.4286 0.4215 (  1692 PWs)   bands (ev):

   -22.4391   7.6818  11.5918  15.1661  17.8191  20.1882  22.9417  26.6496
    27.4734  29.1948  30.9728  32.1154

          k = 0.0000 0.4286 0.5620 (  1685 PWs)   bands (ev):

   -22.4020   9.5355  12.3253  12.9673  15.8204  21.9057  24.3975  25.2884
    27.7280  27.7959  28.6408  31.5740

          k = 0.1429 0.1429 0.0000 (  1697 PWs)   bands (ev):

   -22.5878   4.0793  13.3818  14.6962  22.2797  22.3141  24.3843  25.4124
    26.7804  32.4897  33.4447  33.8794

          k = 0.1429 0.1429 0.1405 (  1696 PWs)   bands (ev):

   -22.5671   4.3506  13.6594  14.9055  20.6557  22.4462  23.7928  24.5799
    30.1264  31.6091  31.8091  32.7444

          k = 0.1429 0.1429 0.2810 (  1704 PWs)   bands (ev):

   -22.5145   5.1529  14.4837  15.5119  17.2509  22.7827  23.3765  25.1612
    28.2400  28.8014  33.4353  33.9852

          k = 0.1429 0.1429 0.4215 (  1699 PWs)   bands (ev):

   -22.4541   6.4390  14.0408  15.8206  16.4801  22.3534  22.5170  26.1394
    26.4017  26.7536  34.2130  34.5994

          k = 0.1429 0.1429 0.5620 (  1689 PWs)   bands (ev):

   -22.4144   7.9793  11.5417  17.4465  17.4965  20.4747  21.4105  25.5799
    26.0079  28.5206  31.2502  35.1111

          k = 0.1429 0.2857 0.0000 (  1716 PWs)   bands (ev):

   -22.5712   4.6700  11.3792  14.9237  20.4546  23.3916  26.1413  26.2659
    27.7764  31.3135  33.4210  34.4206

          k = 0.1429 0.2857 0.1405 (  1705 PWs)   bands (ev):

   -22.5515   4.9508  11.6310  15.1389  20.0345  22.9772  23.5609  27.2319
    29.1990  30.4110  32.5491  34.3527

          k = 0.1429 0.2857 0.2810 (  1700 PWs)   bands (ev):

   -22.5012   5.7816  12.3708  15.7526  17.6507  22.3325  22.9306  26.4528
    27.9061  29.8756  32.0086  35.2334

          k = 0.1429 0.2857 0.4215 (  1700 PWs)   bands (ev):

   -22.4436   7.1186  13.5054  14.6577  16.6422  20.7309  23.8645  24.3990
    27.4305  28.9528  31.9816  33.4096

          k = 0.1429 0.2857 0.5620 (  1699 PWs)   bands (ev):

   -22.4057   8.7634  12.0267  15.0755  16.7504  19.9554  22.0369  25.4514
    27.4491  28.8667  29.4329  35.0866

          k = 0.1429 0.4286 0.0000 (  1709 PWs)   bands (ev):

   -22.5578   5.3588   9.7704  15.6601  18.8467  23.5125  26.4563  27.3022
    29.2560  31.9437  34.4752  35.3003

          k = 0.1429 0.4286 0.1405 (  1706 PWs)   bands (ev):

   -22.5389   5.6561  10.0001  15.8663  18.9008  22.4820  24.3196  27.5911
    29.9430  31.5739  33.6685  35.7574

          k = 0.1429 0.4286 0.2810 (  1704 PWs)   bands (ev):

   -22.4905   6.5374  10.6771  16.3101  18.3451  20.4572  22.3706  27.4609
    28.9343  30.6272  32.5440  34.0794

          k = 0.1429 0.4286 0.4215 (  1692 PWs)   bands (ev):

   -22.4352   7.9663  11.7553  15.1968  17.1470  19.5015  22.3162  25.6237
    27.9662  29.3512  32.2331  33.4220

          k = 0.1429 0.4286 0.5620 (  1702 PWs)   bands (ev):

   -22.3988   9.8028  12.6044  13.1731  15.6668  20.5359  22.9324  23.5872
    26.2510  30.1068  31.3219  33.4946

          k = 0.2857 0.2857 0.0000 (  1699 PWs)   bands (ev):

   -22.5559   5.3638  11.0897  13.0627  18.4198  26.8604  27.1551  27.1791
    29.4317  31.6821  32.5714  34.0052

          k = 0.2857 0.2857 0.1405 (  1710 PWs)   bands (ev):

   -22.5370   5.6479  11.3785  13.2577  18.3626  23.6386  26.6648  27.4035
    30.5410  31.0786  32.5129  34.2604

          k = 0.2857 0.2857 0.2810 (  1713 PWs)   bands (ev):

   -22.4890   6.4893  12.2341  13.8133  17.4962  21.3563  24.5086  25.2782
    29.8597  30.2862  33.5502  34.9807

          k = 0.2857 0.2857 0.4215 (  1702 PWs)   bands (ev):

   -22.4340   7.8458  13.6104  14.5731  15.1595  20.9811  21.5254  23.4090
    28.1416  30.7799  32.3445  36.1695

          k = 0.2857 0.2857 0.5620 (  1703 PWs)   bands (ev):

   -22.3979   9.5360  12.6339  15.2731  15.3817  18.9442  20.4849  23.1741
    26.4622  31.4324  31.9568  37.7588

          k = 0.2857 0.4286 0.0000 (  1704 PWs)   bands (ev):

   -22.5435   6.2260   9.8855  12.8161  17.1219  27.3449  27.9671  29.6613
    30.0524  32.2892  33.2924  35.1517

          k = 0.2857 0.4286 0.1405 (  1708 PWs)   bands (ev):

   -22.5254   6.5191  10.1500  13.0591  17.1480  24.3451  26.5094  29.4007
    30.6532  32.4838  32.7196  34.6211

          k = 0.2857 0.4286 0.2810 (  1702 PWs)   bands (ev):

   -22.4792   7.3874  10.9284  13.7396  17.0622  21.0203  23.5676  26.4510
    29.4021  31.6216  34.4718  35.0140

          k = 0.2857 0.4286 0.4215 (  1699 PWs)   bands (ev):

   -22.4263   8.7893  12.1671  14.4851  16.1832  18.8336  21.3373  23.3636
    27.0331  32.5356  35.1220  36.0048

          k = 0.2857 0.4286 0.5620 (  1708 PWs)   bands (ev):

   -22.3915  10.5594  13.3387  13.7140  15.3233  18.4839  20.1192  21.2364
    25.5923  33.5849  34.9395  37.1109

          k = 0.4286 0.4286 0.0000 (  1722 PWs)   bands (ev):

   -22.5320   7.4716   9.8798  10.6554  16.1351  28.8858  30.7492  31.0914
    31.5078  31.8185  33.6333  33.8199

          k = 0.4286 0.4286 0.1405 (  1718 PWs)   bands (ev):

   -22.5145   7.7581  10.1744  10.9250  16.1441  25.7278  27.8935  28.2699
    31.0945  34.0962  34.2911  35.7543

          k = 0.4286 0.4286 0.2810 (  1705 PWs)   bands (ev):

   -22.4701   8.6034  11.0469  11.7104  16.1425  22.0525  24.1088  24.7406
    28.3702  35.0103  36.3977  37.5967

          k = 0.4286 0.4286 0.4215 (  1705 PWs)   bands (ev):

   -22.4192   9.9493  12.4496  12.8975  15.9890  19.0043  20.6894  21.5626
    26.3685  35.7623  37.5196  38.7497

          k = 0.4286 0.4286 0.5620 (  1708 PWs)   bands (ev):

   -22.3858  11.5349  13.8539  14.1372  15.3248  17.6270  17.9779  19.1106
    25.3495  36.3488  38.2999  39.8358

     the Fermi energy is    26.1684 ev

!    total energy              =     -37.72287691 Ry
     estimated scf accuracy    <          3.8E-09 Ry
     smearing contrib. (-TS)   =      -0.00056801 Ry
     internal energy E=F+TS    =     -37.72230890 Ry

     The total energy is F=E-TS. E is the sum of the following terms:
     one-electron contribution =      25.12873502 Ry
     hartree contribution      =       2.66222827 Ry
     xc contribution           =     -15.63250246 Ry
     ewald contribution        =     -49.88076973 Ry

     convergence has been achieved in   6 iterations

     Forces acting on atoms (cartesian axes, Ry/au):

     atom    1 type  1   force =     0.00000000    0.00000000    0.00000000
     atom    2 type  1   force =     0.00000000    0.00000000    0.00000000
     atom    3 type  1   force =     0.00000000    0.00000000    0.00000000
     atom    4 type  2   force =     0.00000000    0.00000000    0.00000000
     The non-local contrib.  to forces
     atom    1 type  1   force =     0.00000000    0.00000000    0.00000000
     atom    2 type  1   force =     0.00000000    0.00000000    0.00000000
     atom    3 type  1   force =     0.00000000    0.00000000    0.00000000
     atom    4 type  2   force =     0.00000000    0.00000000    0.00000000
     The ionic contribution  to forces
     atom    1 type  1   force =    -0.00000000   -0.00000000    0.00000000
     atom    2 type  1   force =    -0.00000000   -0.00000000    0.00000000
     atom    3 type  1   force =    -0.00000000   -0.00000000   -0.00000000
     atom    4 type  2   force =     0.00000000    0.00000000   -0.00000000
     The local contribution  to forces
     atom    1 type  1   force =    -0.00000000   -0.00000000   -0.00000000
     atom    2 type  1   force =    -0.00000000   -0.00000000   -0.00000000
     atom    3 type  1   force =    -0.00000000   -0.00000000    0.00000000
     atom    4 type  2   force =     0.00000000    0.00000000    0.00000000
     The core correction contribution to forces
     atom    1 type  1   force =     0.00000000   -0.00000000   -0.00000000
     atom    2 type  1   force =    -0.00000000    0.00000000   -0.00000000
     atom    3 type  1   force =     0.00000000   -0.00000000   -0.00000000
     atom    4 type  2   force =     0.00000000    0.00000000    0.00000000
     The Hubbard contrib.    to forces
     atom    1 type  1   force =     0.00000000    0.00000000    0.00000000
     atom    2 type  1   force =     0.00000000    0.00000000    0.00000000
     atom    3 type  1   force =     0.00000000    0.00000000    0.00000000
     atom    4 type  2   force =     0.00000000    0.00000000    0.00000000
     The SCF correction term to forces
     atom    1 type  1   force =     0.00000000    0.00000000    0.00000000
     atom    2 type  1   force =    -0.00000000    0.00000000   -0.00000000
     atom    3 type  1   force =     0.00000000   -0.00000000   -0.00000000
     atom    4 type  2   force =    -0.00000000   -0.00000000   -0.00000000

     Total force =     0.000000     Total SCF correction =     0.000000


     Computing stress (Cartesian axis) and pressure

          total   stress  (Ry/bohr**3)                   (kbar)     P=     5686.79
   0.03840315   0.00000000   0.00000000         5649.30        0.00        0.00
   0.00000000   0.03840315   0.00000000            0.00     5649.30        0.00
   0.00000000   0.00000000   0.03916768            0.00        0.00     5761.76


     BFGS Geometry Optimization
     Energy error            =      0.0E+00 Ry
     Gradient error          =      0.0E+00 Ry/Bohr
     Cell gradient error     =      5.3E+03 kbar

     number of scf cycles    =   1
     number of bfgs steps    =   0

     enthalpy           new  =     -37.2441657261 Ry

     new trust radius        =       0.5000000000 bohr
ibrav =      6
 celldm(1) =      6.78592334
 celldm(3) =      0.79383553
Input lattice vectors:
     1.20615368     0.00000000     0.00000000
     0.00000000     1.20615368     0.00000000
     0.00000000     0.00000000     0.95748764
New lattice vectors in INITIAL alat:
     1.20615368     0.00000000     0.00000000
     0.00000000     1.20615368     0.00000000
     0.00000000     0.00000000     0.95748764
New lattice vectors in NEW alat (for information only):
     1.00000000     0.00000000     0.00000000
     0.00000000     1.00000000     0.00000000
     0.00000000     0.00000000     0.79383553
Discrepancy in bohr =     0.000000    0.000000    0.000000
     new conv_thr            =       0.0000000100 Ry

     new unit-cell volume =    248.06037 a.u.^3 (    36.75875 Ang^3 )
     density =      4.11975 g/cm^3

CELL_PARAMETERS (alat=  5.62608520)
   1.206153675   0.000000000   0.000000000
   0.000000000   1.206153675   0.000000000
   0.000000000   0.000000000   0.957487640

ATOMIC_POSITIONS (crystal)
Si            0.0000000000        0.5000000000        0.5000000000
Si            0.5000000000        0.0000000000        0.5000000000
Si            0.0000000000        0.0000000000        0.0000000000
Li            0.5000000000        0.5000000000        0.0000000000



     Writing config-only to output data dir ./output/SiLi.save/
     NEW-OLD atomic charge density approx. for the potential
     extrapolated charge   21.48066, renormalised to   15.00000

     total cpu time spent up to now is        3.8 secs

     Self-consistent Calculation

     iteration #  1     ecut=    80.00 Ry     beta= 0.70
     Davidson diagonalization with overlap
     c_bands:  1 eigenvalues not converged
     c_bands:  1 eigenvalues not converged
     c_bands:  1 eigenvalues not converged
     c_bands:  1 eigenvalues not converged
     c_bands:  1 eigenvalues not converged
     c_bands:  1 eigenvalues not converged
     ethr =  1.00E-06,  avg # of iterations = 14.8

     total cpu time spent up to now is        4.9 secs

     total energy              =     -39.35511942 Ry
     estimated scf accuracy    <       0.03860751 Ry

     iteration #  2     ecut=    80.00 Ry     beta= 0.70
     Davidson diagonalization with overlap
     ethr =  2.57E-04,  avg # of iterations =  3.0

     total cpu time spent up to now is        5.3 secs

     total energy              =     -39.48058256 Ry
     estimated scf accuracy    <       0.03437915 Ry

     iteration #  3     ecut=    80.00 Ry     beta= 0.70
     Davidson diagonalization with overlap
     ethr =  2.29E-04,  avg # of iterations =  1.0

     total cpu time spent up to now is        5.5 secs

     total energy              =     -39.47520835 Ry
     estimated scf accuracy    <       0.00988917 Ry

     iteration #  4     ecut=    80.00 Ry     beta= 0.70
     Davidson diagonalization with overlap
     ethr =  6.59E-05,  avg # of iterations =  2.0

     total cpu time spent up to now is        5.8 secs

     total energy              =     -39.47599792 Ry
     estimated scf accuracy    <       0.00041350 Ry

     iteration #  5     ecut=    80.00 Ry     beta= 0.70
     Davidson diagonalization with overlap
     ethr =  2.76E-06,  avg # of iterations =  4.2

     total cpu time spent up to now is        6.2 secs

     total energy              =     -39.47609764 Ry
     estimated scf accuracy    <       0.00006356 Ry

     iteration #  6     ecut=    80.00 Ry     beta= 0.70
     Davidson diagonalization with overlap
     ethr =  4.24E-07,  avg # of iterations =  2.0

     total cpu time spent up to now is        6.5 secs

     total energy              =     -39.47609982 Ry
     estimated scf accuracy    <       0.00000439 Ry

     iteration #  7     ecut=    80.00 Ry     beta= 0.70
     Davidson diagonalization with overlap
     ethr =  2.93E-08,  avg # of iterations =  2.2

     total cpu time spent up to now is        6.8 secs

     total energy              =     -39.47610058 Ry
     estimated scf accuracy    <       0.00000011 Ry

     iteration #  8     ecut=    80.00 Ry     beta= 0.70
     Davidson diagonalization with overlap
     ethr =  7.02E-10,  avg # of iterations =  3.7

     total cpu time spent up to now is        7.2 secs

     End of self-consistent calculation

          k = 0.0000 0.0000 0.0000 (  1657 PWs)   bands (ev):

   -31.6818  -2.0488   7.4699   7.4699   8.9332  11.9365  13.1269  15.8329
    18.1310  18.1310  18.3199  22.7175

          k = 0.0000 0.0000 0.1160 (  1681 PWs)   bands (ev):

   -31.6818  -1.8453   7.6712   7.6712   9.1408  10.8138  12.1320  18.2930
    18.2930  18.3109  18.5344  20.4747

          k = 0.0000 0.0000 0.2321 (  1701 PWs)   bands (ev):

   -31.6780  -1.2389   8.0151   8.2743   8.2743   9.7536  12.3059  17.3933
    17.3933  19.0163  19.0163  19.1135

          k = 0.0000 0.0000 0.3481 (  1697 PWs)   bands (ev):

   -31.6703  -0.2512   5.4963   9.2729   9.2729  10.7259  12.5593  14.8461
    14.8461  16.7868  19.9043  19.9043

          k = 0.0000 0.0000 0.4642 (  1684 PWs)   bands (ev):

   -31.6643   0.9845   3.4867  10.6114  10.6114  11.8344  12.7051  12.7051
    12.7422  14.9744  21.1505  21.3840

          k = 0.0000 0.1184 0.0000 (  1688 PWs)   bands (ev):

   -31.6847  -1.8656   5.7462   7.6679  10.1161  13.0290  13.3179  15.4742
    15.4868  18.2295  20.5274  21.3884

          k = 0.0000 0.1184 0.1160 (  1690 PWs)   bands (ev):

   -31.6823  -1.6611   5.9437   7.8690  10.2792  11.0612  13.1649  15.6759
    17.0153  18.6998  19.4610  20.5291

          k = 0.0000 0.1184 0.2321 (  1704 PWs)   bands (ev):

   -31.6777  -1.0521   6.5223   8.2254   8.4716  10.7958  13.4259  15.9038
    16.2623  17.6777  18.1645  20.3650

          k = 0.0000 0.1184 0.3481 (  1698 PWs)   bands (ev):

   -31.6700  -0.0594   5.6581   7.5421   9.4694  11.2988  13.5401  14.1411
    15.0323  17.3089  17.9260  19.1035

          k = 0.0000 0.1184 0.4642 (  1697 PWs)   bands (ev):

   -31.6653   1.1897   3.6495   8.8073  10.5438  10.8065  12.8985  13.5331
    14.0996  16.3959  18.5594  19.8463

          k = 0.0000 0.2369 0.0000 (  1710 PWs)   bands (ev):

   -31.6861  -1.3468   3.7211   8.2421  10.8619  13.1911  13.8767  14.7171
    15.9547  18.4085  18.4492  23.3504

          k = 0.0000 0.2369 0.1160 (  1705 PWs)   bands (ev):

   -31.6830  -1.1394   3.9135   8.4426  10.9887  11.5405  13.3959  15.4546
    16.0294  17.2675  20.2318  21.0815

          k = 0.0000 0.2369 0.2321 (  1693 PWs)   bands (ev):

   -31.6755  -0.5211   4.4835   8.7507   9.0432  11.1886  13.9842  14.0065
    16.4287  17.0873  18.1852  21.4004

          k = 0.0000 0.2369 0.3481 (  1689 PWs)   bands (ev):

   -31.6680   0.4893   5.3478   6.3039  10.0376  10.3729  13.4084  14.9788
    15.6334  16.4362  17.7509  19.7350

          k = 0.0000 0.2369 0.4642 (  1699 PWs)   bands (ev):

   -31.6645   1.7834   4.1067   6.6833   8.7468  11.3706  13.4488  14.1968
    15.6793  16.3084  18.6586  18.7735

          k = 0.0000 0.3553 0.0000 (  1718 PWs)   bands (ev):

   -31.6861  -0.6924   2.2836   9.0345  11.3187  11.5424  14.0643  14.6798
    16.8094  18.5989  19.6575  22.5061

          k = 0.0000 0.3553 0.1160 (  1707 PWs)   bands (ev):

   -31.6825  -0.4784   2.4690   9.2328  11.3000  11.7499  12.4706  13.8460
    16.4211  19.7464  20.8594  21.6977

          k = 0.0000 0.3553 0.2321 (  1691 PWs)   bands (ev):

   -31.6744   0.1602   3.0189   9.4334   9.8271  11.1206  12.3696  12.8573
    16.4339  18.8440  19.7978  21.9918

          k = 0.0000 0.3553 0.3481 (  1692 PWs)   bands (ev):

   -31.6678   1.2101   3.9030   6.9260   9.1845  10.8121  13.3849  13.5903
    16.2909  16.6002  18.6832  19.3413

          k = 0.0000 0.3553 0.4642 (  1685 PWs)   bands (ev):

   -31.6624   2.6030   4.6534   5.0910   7.4772  12.1400  14.1558  14.6917
    14.8885  16.3467  17.2061  17.2631

          k = 0.1184 0.1184 0.0000 (  1697 PWs)   bands (ev):

   -31.6853  -1.6796   5.4969   6.5252  11.6800  13.2854  13.5086  13.7898
    16.6069  18.5394  20.4590  21.0563

          k = 0.1184 0.1184 0.1160 (  1696 PWs)   bands (ev):

   -31.6827  -1.4744   5.7066   6.7011  11.1897  11.8668  13.5363  14.1454
    18.3457  18.7411  18.9597  19.3042

          k = 0.1184 0.1184 0.2321 (  1704 PWs)   bands (ev):

   -31.6772  -0.8632   6.3336   7.1927   8.4342  12.3774  13.8232  14.4459
    15.8070  17.0116  19.3616  21.4820

          k = 0.1184 0.1184 0.3481 (  1699 PWs)   bands (ev):

   -31.6696   0.1339   5.8340   7.3715   8.1151  12.4217  13.2032  14.1841
    15.1746  15.9168  19.1563  20.3515

          k = 0.1184 0.1184 0.4642 (  1689 PWs)   bands (ev):

   -31.6640   1.3949   3.8179   8.8034   9.0386  10.6082  11.9256  15.0587
    15.4205  16.7469  17.1845  19.1466

          k = 0.1184 0.2369 0.0000 (  1716 PWs)   bands (ev):

   -31.6864  -1.1516   3.8194   6.6707  11.5046  12.8881  14.0664  16.1628
    16.4013  18.5852  18.7590  21.2981

          k = 0.1184 0.2369 0.1160 (  1705 PWs)   bands (ev):

   -31.6826  -0.9438   4.0172   6.8563  11.2018  12.4580  12.9853  16.1715
    16.6830  17.9050  19.5710  20.2322

          k = 0.1184 0.2369 0.2321 (  1700 PWs)   bands (ev):

   -31.6758  -0.3247   4.6038   7.4012   8.8815  12.3597  12.9434  14.8613
    15.9276  17.5818  18.6733  21.9614

          k = 0.1184 0.2369 0.3481 (  1700 PWs)   bands (ev):

   -31.6688   0.6879   5.5177   6.4395   8.2520  11.0336  13.2066  14.2658
    15.0657  17.5414  19.2792  19.6565

          k = 0.1184 0.2369 0.4642 (  1699 PWs)   bands (ev):

   -31.6641   1.9890   4.2931   6.8470   8.5715   9.9945  11.9832  14.6286
    16.0504  17.4614  17.6401  19.6563

          k = 0.1184 0.3553 0.0000 (  1709 PWs)   bands (ev):

   -31.6846  -0.4775   2.3969   7.2355  10.1754  13.4959  14.8676  15.7735
    16.9960  18.8425  19.8057  21.9061

          k = 0.1184 0.3553 0.1160 (  1706 PWs)   bands (ev):

   -31.6819  -0.2639   2.5862   7.4293  10.2566  12.6262  13.6983  14.9061
    17.2267  19.4887  20.4905  21.0074

          k = 0.1184 0.3553 0.2321 (  1704 PWs)   bands (ev):

   -31.6755   0.3736   3.1482   7.9781   9.5888  10.7002  12.4625  14.6954
    17.0324  17.7227  20.1359  21.1462

          k = 0.1184 0.3553 0.3481 (  1692 PWs)   bands (ev):

   -31.6672   1.4219   4.0550   7.0904   8.7379   9.6390  12.2480  14.6187
    15.5922  17.5283  19.1220  20.4068

          k = 0.1184 0.3553 0.4642 (  1702 PWs)   bands (ev):

   -31.6638   2.8119   4.8707   5.2692   7.4844  10.5201  12.3658  13.0702
    16.3045  17.0525  18.5100  19.3927

          k = 0.2369 0.2369 0.0000 (  1699 PWs)   bands (ev):

   -31.6834  -0.5919   3.7639   5.0430   9.7052  14.6216  15.6440  17.1307
    17.7676  18.8961  19.3786  19.7394

          k = 0.2369 0.2369 0.1160 (  1710 PWs)   bands (ev):

   -31.6822  -0.3829   3.9772   5.2202   9.7542  12.6653  15.5824  16.7251
    17.1868  18.3036  20.0348  20.0821

          k = 0.2369 0.2369 0.2321 (  1713 PWs)   bands (ev):

   -31.6762   0.2402   4.6151   5.7403   9.0997  10.8948  13.7489  14.8582
    16.8179  17.9940  20.3614  20.6782

          k = 0.2369 0.2369 0.3481 (  1702 PWs)   bands (ev):

   -31.6679   1.2609   5.6718   6.5258   6.9097  10.9277  11.2474  13.0434
    17.3437  17.7035  19.4512  21.6048

          k = 0.2369 0.2369 0.4642 (  1703 PWs)   bands (ev):

   -31.6636   2.5857   4.8249   7.1307   7.4331   9.0269  10.4105  12.5864
    16.2525  18.9772  19.6727  20.9319

          k = 0.2369 0.3553 0.0000 (  1704 PWs)   bands (ev):

   -31.6830   0.1519   2.6883   5.0218   8.5261  15.4192  16.7088  17.5233
    18.3057  19.6587  19.8139  20.2432

          k = 0.2369 0.3553 0.1160 (  1708 PWs)   bands (ev):

   -31.6811   0.3646   2.8893   5.2227   8.6147  13.3415  15.3893  17.2031
    17.8154  19.5673  20.3933  21.3251

          k = 0.2369 0.3553 0.2321 (  1702 PWs)   bands (ev):

   -31.6742   0.9992   3.4874   5.8165   8.7659  10.6135  12.8705  15.0499
    17.7784  18.5447  20.7041  21.4747

          k = 0.2369 0.3553 0.3481 (  1699 PWs)   bands (ev):

   -31.6668   2.0421   4.4619   6.7142   7.7196   9.1486  10.9373  12.5953
    16.6688  18.8499  21.5246  22.1234

          k = 0.2369 0.3553 0.4642 (  1708 PWs)   bands (ev):

   -31.6634   3.4215   5.5100   5.7536   7.4435   8.5294  10.1277  10.9759
    15.5863  20.1389  21.6033  22.4664

          k = 0.3553 0.3553 0.0000 (  1722 PWs)   bands (ev):

   -31.6839   1.0745   2.8789   3.3902   7.5082  16.2251  18.1140  18.3014
    19.6461  19.6682  21.0233  21.0836

          k = 0.3553 0.3553 0.1160 (  1718 PWs)   bands (ev):

   -31.6811   1.2859   3.0937   3.5963   7.5931  14.2068  15.9224  16.3040
    19.7565  20.1432  21.7227  22.0592

          k = 0.3553 0.3553 0.2321 (  1705 PWs)   bands (ev):

   -31.6736   1.9164   3.7365   4.2090   7.8187  11.3935  13.0585  13.5516
    17.6944  20.7489  22.4700  23.1297

          k = 0.3553 0.3553 0.3481 (  1705 PWs)   bands (ev):

   -31.6666   2.9499   4.8013   5.2028   7.9807   8.9666  10.4451  11.0692
    16.0473  21.6922  23.3667  24.0898

          k = 0.3553 0.3553 0.4642 (  1708 PWs)   bands (ev):

   -31.6625   4.2973   6.2264   6.2724   6.8069   8.1886   8.2771   9.2726
    15.1135  22.9612  24.3646  24.7828

     the Fermi energy is    14.8643 ev

!    total energy              =     -39.47610064 Ry
     estimated scf accuracy    <          6.6E-10 Ry
     smearing contrib. (-TS)   =      -0.00095760 Ry
     internal energy E=F+TS    =     -39.47514304 Ry

     The total energy is F=E-TS. E is the sum of the following terms:
     one-electron contribution =      12.75154894 Ry
     hartree contribution      =       2.84200692 Ry
     xc contribution           =     -13.76469926 Ry
     ewald contribution        =     -41.30399964 Ry

     convergence has been achieved in   8 iterations

     Forces acting on atoms (cartesian axes, Ry/au):

     atom    1 type  1   force =     0.00000000    0.00000000    0.00000000
     atom    2 type  1   force =     0.00000000    0.00000000    0.00000000
     atom    3 type  1   force =     0.00000000    0.00000000    0.00000000
     atom    4 type  2   force =     0.00000000    0.00000000    0.00000000
     The non-local contrib.  to forces
     atom    1 type  1   force =     0.00000000    0.00000000    0.00000000
     atom    2 type  1   force =     0.00000000    0.00000000    0.00000000
     atom    3 type  1   force =     0.00000000    0.00000000    0.00000000
     atom    4 type  2   force =     0.00000000    0.00000000    0.00000000
     The ionic contribution  to forces
     atom    1 type  1   force =     0.00000000    0.00000000    0.00000000
     atom    2 type  1   force =     0.00000000    0.00000000    0.00000000
     atom    3 type  1   force =     0.00000000    0.00000000   -0.00000000
     atom    4 type  2   force =    -0.00000000    0.00000000   -0.00000000
     The local contribution  to forces
     atom    1 type  1   force =     0.00000000    0.00000000    0.00000000
     atom    2 type  1   force =     0.00000000    0.00000000    0.00000000
     atom    3 type  1   force =     0.00000000    0.00000000   -0.00000000
     atom    4 type  2   force =    -0.00000000   -0.00000000   -0.00000000
     The core correction contribution to forces
     atom    1 type  1   force =     0.00000000    0.00000000   -0.00000000
     atom    2 type  1   force =     0.00000000    0.00000000   -0.00000000
     atom    3 type  1   force =     0.00000000    0.00000000   -0.00000000
     atom    4 type  2   force =     0.00000000    0.00000000    0.00000000
     The Hubbard contrib.    to forces
     atom    1 type  1   force =     0.00000000    0.00000000    0.00000000
     atom    2 type  1   force =     0.00000000    0.00000000    0.00000000
     atom    3 type  1   force =     0.00000000    0.00000000    0.00000000
     atom    4 type  2   force =     0.00000000    0.00000000    0.00000000
     The SCF correction term to forces
     atom    1 type  1   force =    -0.00000000   -0.00000000    0.00000000
     atom    2 type  1   force =     0.00000000    0.00000000    0.00000000
     atom    3 type  1   force =    -0.00000000    0.00000000   -0.00000000
     atom    4 type  2   force =     0.00000000    0.00000000    0.00000000

     Total force =     0.000000     Total SCF correction =     0.000000


     Computing stress (Cartesian axis) and pressure

          total   stress  (Ry/bohr**3)                   (kbar)     P=      775.84
   0.00472020   0.00000000   0.00000000          694.36        0.00        0.00
   0.00000000   0.00472020   0.00000000            0.00      694.36        0.00
   0.00000000   0.00000000   0.00638167            0.00        0.00      938.78

     Energy error            =      1.4E+00 Ry
     Gradient error          =      0.0E+00 Ry/Bohr
     Cell gradient error     =      4.4E+02 kbar

     number of scf cycles    =   2
     number of bfgs steps    =   1

     enthalpy           old  =     -37.2441657261 Ry
     enthalpy           new  =     -38.6329605965 Ry

     CASE: enthalpy          _new < enthalpy          _old

     new trust radius        =       0.1586868981 bohr
ibrav =      6
 celldm(1) =      6.76829544
 celldm(3) =      0.83599827
Input lattice vectors:
     1.20302043     0.00000000     0.00000000
     0.00000000     1.20302043     0.00000000
     0.00000000     0.00000000     1.00572300
New lattice vectors in INITIAL alat:
     1.20302043     0.00000000     0.00000000
     0.00000000     1.20302043     0.00000000
     0.00000000     0.00000000     1.00572300
New lattice vectors in NEW alat (for information only):
     1.00000000     0.00000000     0.00000000
     0.00000000     1.00000000     0.00000000
     0.00000000     0.00000000     0.83599827
Discrepancy in bohr =     0.000000    0.000000    0.000000
     new conv_thr            =            1.0E-10 Ry

     new unit-cell volume =    259.20496 a.u.^3 (    38.41021 Ang^3 )
     density =      3.94262 g/cm^3

CELL_PARAMETERS (alat=  5.62608520)
   1.203020431   0.000000000   0.000000000
   0.000000000   1.203020431   0.000000000
   0.000000000   0.000000000   1.005723004

ATOMIC_POSITIONS (crystal)
Si            0.0000000000        0.5000000000        0.5000000000
Si            0.5000000000        0.0000000000        0.5000000000
Si            0.0000000000        0.0000000000        0.0000000000
Li            0.5000000000        0.5000000000        0.0000000000



     Writing config-only to output data dir ./output/SiLi.save/
     NEW-OLD atomic charge density approx. for the potential
     extrapolated charge   15.64465, renormalised to   15.00000

     total cpu time spent up to now is        7.9 secs

     Self-consistent Calculation

     iteration #  1     ecut=    80.00 Ry     beta= 0.70
     Davidson diagonalization with overlap
     ethr =  1.00E-06,  avg # of iterations =  9.6

     total cpu time spent up to now is        8.7 secs

     total energy              =     -39.53992450 Ry
     estimated scf accuracy    <       0.00046981 Ry

     iteration #  2     ecut=    80.00 Ry     beta= 0.70
     Davidson diagonalization with overlap
     ethr =  3.13E-06,  avg # of iterations =  3.0

     total cpu time spent up to now is        9.1 secs

     total energy              =     -39.54115976 Ry
     estimated scf accuracy    <       0.00025230 Ry

     iteration #  3     ecut=    80.00 Ry     beta= 0.70
     Davidson diagonalization with overlap
     ethr =  1.68E-06,  avg # of iterations =  1.0

     total cpu time spent up to now is        9.3 secs

     total energy              =     -39.54112948 Ry
     estimated scf accuracy    <       0.00006093 Ry

     iteration #  4     ecut=    80.00 Ry     beta= 0.70
     Davidson diagonalization with overlap
     ethr =  4.06E-07,  avg # of iterations =  2.0

     total cpu time spent up to now is        9.6 secs

     total energy              =     -39.54113617 Ry
     estimated scf accuracy    <       0.00000028 Ry

     iteration #  5     ecut=    80.00 Ry     beta= 0.70
     Davidson diagonalization with overlap
     ethr =  1.84E-09,  avg # of iterations =  3.7

     total cpu time spent up to now is       10.0 secs

     total energy              =     -39.54113632 Ry
     estimated scf accuracy    <       0.00000009 Ry

     iteration #  6     ecut=    80.00 Ry     beta= 0.70
     Davidson diagonalization with overlap
     ethr =  5.72E-10,  avg # of iterations =  2.0

     total cpu time spent up to now is       10.3 secs

     total energy              =     -39.54113633 Ry
     estimated scf accuracy    <          3.5E-09 Ry

     iteration #  7     ecut=    80.00 Ry     beta= 0.70
     Davidson diagonalization with overlap
     ethr =  2.33E-11,  avg # of iterations =  2.3

     total cpu time spent up to now is       10.6 secs

     total energy              =     -39.54113633 Ry
     estimated scf accuracy    <          2.0E-10 Ry

     iteration #  8     ecut=    80.00 Ry     beta= 0.70
     Davidson diagonalization with overlap
     ethr =  1.33E-12,  avg # of iterations =  2.4

     total cpu time spent up to now is       10.9 secs

     End of self-consistent calculation

          k = 0.0000 0.0000 0.0000 (  1657 PWs)   bands (ev):

   -32.3057  -2.3132   7.3027   7.3027   8.8066  11.3858  11.4526  14.5694
    17.9932  17.9932  18.1608  21.3148

          k = 0.0000 0.0000 0.1105 (  1681 PWs)   bands (ev):

   -32.3071  -2.1303   7.4849   7.4849   8.9971   9.3934  11.7409  16.6480
    18.0592  18.0592  18.3520  19.2854

          k = 0.0000 0.0000 0.2210 (  1701 PWs)   bands (ev):

   -32.3080  -1.5862   6.8663   8.0301   8.0301   9.5615  11.9266  16.3613
    16.3613  17.8849  18.8256  18.8256

          k = 0.0000 0.0000 0.3314 (  1697 PWs)   bands (ev):

   -32.3019  -0.7049   4.5971   8.9292   8.9292  10.4695  12.1432  14.0411
    14.0411  15.7603  19.6305  19.6305

          k = 0.0000 0.0000 0.4419 (  1684 PWs)   bands (ev):

   -32.2973   0.3667   2.8221  10.1077  10.1077  11.5629  12.1344  12.1344
    12.2960  14.0305  19.2552  20.7012

          k = 0.0000 0.1187 0.0000 (  1688 PWs)   bands (ev):

   -32.3097  -2.1249   5.5459   7.5033   9.9391  11.5812  12.6348  14.4635
    15.3208  17.6774  18.9445  21.1987

          k = 0.0000 0.1187 0.1105 (  1690 PWs)   bands (ev):

   -32.3079  -1.9410   5.7218   7.6855   9.5768  10.1718  12.8645  15.4989
    16.1872  17.1692  18.4351  19.2775

          k = 0.0000 0.1187 0.2210 (  1704 PWs)   bands (ev):

   -32.3067  -1.3943   6.2054   7.1303   8.2302  10.5595  13.0994  14.8452
    15.9604  16.7095  17.7025  19.2358

          k = 0.0000 0.1187 0.3314 (  1698 PWs)   bands (ev):

   -32.3010  -0.5078   4.7621   7.1743   9.1287  10.9227  12.8905  13.6253
    14.2298  16.9714  17.0032  18.6832

          k = 0.0000 0.1187 0.4419 (  1697 PWs)   bands (ev):

   -32.2984   0.5774   2.9858   8.2835  10.0578  10.3064  12.3297  12.9498
    13.7342  15.5941  18.0347  19.2443

          k = 0.0000 0.2375 0.0000 (  1710 PWs)   bands (ev):

   -32.3117  -1.5889   3.4756   8.0870  10.6696  12.1535  13.0223  13.9941
    15.6944  16.7759  17.2131  21.9790

          k = 0.0000 0.2375 0.1105 (  1705 PWs)   bands (ev):

   -32.3090  -1.4021   3.6472   8.2685  10.1750  10.7843  13.2056  14.5927
    15.7739  16.0514  18.5956  19.8155

          k = 0.0000 0.2375 0.2210 (  1693 PWs)   bands (ev):

   -32.3040  -0.8461   4.1511   7.6518   8.8118  10.8167  13.0486  13.7494
    16.1916  16.4955  17.1661  20.2128

          k = 0.0000 0.2375 0.3314 (  1689 PWs)   bands (ev):

   -32.2990   0.0588   4.8035   5.5474   9.7078   9.7255  12.8400  14.5163
    14.9463  16.0074  17.2856  18.8879

          k = 0.0000 0.2375 0.4419 (  1699 PWs)   bands (ev):

   -32.2982   1.1905   3.4440   6.1004   8.2217  10.8844  12.8856  13.5931
    15.2267  15.7614  18.0619  18.2543

          k = 0.0000 0.3562 0.0000 (  1718 PWs)   bands (ev):

   -32.3122  -0.9003   1.9905   8.9024  11.2031  11.3468  12.9785  13.4857
    15.1371  16.8295  19.4895  21.0406

          k = 0.0000 0.3562 0.1105 (  1707 PWs)   bands (ev):

   -32.3093  -0.7068   2.1553   9.0823  10.8098  11.4662  11.5328  12.8406
    15.3375  18.7518  19.6950  20.4626

          k = 0.0000 0.3562 0.2210 (  1691 PWs)   bands (ev):

   -32.3024  -0.1295   2.6418   8.3961   9.6209  10.3061  12.0864  12.3775
    15.7305  17.8476  19.3937  21.0837

          k = 0.0000 0.3562 0.3314 (  1692 PWs)   bands (ev):

   -32.2991   0.8180   3.4116   6.0745   8.4319  10.5110  12.9838  13.1764
    15.5291  15.9720  17.9563  18.5270

          k = 0.0000 0.3562 0.4419 (  1685 PWs)   bands (ev):

   -32.2955   2.0588   3.9801   4.4449   6.9426  11.6925  13.5996  14.1032
    14.3566  15.7643  16.6041  16.6703

          k = 0.1187 0.1187 0.0000 (  1697 PWs)   bands (ev):

   -32.3102  -1.9341   5.3248   6.2851  11.5658  11.7765  13.1177  13.2042
    15.4844  18.3839  18.8549  19.5305

          k = 0.1187 0.1187 0.1105 (  1696 PWs)   bands (ev):

   -32.3083  -1.7496   5.5152   6.4359   9.8288  11.7345  13.3073  13.7225
    17.0810  17.1939  17.9952  18.6711

          k = 0.1187 0.1187 0.2210 (  1704 PWs)   bands (ev):

   -32.3063  -1.2006   6.0850   6.7370   7.4611  12.1788  13.4331  14.0762
    14.6875  16.0852  19.1353  20.2695

          k = 0.1187 0.1187 0.3314 (  1699 PWs)   bands (ev):

   -32.3010  -0.3095   4.9387   7.0290   7.7213  11.8039  12.5776  13.6405
    14.7067  15.4304  18.2484  20.0733

          k = 0.1187 0.1187 0.4419 (  1689 PWs)   bands (ev):

   -32.2971   0.7880   3.1554   8.3360   8.5036   9.9859  11.3784  14.6642
    14.9543  16.1822  16.3977  18.5745

          k = 0.1187 0.2375 0.0000 (  1716 PWs)   bands (ev):

   -32.3125  -1.3901   3.5907   6.4639  11.2426  12.3480  12.7195  15.2622
    16.1044  16.9548  17.8967  19.7579

          k = 0.1187 0.2375 0.1105 (  1705 PWs)   bands (ev):

   -32.3090  -1.2029   3.7675   6.6289  10.2294  11.7464  12.7781  15.3435
    16.0486  17.0374  18.1837  18.9312

          k = 0.1187 0.2375 0.2210 (  1700 PWs)   bands (ev):

   -32.3041  -0.6458   4.2890   7.0913   7.8405  11.7936  12.4911  14.1545
    15.2249  17.0253  18.2305  20.8062

          k = 0.1187 0.2375 0.3314 (  1700 PWs)   bands (ev):

   -32.2998   0.2615   5.0086   5.6640   7.8803  10.2732  12.6050  13.6532
    14.6429  17.1762  18.6723  18.9689

          k = 0.1187 0.2375 0.4419 (  1699 PWs)   bands (ev):

   -32.2971   1.4012   3.6322   6.2795   8.0833   9.3760  11.4100  14.0304
    15.5695  16.9328  17.1983  18.9663

          k = 0.1187 0.3562 0.0000 (  1709 PWs)   bands (ev):

   -32.3098  -0.6836   2.1178   7.0819   9.8605  13.1720  13.3896  15.2059
    15.3263  17.1536  19.6577  20.3935

          k = 0.1187 0.3562 0.1105 (  1706 PWs)   bands (ev):

   -32.3085  -0.4904   2.2862   7.2574   9.8744  11.3657  13.1268  14.0829
    16.4494  18.5032  19.0279  20.0174

          k = 0.1187 0.3562 0.2210 (  1704 PWs)   bands (ev):

   -32.3040   0.0862   2.7844   7.7455   8.5859  10.0146  11.6856  14.3976
    16.0549  17.1401  19.4429  20.5058

          k = 0.1187 0.3562 0.3314 (  1692 PWs)   bands (ev):

   -32.2978   1.0325   3.5774   6.2614   8.1961   9.0630  11.6857  13.8336
    15.2359  16.9321  18.4046  19.8473

          k = 0.1187 0.3562 0.4419 (  1702 PWs)   bands (ev):

   -32.2971   2.2718   4.2005   4.6349   6.9547  10.0030  11.7669  12.4220
    15.8010  16.5566  17.9676  18.7680

          k = 0.2375 0.2375 0.0000 (  1699 PWs)   bands (ev):

   -32.3086  -0.8181   3.5799   4.7904   9.3719  12.9179  15.5540  16.2274
    16.9922  17.2529  17.8017  19.3995

          k = 0.2375 0.2375 0.1105 (  1710 PWs)   bands (ev):

   -32.3087  -0.6297   3.7735   4.9462   9.3500  11.3024  15.0255  15.9052
    16.2289  17.5400  18.3635  19.8626

          k = 0.2375 0.2375 0.2210 (  1713 PWs)   bands (ev):

   -32.3049  -0.0682   4.3530   5.3989   8.1946  10.2523  12.7103  13.9108
    16.5516  17.5622  19.3735  20.4495

          k = 0.2375 0.2375 0.3314 (  1702 PWs)   bands (ev):

   -32.2988   0.8486   5.3140   5.8563   6.2981  10.3315  10.3842  12.3094
    16.7054  17.4161  18.9231  21.2348

          k = 0.2375 0.2375 0.4419 (  1703 PWs)   bands (ev):

   -32.2970   2.0156   4.1691   6.6491   6.8742   8.3464   9.8328  11.9304
    15.7004  18.6258  19.2087  20.2408

          k = 0.2375 0.3562 0.0000 (  1704 PWs)   bands (ev):

   -32.3083  -0.0477   2.4506   4.8451   8.1218  13.7410  15.8611  16.5202
    17.1682  18.2306  18.5356  20.0119

          k = 0.2375 0.3562 0.1105 (  1708 PWs)   bands (ev):

   -32.3076   0.1448   2.6306   5.0270   8.1861  11.9457  14.1020  16.4351
    17.0776  18.8167  19.4632  19.9232

          k = 0.2375 0.3562 0.2210 (  1702 PWs)   bands (ev):

   -32.3024   0.7191   3.1654   5.5649   8.2237   9.5254  11.8087  13.9859
    17.3711  17.8465  20.2234  21.1595

          k = 0.2375 0.3562 0.3314 (  1699 PWs)   bands (ev):

   -32.2970   1.6618   4.0295   6.3710   6.8758   8.4576  10.1502  11.7596
    15.9333  18.5725  21.0446  21.8146

          k = 0.2375 0.3562 0.4419 (  1708 PWs)   bands (ev):

   -32.2967   2.8961   4.8538   5.1645   6.9300   7.9258   9.5006  10.2845
    14.9946  19.7454  21.1300  21.9044

          k = 0.3562 0.3562 0.0000 (  1722 PWs)   bands (ev):

   -32.3094   0.8898   2.6886   3.1977   7.0311  14.5806  16.4513  16.6727
    18.1047  19.0797  19.9612  20.2284

          k = 0.3562 0.3562 0.1105 (  1718 PWs)   bands (ev):

   -32.3080   1.0815   2.8835   3.3837   7.0984  12.8089  14.5401  14.9354
    18.4618  20.0545  20.1920  21.4134

          k = 0.3562 0.3562 0.2210 (  1705 PWs)   bands (ev):

   -32.3017   1.6534   3.4671   3.9368   7.2725  10.2659  11.9362  12.4499
    16.6863  20.6530  22.2423  22.7756

          k = 0.3562 0.3562 0.3314 (  1705 PWs)   bands (ev):

   -32.2970   2.5911   4.4351   4.8326   7.3222   8.1123   9.5550  10.2012
    15.2676  21.5206  23.0734  23.6999

          k = 0.3562 0.3562 0.4419 (  1708 PWs)   bands (ev):

   -32.2958   3.8109   5.7282   5.7804   6.0889   7.4926   7.6556   8.5594
    14.4748  22.7047  23.9655  24.2646

     the Fermi energy is    14.0795 ev

!    total energy              =     -39.54113633 Ry
     estimated scf accuracy    <          6.1E-11 Ry
     smearing contrib. (-TS)   =      -0.00035923 Ry
     internal energy E=F+TS    =     -39.54077710 Ry

     The total energy is F=E-TS. E is the sum of the following terms:
     one-electron contribution =      11.93752442 Ry
     hartree contribution      =       2.86820245 Ry
     xc contribution           =     -13.64154515 Ry
     ewald contribution        =     -40.70495882 Ry

     convergence has been achieved in   8 iterations

     Forces acting on atoms (cartesian axes, Ry/au):

     atom    1 type  1   force =     0.00000000    0.00000000    0.00000000
     atom    2 type  1   force =     0.00000000    0.00000000    0.00000000
     atom    3 type  1   force =     0.00000000    0.00000000    0.00000000
     atom    4 type  2   force =     0.00000000    0.00000000    0.00000000
     The non-local contrib.  to forces
     atom    1 type  1   force =     0.00000000    0.00000000    0.00000000
     atom    2 type  1   force =     0.00000000    0.00000000    0.00000000
     atom    3 type  1   force =     0.00000000    0.00000000    0.00000000
     atom    4 type  2   force =     0.00000000    0.00000000    0.00000000
     The ionic contribution  to forces
     atom    1 type  1   force =    -0.00000000    0.00000000    0.00000000
     atom    2 type  1   force =     0.00000000   -0.00000000    0.00000000
     atom    3 type  1   force =    -0.00000000   -0.00000000   -0.00000000
     atom    4 type  2   force =     0.00000000    0.00000000   -0.00000000
     The local contribution  to forces
     atom    1 type  1   force =    -0.00000000    0.00000000   -0.00000000
     atom    2 type  1   force =     0.00000000   -0.00000000   -0.00000000
     atom    3 type  1   force =     0.00000000   -0.00000000   -0.00000000
     atom    4 type  2   force =    -0.00000000   -0.00000000   -0.00000000
     The core correction contribution to forces
     atom    1 type  1   force =     0.00000000   -0.00000000   -0.00000000
     atom    2 type  1   force =    -0.00000000   -0.00000000   -0.00000000
     atom    3 type  1   force =     0.00000000   -0.00000000   -0.00000000
     atom    4 type  2   force =     0.00000000    0.00000000    0.00000000
     The Hubbard contrib.    to forces
     atom    1 type  1   force =     0.00000000    0.00000000    0.00000000
     atom    2 type  1   force =     0.00000000    0.00000000    0.00000000
     atom    3 type  1   force =     0.00000000    0.00000000    0.00000000
     atom    4 type  2   force =     0.00000000    0.00000000    0.00000000
     The SCF correction term to forces
     atom    1 type  1   force =     0.00000000   -0.00000000   -0.00000000
     atom    2 type  1   force =     0.00000000    0.00000000   -0.00000000
     atom    3 type  1   force =     0.00000000    0.00000000   -0.00000000
     atom    4 type  2   force =     0.00000000    0.00000000    0.00000000

     Total force =     0.000000     Total SCF correction =     0.000000


     Computing stress (Cartesian axis) and pressure

          total   stress  (Ry/bohr**3)                   (kbar)     P=      611.15
   0.00377108   0.00000000   0.00000000          554.75        0.00        0.00
   0.00000000   0.00377108   0.00000000            0.00      554.75        0.00
   0.00000000   0.00000000   0.00492143            0.00        0.00      723.97

     Energy error            =      2.7E-02 Ry
     Gradient error          =      0.0E+00 Ry/Bohr
     Cell gradient error     =      2.2E+02 kbar

     number of scf cycles    =   3
     number of bfgs steps    =   2

     enthalpy           old  =     -38.6329605965 Ry
     enthalpy           new  =     -38.6601165891 Ry

     CASE: enthalpy          _new < enthalpy          _old

     new trust radius        =       0.1993182107 bohr
ibrav =      6
 celldm(1) =      6.69113290
 celldm(3) =      0.89798468
Input lattice vectors:
     1.18930529     0.00000000     0.00000000
     0.00000000     1.18930529     0.00000000
     0.00000000     0.00000000     1.06797793
New lattice vectors in INITIAL alat:
     1.18930529     0.00000000     0.00000000
     0.00000000     1.18930529     0.00000000
     0.00000000     0.00000000     1.06797793
New lattice vectors in NEW alat (for information only):
     1.00000000     0.00000000     0.00000000
     0.00000000     1.00000000     0.00000000
     0.00000000     0.00000000     0.89798468
Discrepancy in bohr =     0.000000    0.000000    0.000000
     new conv_thr            =            1.0E-10 Ry

     new unit-cell volume =    269.00967 a.u.^3 (    39.86312 Ang^3 )
     density =      3.79893 g/cm^3

CELL_PARAMETERS (alat=  5.62608520)
   1.189305293   0.000000000   0.000000000
   0.000000000   1.189305293   0.000000000
   0.000000000   0.000000000   1.067977929

ATOMIC_POSITIONS (crystal)
Si            0.0000000000        0.5000000000        0.5000000000
Si            0.5000000000        0.0000000000        0.5000000000
Si            0.0000000000        0.0000000000        0.0000000000
Li            0.5000000000        0.5000000000        0.0000000000



     Writing config-only to output data dir ./output/SiLi.save/
     NEW-OLD atomic charge density approx. for the potential
     extrapolated charge   15.54648, renormalised to   15.00000

     total cpu time spent up to now is       11.6 secs

     Self-consistent Calculation

     iteration #  1     ecut=    80.00 Ry     beta= 0.70
     Davidson diagonalization with overlap
     ethr =  1.00E-06,  avg # of iterations = 12.0

     total cpu time spent up to now is       12.5 secs

     total energy              =     -39.58562737 Ry
     estimated scf accuracy    <       0.00059916 Ry

     iteration #  2     ecut=    80.00 Ry     beta= 0.70
     Davidson diagonalization with overlap
     ethr =  3.99E-06,  avg # of iterations =  2.2

     total cpu time spent up to now is       12.8 secs

     total energy              =     -39.58659313 Ry
     estimated scf accuracy    <       0.00018676 Ry

     iteration #  3     ecut=    80.00 Ry     beta= 0.70
     Davidson diagonalization with overlap
     ethr =  1.25E-06,  avg # of iterations =  1.1

     total cpu time spent up to now is       13.1 secs

     total energy              =     -39.58658264 Ry
     estimated scf accuracy    <       0.00003299 Ry

     iteration #  4     ecut=    80.00 Ry     beta= 0.70
     Davidson diagonalization with overlap
     ethr =  2.20E-07,  avg # of iterations =  2.0

     total cpu time spent up to now is       13.4 secs

     total energy              =     -39.58658574 Ry
     estimated scf accuracy    <       0.00000078 Ry

     iteration #  5     ecut=    80.00 Ry     beta= 0.70
     Davidson diagonalization with overlap
     ethr =  5.20E-09,  avg # of iterations =  2.9

     total cpu time spent up to now is       13.7 secs

     total energy              =     -39.58658601 Ry
     estimated scf accuracy    <       0.00000011 Ry

     iteration #  6     ecut=    80.00 Ry     beta= 0.70
     Davidson diagonalization with overlap
     ethr =  7.52E-10,  avg # of iterations =  1.9

     total cpu time spent up to now is       14.0 secs

     total energy              =     -39.58658603 Ry
     estimated scf accuracy    <          2.0E-09 Ry

     iteration #  7     ecut=    80.00 Ry     beta= 0.70
     Davidson diagonalization with overlap
     ethr =  1.35E-11,  avg # of iterations =  3.7

     total cpu time spent up to now is       14.4 secs

     total energy              =     -39.58658603 Ry
     estimated scf accuracy    <          1.7E-10 Ry

     iteration #  8     ecut=    80.00 Ry     beta= 0.70
     Davidson diagonalization with overlap
     ethr =  1.12E-12,  avg # of iterations =  2.2

     total cpu time spent up to now is       14.7 secs

     End of self-consistent calculation

          k = 0.0000 0.0000 0.0000 (  1657 PWs)   bands (ev):

   -32.8343  -2.5264   7.3342   7.3342   8.9933   9.6003  10.8925  13.3590
    18.2225  18.2225  18.2842  20.0062

          k = 0.0000 0.0000 0.1040 (  1681 PWs)   bands (ev):

   -32.8359  -2.3670   7.4947   7.4947   7.9151   9.1634  11.4389  14.8495
    17.6442  17.6442  18.4484  18.7750

          k = 0.0000 0.0000 0.2081 (  1701 PWs)   bands (ev):

   -32.8425  -1.8945   5.6873   7.9738   7.9738   9.6695  11.7032  15.4405
    15.4405  16.9145  17.8477  19.0514

          k = 0.0000 0.0000 0.3121 (  1697 PWs)   bands (ev):

   -32.8346  -1.1373   3.6999   8.7583   8.7583  10.4930  11.8892  13.3799
    13.3799  15.0294  19.7583  19.7583

          k = 0.0000 0.0000 0.4162 (  1684 PWs)   bands (ev):

   -32.8307  -0.2580   2.1964   9.7498   9.7498  11.5388  11.7408  11.7408
    12.0055  13.4241  18.6384  20.6357

          k = 0.0000 0.1201 0.0000 (  1688 PWs)   bands (ev):

   -32.8395  -2.3291   5.5239   7.5414   9.8043  10.0045  12.0649  13.6070
    15.4725  17.4565  17.4929  21.0455

          k = 0.0000 0.1201 0.1040 (  1690 PWs)   bands (ev):

   -32.8367  -2.1687   5.6700   7.7018   8.1519  10.2179  12.6984  14.8736
    15.6182  15.8600  17.9923  18.1064

          k = 0.0000 0.1201 0.2081 (  1704 PWs)   bands (ev):

   -32.8388  -1.6934   5.7164   6.3478   8.1806  10.5693  12.9651  13.9375
    15.5340  16.2811  17.2856  18.0445

          k = 0.0000 0.1201 0.3121 (  1698 PWs)   bands (ev):

   -32.8330  -0.9306   3.8710   6.9572   8.9646  10.6882  12.3916  13.4359
    13.5760  16.3604  16.9132  18.5903

          k = 0.0000 0.1201 0.4162 (  1697 PWs)   bands (ev):

   -32.8320  -0.0379   2.3636   7.8751   9.7326   9.9558  11.9423  12.5802
    13.6226  15.1144  17.7676  18.9073

          k = 0.0000 0.2402 0.0000 (  1710 PWs)   bands (ev):

   -32.8420  -1.7639   3.3693   8.1465  10.4025  10.7071  12.9652  13.1232
    15.1937  15.7299  16.3372  20.1740

          k = 0.0000 0.2402 0.1040 (  1705 PWs)   bands (ev):

   -32.8386  -1.6006   3.5154   8.3065   8.7496  10.8018  13.2817  13.6503
    14.6767  15.9644  17.2558  18.6516

          k = 0.0000 0.2402 0.2081 (  1693 PWs)   bands (ev):

   -32.8352  -1.1156   3.9342   6.5365   8.7842  10.4972  12.4056  13.7462
    16.0048  16.2819  16.3687  18.8461

          k = 0.0000 0.2402 0.3121 (  1689 PWs)   bands (ev):

   -32.8310  -0.3331   4.1715   4.9976   9.1452   9.5669  12.5805  14.0576
    14.6568  15.7876  17.1716  18.3554

          k = 0.0000 0.2402 0.4162 (  1699 PWs)   bands (ev):

   -32.8331   0.6070   2.8293   5.5973   7.8311  10.5590  12.5164  13.2345
    15.0487  15.4350  17.7787  17.9972

          k = 0.0000 0.3604 0.0000 (  1718 PWs)   bands (ev):

   -32.8427  -1.0213   1.8026   9.0086  11.2707  11.3740  11.3845  12.9238
    13.4778  15.0044  19.2386  20.1756

          k = 0.0000 0.3604 0.1040 (  1707 PWs)   bands (ev):

   -32.8404  -0.8508   1.9427   9.1675   9.5842  11.1255  11.5460  12.1047
    14.4585  16.6842  19.3512  19.7792

          k = 0.0000 0.3604 0.2081 (  1691 PWs)   bands (ev):

   -32.8326  -0.3426   2.3533   7.3061   9.4609   9.6425  12.0241  12.3272
    15.2590  17.0022  18.9931  19.6632

          k = 0.0000 0.3604 0.3121 (  1692 PWs)   bands (ev):

   -32.8314   0.4878   2.9850   5.2378   7.7544  10.4233  12.7855  13.0909
    14.9473  15.5991  17.4594  17.9092

          k = 0.0000 0.3604 0.4162 (  1685 PWs)   bands (ev):

   -32.8295   1.5481   3.3606   3.8447   6.5222  11.4307  13.2536  13.7017
    14.1018  15.4749  16.2310  16.3600

          k = 0.1201 0.1201 0.0000 (  1697 PWs)   bands (ev):

   -32.8397  -2.1296   5.3504   6.1980  10.0081  11.7753  12.2900  13.2740
    14.6477  17.3644  18.0721  18.5250

          k = 0.1201 0.1201 0.1040 (  1696 PWs)   bands (ev):

   -32.8373  -1.9686   5.5189   6.3055   8.4116  11.9194  13.1863  13.5254
    15.4589  15.8152  16.8970  18.8613

          k = 0.1201 0.1201 0.2081 (  1704 PWs)   bands (ev):

   -32.8387  -1.4909   5.9211   6.0230   6.9668  12.2342  13.1223  13.7526
    13.9969  15.3426  18.3352  19.1279

          k = 0.1201 0.1201 0.3121 (  1699 PWs)   bands (ev):

   -32.8335  -0.7231   4.0515   6.8572   7.4580  11.2317  12.0612  13.4994
    14.4868  15.1974  17.6341  20.2006

          k = 0.1201 0.1201 0.4162 (  1689 PWs)   bands (ev):

   -32.8307   0.1821   2.5367   7.9984   8.0788   9.5415  10.9968  14.5378
    14.6961  15.8627  15.9656  18.2798

          k = 0.1201 0.2402 0.0000 (  1716 PWs)   bands (ev):

   -32.8437  -1.5577   3.5086   6.4377  10.6058  11.1423  12.8038  13.9533
    15.3812  16.2460  17.3518  18.3163

          k = 0.1201 0.2402 0.1040 (  1705 PWs)   bands (ev):

   -32.8396  -1.3940   3.6602   6.5740   8.9335  11.5169  12.7642  14.2537
    15.4063  16.1737  17.1786  18.1723

          k = 0.1201 0.2402 0.2081 (  1700 PWs)   bands (ev):

   -32.8349  -0.9077   4.0990   6.5891   7.1403  11.1965  12.2154  13.8876
    14.5515  16.8421  17.9547  19.2924

          k = 0.1201 0.2402 0.3121 (  1700 PWs)   bands (ev):

   -32.8314  -0.1221   4.3964   5.1204   7.6578   9.6151  12.1285  13.2744
    14.5343  17.1060  18.1127  18.7442

          k = 0.1201 0.2402 0.4162 (  1699 PWs)   bands (ev):

   -32.8305   0.8267   3.0216   5.7943   7.7297   8.9090  11.0202  13.6366
    15.3483  16.6164  17.0798  18.6152

          k = 0.1201 0.3604 0.0000 (  1709 PWs)   bands (ev):

   -32.8386  -0.7988   1.9494   7.1432   9.7143  11.4734  13.5668  13.6753
    14.3732  15.6975  19.0060  19.5396

          k = 0.1201 0.3604 0.1040 (  1706 PWs)   bands (ev):

   -32.8391  -0.6286   2.0931   7.2962   9.4649  10.1600  12.2040  13.9966
    15.7684  17.0425  17.4090  20.0024

          k = 0.1201 0.3604 0.2081 (  1704 PWs)   bands (ev):

   -32.8350  -0.1210   2.5153   7.4677   7.7528   9.3843  11.1146  14.4774
    15.1812  16.8414  18.5910  19.7574

          k = 0.1201 0.3604 0.3121 (  1692 PWs)   bands (ev):

   -32.8291   0.7087   3.1704   5.4387   7.6666   8.7678  11.2988  13.2044
    15.2171  16.5320  17.9429  19.5057

          k = 0.1201 0.3604 0.4162 (  1702 PWs)   bands (ev):

   -32.8309   1.7689   3.5867   4.0490   6.5425   9.6600  11.3635  11.9502
    15.4913  16.3519  17.7416  18.4422

          k = 0.2402 0.2402 0.0000 (  1699 PWs)   bands (ev):

   -32.8378  -0.9617   3.5680   4.6731   9.2079  11.2023  14.5498  15.6950
    15.7992  16.2728  17.0179  18.6426

          k = 0.2402 0.2402 0.1040 (  1710 PWs)   bands (ev):

   -32.8389  -0.7965   3.7394   4.8015   8.9429  10.0926  13.9711  14.8617
    16.2149  16.2322  17.5549  19.7523

          k = 0.2402 0.2402 0.2081 (  1713 PWs)   bands (ev):

   -32.8359  -0.3052   4.2522   5.1604   7.2225   9.8602  11.7176  13.0392
    16.7143  17.3229  18.4566  19.7193

          k = 0.2402 0.2402 0.3121 (  1702 PWs)   bands (ev):

   -32.8301   0.4915   5.0565   5.1021   5.9411   9.6298   9.8858  11.7303
    16.2082  17.5077  18.7026  21.1144

          k = 0.2402 0.2402 0.4162 (  1703 PWs)   bands (ev):

   -32.8313   1.4709   3.5694   6.2729   6.4022   7.8278   9.4186  11.4474
    15.3237  18.5972  19.0253  19.9495

          k = 0.2402 0.3604 0.0000 (  1704 PWs)   bands (ev):

   -32.8374  -0.1454   2.3425   4.8480   7.8501  12.0705  14.2355  15.3050
    16.6117  16.7382  17.7793  19.5413

          k = 0.2402 0.3604 0.1040 (  1708 PWs)   bands (ev):

   -32.8379   0.0244   2.4980   5.0075   7.8802  10.5374  12.7978  15.1997
    17.0571  17.3457  18.4211  18.7156

          k = 0.2402 0.3604 0.2081 (  1702 PWs)   bands (ev):

   -32.8326   0.5305   2.9576   5.4784   7.6788   8.5647  10.8220  13.0174
    16.6614  17.9183  19.7325  20.5528

          k = 0.2402 0.3604 0.3121 (  1699 PWs)   bands (ev):

   -32.8270   1.3582   3.6873   5.9985   6.2335   7.8772   9.5040  11.0552
    15.3226  18.6844  20.8557  21.8500

          k = 0.2402 0.3604 0.4162 (  1708 PWs)   bands (ev):

   -32.8308   2.4185   4.2579   4.6320   6.5417   7.4728   9.0362   9.7385
    14.5472  19.6946  21.0064  21.6845

          k = 0.3604 0.3604 0.0000 (  1722 PWs)   bands (ev):

   -32.8384   0.8241   2.6557   3.1581   6.6462  12.9590  14.8594  15.1033
    16.3065  17.6340  18.1086  18.3450

          k = 0.3604 0.3604 0.1040 (  1718 PWs)   bands (ev):

   -32.8387   0.9937   2.8283   3.3209   6.6924  11.4185  13.1964  13.6136
    17.1491  18.1639  19.4556  20.0727

          k = 0.3604 0.3604 0.2081 (  1705 PWs)   bands (ev):

   -32.8314   1.4991   3.3447   3.8035   6.8061   9.1728  10.8824  11.4241
    15.7400  21.0202  21.1567  22.1684

          k = 0.3604 0.3604 0.3121 (  1705 PWs)   bands (ev):

   -32.8272   2.3264   4.2004   4.5784   6.6968   7.3693   8.7659   9.4406
    14.5913  21.8071  23.1024  23.6047

          k = 0.3604 0.3604 0.4162 (  1708 PWs)   bands (ev):

   -32.8298   3.3894   5.2598   5.3796   5.5105   6.9469   7.1569   7.9651
    13.9573  22.8612  23.9054  24.1235

     the Fermi energy is    13.5639 ev

!    total energy              =     -39.58658603 Ry
     estimated scf accuracy    <          7.8E-11 Ry
     smearing contrib. (-TS)   =       0.00008568 Ry
     internal energy E=F+TS    =     -39.58667171 Ry

     The total energy is F=E-TS. E is the sum of the following terms:
     one-electron contribution =      11.27381239 Ry
     hartree contribution      =       2.88728939 Ry
     xc contribution           =     -13.53982137 Ry
     ewald contribution        =     -40.20795212 Ry

     convergence has been achieved in   8 iterations

     Forces acting on atoms (cartesian axes, Ry/au):

     atom    1 type  1   force =     0.00000000    0.00000000    0.00000000
     atom    2 type  1   force =     0.00000000    0.00000000    0.00000000
     atom    3 type  1   force =     0.00000000    0.00000000    0.00000000
     atom    4 type  2   force =     0.00000000    0.00000000    0.00000000
     The non-local contrib.  to forces
     atom    1 type  1   force =     0.00000000    0.00000000    0.00000000
     atom    2 type  1   force =     0.00000000    0.00000000    0.00000000
     atom    3 type  1   force =     0.00000000    0.00000000    0.00000000
     atom    4 type  2   force =     0.00000000    0.00000000    0.00000000
     The ionic contribution  to forces
     atom    1 type  1   force =    -0.00000000    0.00000000    0.00000000
     atom    2 type  1   force =     0.00000000   -0.00000000    0.00000000
     atom    3 type  1   force =    -0.00000000   -0.00000000   -0.00000000
     atom    4 type  2   force =     0.00000000    0.00000000   -0.00000000
     The local contribution  to forces
     atom    1 type  1   force =     0.00000000   -0.00000000   -0.00000000
     atom    2 type  1   force =    -0.00000000    0.00000000   -0.00000000
     atom    3 type  1   force =    -0.00000000   -0.00000000   -0.00000000
     atom    4 type  2   force =     0.00000000    0.00000000   -0.00000000
     The core correction contribution to forces
     atom    1 type  1   force =     0.00000000   -0.00000000   -0.00000000
     atom    2 type  1   force =    -0.00000000   -0.00000000   -0.00000000
     atom    3 type  1   force =     0.00000000    0.00000000   -0.00000000
     atom    4 type  2   force =     0.00000000    0.00000000    0.00000000
     The Hubbard contrib.    to forces
     atom    1 type  1   force =     0.00000000    0.00000000    0.00000000
     atom    2 type  1   force =     0.00000000    0.00000000    0.00000000
     atom    3 type  1   force =     0.00000000    0.00000000    0.00000000
     atom    4 type  2   force =     0.00000000    0.00000000    0.00000000
     The SCF correction term to forces
     atom    1 type  1   force =    -0.00000000    0.00000000    0.00000000
     atom    2 type  1   force =     0.00000000    0.00000000    0.00000000
     atom    3 type  1   force =    -0.00000000    0.00000000    0.00000000
     atom    4 type  2   force =    -0.00000000   -0.00000000   -0.00000000

     Total force =     0.000000     Total SCF correction =     0.000000


     Computing stress (Cartesian axis) and pressure

          total   stress  (Ry/bohr**3)                   (kbar)     P=      483.88
   0.00319277   0.00000000   0.00000000          469.67        0.00        0.00
   0.00000000   0.00319277   0.00000000            0.00      469.67        0.00
   0.00000000   0.00000000   0.00348253            0.00        0.00      512.30

     Energy error            =      1.2E-02 Ry
     Gradient error          =      0.0E+00 Ry/Bohr
     Cell gradient error     =      3.0E+01 kbar

     number of scf cycles    =   4
     number of bfgs steps    =   3

     enthalpy           old  =     -38.6601165891 Ry
     enthalpy           new  =     -38.6722407368 Ry

     CASE: enthalpy          _new < enthalpy          _old

     new trust radius        =       0.0345897062 bohr
ibrav =      6
 celldm(1) =      6.65582239
 celldm(3) =      0.91226786
Input lattice vectors:
     1.18302908     0.00000000     0.00000000
     0.00000000     1.18302908     0.00000000
     0.00000000     0.00000000     1.07923940
New lattice vectors in INITIAL alat:
     1.18302908     0.00000000     0.00000000
     0.00000000     1.18302908     0.00000000
     0.00000000     0.00000000     1.07923940
New lattice vectors in NEW alat (for information only):
     1.00000000     0.00000000     0.00000000
     0.00000000     1.00000000     0.00000000
     0.00000000     0.00000000     0.91226786
Discrepancy in bohr =     0.000000    0.000000    0.000000
     new conv_thr            =            1.0E-10 Ry

     new unit-cell volume =    268.98468 a.u.^3 (    39.85942 Ang^3 )
     density =      3.79928 g/cm^3

CELL_PARAMETERS (alat=  5.62608520)
   1.183029079   0.000000000   0.000000000
   0.000000000   1.183029079   0.000000000
   0.000000000   0.000000000   1.079239402

ATOMIC_POSITIONS (crystal)
Si            0.0000000000        0.5000000000        0.5000000000
Si            0.5000000000        0.0000000000        0.5000000000
Si            0.0000000000        0.0000000000        0.0000000000
Li            0.5000000000        0.5000000000        0.0000000000



     Writing config-only to output data dir ./output/SiLi.save/
     NEW-OLD atomic charge density approx. for the potential
     extrapolated charge   14.99861, renormalised to   15.00000

     total cpu time spent up to now is       15.4 secs

     Self-consistent Calculation

     iteration #  1     ecut=    80.00 Ry     beta= 0.70
     Davidson diagonalization with overlap
     ethr =  1.00E-06,  avg # of iterations =  6.5

     total cpu time spent up to now is       15.9 secs

     total energy              =     -39.58723347 Ry
     estimated scf accuracy    <       0.00001862 Ry

     iteration #  2     ecut=    80.00 Ry     beta= 0.70
     Davidson diagonalization with overlap
     ethr =  1.24E-07,  avg # of iterations =  2.1

     total cpu time spent up to now is       16.2 secs

     total energy              =     -39.58723585 Ry
     estimated scf accuracy    <       0.00000129 Ry

     iteration #  3     ecut=    80.00 Ry     beta= 0.70
     Davidson diagonalization with overlap
     ethr =  8.58E-09,  avg # of iterations =  2.3

     total cpu time spent up to now is       16.5 secs

     total energy              =     -39.58723606 Ry
     estimated scf accuracy    <       0.00000011 Ry

     iteration #  4     ecut=    80.00 Ry     beta= 0.70
     Davidson diagonalization with overlap
     ethr =  7.16E-10,  avg # of iterations =  2.4

     total cpu time spent up to now is       16.8 secs

     total energy              =     -39.58723608 Ry
     estimated scf accuracy    <          3.0E-09 Ry

     iteration #  5     ecut=    80.00 Ry     beta= 0.70
     Davidson diagonalization with overlap
     ethr =  1.99E-11,  avg # of iterations =  3.7

     total cpu time spent up to now is       17.1 secs

     total energy              =     -39.58723608 Ry
     estimated scf accuracy    <          2.0E-10 Ry

     iteration #  6     ecut=    80.00 Ry     beta= 0.70
     Davidson diagonalization with overlap
     ethr =  1.33E-12,  avg # of iterations =  2.3

     total cpu time spent up to now is       17.4 secs

     End of self-consistent calculation

          k = 0.0000 0.0000 0.0000 (  1657 PWs)   bands (ev):

   -32.8311  -2.5231   7.4309   7.4309   9.1602   9.3465  10.8421  13.2432
    18.4244  18.4244  18.4298  19.8774

          k = 0.0000 0.0000 0.1030 (  1681 PWs)   bands (ev):

   -32.8324  -2.3679   7.5876   7.5876   7.7125   9.3268  11.4637  14.5994
    17.5928  17.5928  18.5892  18.9425

          k = 0.0000 0.0000 0.2059 (  1701 PWs)   bands (ev):

   -32.8399  -1.9083   5.5353   8.0553   8.0553   9.8223  11.7552  15.3814
    15.3814  16.9010  17.4992  19.2687

          k = 0.0000 0.0000 0.3089 (  1697 PWs)   bands (ev):

   -32.8312  -1.1738   3.5969   8.8196   8.8196  10.6289  11.9344  13.3646
    13.3646  15.0600  19.9603  19.9603

          k = 0.0000 0.0000 0.4118 (  1684 PWs)   bands (ev):

   -32.8273  -0.3310   2.1430   9.7773   9.7773  11.6556  11.7726  11.7726
    12.0413  13.4872  18.7021  20.8072

          k = 0.0000 0.1208 0.0000 (  1688 PWs)   bands (ev):

   -32.8363  -2.3230   5.6062   7.6406   9.5534  10.1280  11.9888  13.5988
    15.6327  17.3038  17.6162  20.0718

          k = 0.0000 0.1208 0.1030 (  1690 PWs)   bands (ev):

   -32.8331  -2.1668   5.7453   7.7972   7.9575  10.3497  12.7537  14.6720
    15.7629  15.7714  18.0058  18.1028

          k = 0.0000 0.1208 0.2059 (  1704 PWs)   bands (ev):

   -32.8356  -1.7043   5.6098   6.3735   8.2646  10.6853  13.0464  13.8965
    15.5069  16.3949  17.2087  17.9351

          k = 0.0000 0.1208 0.3089 (  1698 PWs)   bands (ev):

   -32.8294  -0.9641   3.7701   7.0045   9.0284  10.7319  12.4412  13.5174
    13.5638  16.4041  17.0358  18.7231

          k = 0.0000 0.1208 0.4118 (  1697 PWs)   bands (ev):

   -32.8286  -0.1077   2.3116   7.8864   9.7663   9.9857  11.9768  12.6416
    13.7221  15.1854  17.8542  19.0102

          k = 0.0000 0.2415 0.0000 (  1710 PWs)   bands (ev):

   -32.8387  -1.7490   3.4244   8.2537  10.1604  10.8245  12.8117  13.2606
    15.0080  15.8504  16.3737  20.0580

          k = 0.0000 0.2415 0.1030 (  1705 PWs)   bands (ev):

[...]
        k(   30) = (   0.1223780   0.2447559   0.4045935), wk =   0.0725624
        k(   31) = (   0.1223780   0.3671339   0.0000000), wk =   0.0362812
        k(   32) = (   0.1223780   0.3671339   0.1011484), wk =   0.0725624
        k(   33) = (   0.1223780   0.3671339   0.2022968), wk =   0.0725624
        k(   34) = (   0.1223780   0.3671339   0.3034451), wk =   0.0725624
        k(   35) = (   0.1223780   0.3671339   0.4045935), wk =   0.0725624
        k(   36) = (   0.2447559   0.2447559   0.0000000), wk =   0.0181406
        k(   37) = (   0.2447559   0.2447559   0.1011484), wk =   0.0362812
        k(   38) = (   0.2447559   0.2447559   0.2022968), wk =   0.0362812
        k(   39) = (   0.2447559   0.2447559   0.3034451), wk =   0.0362812
        k(   40) = (   0.2447559   0.2447559   0.4045935), wk =   0.0362812
        k(   41) = (   0.2447559   0.3671339   0.0000000), wk =   0.0362812
        k(   42) = (   0.2447559   0.3671339   0.1011484), wk =   0.0725624
        k(   43) = (   0.2447559   0.3671339   0.2022968), wk =   0.0725624
        k(   44) = (   0.2447559   0.3671339   0.3034451), wk =   0.0725624
        k(   45) = (   0.2447559   0.3671339   0.4045935), wk =   0.0725624
        k(   46) = (   0.3671339   0.3671339   0.0000000), wk =   0.0181406
        k(   47) = (   0.3671339   0.3671339   0.1011484), wk =   0.0362812
        k(   48) = (   0.3671339   0.3671339   0.2022968), wk =   0.0362812
        k(   49) = (   0.3671339   0.3671339   0.3034451), wk =   0.0362812
        k(   50) = (   0.3671339   0.3671339   0.4045935), wk =   0.0362812

     Dense  grid:    25791 G-vectors     FFT dimensions: (  40,  40,  36)

     Estimated max dynamical RAM per process >      17.97 MB

     Estimated total dynamical RAM >     143.76 MB

     Initial potential from superposition of free atoms

     starting charge      14.9936, renormalised to      15.0000
     Starting wfcs are   14 randomized atomic wfcs

     total cpu time spent up to now is       29.2 secs

     Self-consistent Calculation

     iteration #  1     ecut=    80.00 Ry     beta= 0.70
     Davidson diagonalization with overlap
     c_bands:  1 eigenvalues not converged
     c_bands:  1 eigenvalues not converged
     c_bands:  1 eigenvalues not converged
     c_bands:  2 eigenvalues not converged
     c_bands:  1 eigenvalues not converged
     c_bands:  1 eigenvalues not converged
     c_bands:  1 eigenvalues not converged
     c_bands:  1 eigenvalues not converged
     c_bands:  1 eigenvalues not converged
     c_bands:  1 eigenvalues not converged
     c_bands:  1 eigenvalues not converged
     c_bands:  1 eigenvalues not converged
     c_bands:  1 eigenvalues not converged
     c_bands:  1 eigenvalues not converged
     c_bands:  1 eigenvalues not converged
     c_bands:  1 eigenvalues not converged
     c_bands:  1 eigenvalues not converged
     c_bands:  1 eigenvalues not converged
     c_bands:  1 eigenvalues not converged
     c_bands:  1 eigenvalues not converged
     c_bands:  3 eigenvalues not converged
     ethr =  1.00E-06,  avg # of iterations = 19.0

     total cpu time spent up to now is       31.1 secs

     total energy              =     -39.59203327 Ry
     estimated scf accuracy    <       0.01991912 Ry

     iteration #  2     ecut=    80.00 Ry     beta= 0.70
     Davidson diagonalization with overlap
     ethr =  1.33E-04,  avg # of iterations =  1.2

     total cpu time spent up to now is       31.5 secs

     total energy              =     -39.59188223 Ry
     estimated scf accuracy    <       0.00141364 Ry

     iteration #  3     ecut=    80.00 Ry     beta= 0.70
     Davidson diagonalization with overlap
     ethr =  9.42E-06,  avg # of iterations =  1.4

     total cpu time spent up to now is       31.8 secs

     total energy              =     -39.59193678 Ry
     estimated scf accuracy    <       0.00000659 Ry

     iteration #  4     ecut=    80.00 Ry     beta= 0.70
     Davidson diagonalization with overlap
     ethr =  4.39E-08,  avg # of iterations =  3.7

     total cpu time spent up to now is       32.4 secs

     total energy              =     -39.59193925 Ry
     estimated scf accuracy    <       0.00000067 Ry

     iteration #  5     ecut=    80.00 Ry     beta= 0.70
     Davidson diagonalization with overlap
     ethr =  4.46E-09,  avg # of iterations =  2.0

     total cpu time spent up to now is       32.8 secs

     total energy              =     -39.59193940 Ry
     estimated scf accuracy    <       0.00000004 Ry

     iteration #  6     ecut=    80.00 Ry     beta= 0.70
     Davidson diagonalization with overlap
     ethr =  2.61E-10,  avg # of iterations =  2.3

     total cpu time spent up to now is       33.2 secs

     total energy              =     -39.59193941 Ry
     estimated scf accuracy    <          1.2E-09 Ry

     iteration #  7     ecut=    80.00 Ry     beta= 0.70
     Davidson diagonalization with overlap
     ethr =  7.92E-12,  avg # of iterations =  3.7

     total cpu time spent up to now is       33.8 secs

     total energy              =     -39.59193941 Ry
     estimated scf accuracy    <          3.9E-10 Ry

     iteration #  8     ecut=    80.00 Ry     beta= 0.70
     Davidson diagonalization with overlap
     ethr =  2.63E-12,  avg # of iterations =  1.5

     total cpu time spent up to now is       34.1 secs

     End of self-consistent calculation

          k = 0.0000 0.0000 0.0000 (  3229 PWs)   bands (ev):

   -32.6857  -2.4641   7.7224   7.7224   8.9791   9.6278  10.8137  13.1757
    18.8480  18.9749  18.9749  19.6544

          k = 0.0000 0.0000 0.1011 (  3229 PWs)   bands (ev):

   -32.6850  -2.3161   7.4344   7.8727   7.8727   9.7881  11.5968  14.2661
    17.6068  17.6068  18.7875  18.9992

          k = 0.0000 0.0000 0.2023 (  3214 PWs)   bands (ev):

   -32.6833  -1.8788   5.3441   8.3206   8.3206  10.2649  11.9579  15.4162
    15.4162  16.9683  17.0794  19.4395

          k = 0.0000 0.0000 0.3034 (  3246 PWs)   bands (ev):

   -32.6813  -1.1853   3.4902   9.0497   9.0497  11.0403  12.1251  13.4742
    13.4742  15.3174  19.4158  20.1144

          k = 0.0000 0.0000 0.4046 (  3238 PWs)   bands (ev):

   -32.6800  -0.4088   2.1246   9.9472   9.9472  11.9642  11.9642  12.0213
    12.2140  13.8136  19.0249  20.7933

          k = 0.0000 0.1224 0.0000 (  3205 PWs)   bands (ev):

   -32.6851  -2.2569   5.8627   7.9383   9.1930  10.4703  11.9277  13.7653
    16.0875  17.1768  18.0171  19.9897

          k = 0.0000 0.1224 0.1011 (  3217 PWs)   bands (ev):

   -32.6844  -2.1080   5.9858   7.6986   8.0885  10.7309  12.9345  14.4467
    15.7415  16.2113  17.9733  18.5142

          k = 0.0000 0.1224 0.2023 (  3224 PWs)   bands (ev):

   -32.6827  -1.6679   5.4672   6.5636   8.5361  11.0292  13.3306  13.9781
    15.5811  16.7864  16.9456  18.0795

          k = 0.0000 0.1224 0.3034 (  3232 PWs)   bands (ev):

   -32.6807  -0.9682   3.6686   7.1994   9.2647  10.9175  12.7113  13.6811
    13.8065  16.6824  17.4236  19.1118

          k = 0.0000 0.1224 0.4046 (  3237 PWs)   bands (ev):

   -32.6794  -0.1781   2.2974   8.0163   9.9460  10.1616  12.1756  12.9087
    14.0553  15.5098  18.1787  19.4019

          k = 0.0000 0.2448 0.0000 (  3233 PWs)   bands (ev):

   -32.6837  -1.6618   3.6158   8.5712   9.8214  11.1590  12.6222  13.6586
    14.8022  16.1662  16.7101  20.0606

          k = 0.0000 0.2448 0.1011 (  3224 PWs)   bands (ev):

   -32.6830  -1.5097   3.7480   8.3087   8.7211  11.2293  13.5760  13.8055
    14.1989  16.6290  17.3062  18.5342

          k = 0.0000 0.2448 0.2023 (  3228 PWs)   bands (ev):

   -32.6814  -1.0593   4.1156   6.2490   9.1677  10.5920  12.7246  14.2316
    16.1642  16.2962  16.9797  18.3975

          k = 0.0000 0.2448 0.3034 (  3224 PWs)   bands (ev):

   -32.6795  -0.3382   4.0548   5.0753   9.1744   9.8950  13.0303  14.2322
    15.0456  16.1891  17.7427  18.7368

          k = 0.0000 0.2448 0.4046 (  3223 PWs)   bands (ev):

   -32.6782   0.5000   2.7786   5.6428   7.9719  10.7922  12.7809  13.6105
    15.5204  15.7664  18.2819  18.3975

          k = 0.0000 0.3671 0.0000 (  3218 PWs)   bands (ev):

   -32.6826  -0.8688   1.9661   9.4893  10.7420  11.8359  11.9330  12.8533
    12.9943  14.6521  19.3661  20.8072

          k = 0.0000 0.3671 0.1011 (  3223 PWs)   bands (ev):

   -32.6819  -0.7089   2.0932   9.1833   9.6381  11.0871  11.9861  12.5087
    14.3761  16.1186  19.2895  19.9620

          k = 0.0000 0.3671 0.2023 (  3224 PWs)   bands (ev):

   -32.6803  -0.2329   2.4635   7.0317   9.3173  10.0825  12.4295  12.9178
    15.5092  17.0659  18.7593  19.3942

          k = 0.0000 0.3671 0.3034 (  3217 PWs)   bands (ev):

   -32.6785   0.5414   3.0223   5.0887   7.7180  10.8091  13.1287  13.6487
    15.1350  15.9684  17.8253  18.0843

          k = 0.0000 0.3671 0.4046 (  3221 PWs)   bands (ev):

   -32.6773   1.5067   3.3189   3.8009   6.6149  11.7222  13.5656  13.9532
    14.5690  15.9242  16.6602  16.6707

          k = 0.1224 0.1224 0.0000 (  3205 PWs)   bands (ev):

   -32.6845  -2.0479   5.7327   6.4841   9.4068  11.9686  12.4342  13.8239
    14.8226  17.1082  17.7694  19.0513

          k = 0.1224 0.1224 0.1011 (  3212 PWs)   bands (ev):

   -32.6838  -1.8982   5.8913   6.5468   7.9872  12.5570  13.2398  14.0029
    15.0866  15.6623  16.8147  19.5846

          k = 0.1224 0.1224 0.2023 (  3229 PWs)   bands (ev):

   -32.6821  -1.4555   5.6480   6.3653   7.1650  12.6713  13.3107  13.8936
    14.4920  15.4030  17.6099  19.5372

          k = 0.1224 0.1224 0.3034 (  3231 PWs)   bands (ev):

   -32.6802  -0.7504   3.8556   7.1488   7.6466  11.3158  12.1975  14.0653
    14.8613  15.5847  17.9672  19.9981

          k = 0.1224 0.1224 0.4046 (  3225 PWs)   bands (ev):

   -32.6789   0.0524   2.4764   8.1782   8.2098   9.7163  11.2244  15.0125
    15.0648  16.2361  16.4016  18.7169

          k = 0.1224 0.2448 0.0000 (  3219 PWs)   bands (ev):

   -32.6831  -1.4464   3.7749   6.7848  10.0346  11.4039  13.2268  13.7756
    15.0025  16.8487  17.5899  18.0651

          k = 0.1224 0.2448 0.1011 (  3216 PWs)   bands (ev):

   -32.6824  -1.2939   3.9129   6.9006   8.5256  11.8460  13.0694  14.2529
    15.0320  16.2833  17.4820  18.4679

          k = 0.1224 0.2448 0.2023 (  3220 PWs)   bands (ev):

   -32.6808  -0.8420   4.3029   6.3676   7.3843  11.1965  12.5357  14.3245
    14.6868  17.1694  17.9839  19.3001

          k = 0.1224 0.2448 0.3034 (  3225 PWs)   bands (ev):

   -32.6789  -0.1175   4.2821   5.2211   7.8854   9.6639  12.3136  13.5582
    15.0657  17.6230  18.3249  19.3075

          k = 0.1224 0.2448 0.4046 (  3229 PWs)   bands (ev):

   -32.6777   0.7298   2.9774   5.8525   7.8815   9.0690  11.2633  13.9178
    15.8039  16.9734  17.5846  19.1085

          k = 0.1224 0.3671 0.0000 (  3231 PWs)   bands (ev):

   -32.6820  -0.6379   2.1283   7.5713  10.0021  10.9543  13.2035  13.8687
    14.2297  15.7702  18.8178  19.7482

          k = 0.1224 0.3671 0.1011 (  3225 PWs)   bands (ev):

   -32.6814  -0.4781   2.2592   7.7102   9.2791  10.1797  12.0045  14.6070
    15.5293  16.7897  17.3000  19.7999

          k = 0.1224 0.3671 0.2023 (  3217 PWs)   bands (ev):

   -32.6798  -0.0026   2.6415   7.2238   8.0840   9.3801  11.2802  15.1014
    15.2354  17.1899  18.4505  19.1669

          k = 0.1224 0.3671 0.3034 (  3222 PWs)   bands (ev):

   -32.6780   0.7710   3.2237   5.2984   7.6701   9.0770  11.5293  13.3491
    15.8060  16.8047  18.2817  19.9444

          k = 0.1224 0.3671 0.4046 (  3219 PWs)   bands (ev):

   -32.6768   1.7365   3.5539   4.0168   6.6399   9.9033  11.6186  12.1561
    15.7703  16.8647  18.2572  18.9126

          k = 0.2448 0.2448 0.0000 (  3213 PWs)   bands (ev):

   -32.6818  -0.8227   3.8943   4.9193   9.4830  10.6611  14.0378  15.3630
    15.9053  16.4141  17.4753  18.5496

          k = 0.2448 0.2448 0.1011 (  3224 PWs)   bands (ev):

   -32.6812  -0.6685   4.0558   5.0314   8.8411  10.0651  13.7551  14.6648
    15.6153  16.9388  18.0226  19.8103

          k = 0.2448 0.2448 0.2023 (  3212 PWs)   bands (ev):

   -32.6796  -0.2109   4.5390   5.3273   6.9955  10.0895  11.6039  13.0033
    17.4788  17.6130  18.1587  19.5157

          k = 0.2448 0.2448 0.3034 (  3220 PWs)   bands (ev):

   -32.6778   0.5262   4.9187   5.3390   6.0524   9.6286  10.0639  11.8681
    16.3872  18.2401  19.1565  21.6591

          k = 0.2448 0.2448 0.4046 (  3229 PWs)   bands (ev):

   -32.6766   1.4056   3.5436   6.4336   6.4367   7.9361   9.6276  11.6403
    15.5636  19.2634  19.4948  20.5229

          k = 0.2448 0.3671 0.0000 (  3225 PWs)   bands (ev):

   -32.6807   0.0409   2.5706   5.1984   8.0335  11.5803  13.8008  14.7581
    16.4470  16.5714  18.3814  19.3356

          k = 0.2448 0.3671 0.1011 (  3215 PWs)   bands (ev):

   -32.6801   0.2002   2.7138   5.3462   8.0357  10.1729  12.5073  15.0063
    16.4533  17.7885  18.1891  18.8857

          k = 0.2448 0.3671 0.2023 (  3211 PWs)   bands (ev):

   -32.6786   0.6744   3.1349   5.7804   7.5985   8.5195  10.7078  12.9577
    16.6359  18.6741  19.3141  20.4677

          k = 0.2448 0.3671 0.3034 (  3223 PWs)   bands (ev):

   -32.6768   1.4465   3.7939   5.8972   6.4457   7.9268   9.5710  11.1207
    15.4124  19.4331  21.3194  22.3805

          k = 0.2448 0.3671 0.4046 (  3214 PWs)   bands (ev):

   -32.6757   2.4135   4.2514   4.6388   6.6494   7.6264   9.2049   9.8641
    14.7180  20.3555  21.6282  22.2730

          k = 0.3671 0.3671 0.0000 (  3228 PWs)   bands (ev):

   -32.6797   1.0514   2.9500   3.4483   6.7273  12.5158  14.4900  14.7274
    15.7613  17.1696  17.6906  17.9058

          k = 0.3671 0.3671 0.1011 (  3220 PWs)   bands (ev):

   -32.6791   1.2106   3.1127   3.5993   6.7612  11.0794  12.9191  13.3522
    16.8236  17.5400  18.9469  19.5766

          k = 0.3671 0.3671 0.2023 (  3212 PWs)   bands (ev):

   -32.6776   1.6847   3.5995   4.0455   6.8387   8.9736  10.7303  11.3018
    15.6280  20.3904  21.5871  22.1816

          k = 0.3671 0.3671 0.3034 (  3222 PWs)   bands (ev):

   -32.6759   2.4578   4.4054   4.7523   6.6443   7.3495   8.7308   9.4416
    14.6236  22.7394  23.3249  23.9929

          k = 0.3671 0.3671 0.4046 (  3225 PWs)   bands (ev):

   -32.6748   3.4318   5.3038   5.5085   5.5472   7.0222   7.2413   8.0267
    14.0735  23.7247  24.5155  24.7756

     the Fermi energy is    13.7838 ev

!    total energy              =     -39.59193941 Ry
     estimated scf accuracy    <          3.4E-11 Ry
     smearing contrib. (-TS)   =      -0.00058898 Ry
     internal energy E=F+TS    =     -39.59135043 Ry

     The total energy is F=E-TS. E is the sum of the following terms:
     one-electron contribution =      11.41761778 Ry
     hartree contribution      =       2.89590218 Ry
     xc contribution           =     -13.57190290 Ry
     ewald contribution        =     -40.33296749 Ry

     convergence has been achieved in   8 iterations

     Forces acting on atoms (cartesian axes, Ry/au):

     atom    1 type  1   force =     0.00000000    0.00000000    0.00000000
     atom    2 type  1   force =     0.00000000    0.00000000    0.00000000
     atom    3 type  1   force =     0.00000000    0.00000000    0.00000000
     atom    4 type  2   force =     0.00000000    0.00000000    0.00000000
     The non-local contrib.  to forces
     atom    1 type  1   force =     0.00000000    0.00000000    0.00000000
     atom    2 type  1   force =     0.00000000    0.00000000    0.00000000
     atom    3 type  1   force =     0.00000000    0.00000000    0.00000000
     atom    4 type  2   force =     0.00000000    0.00000000    0.00000000
     The ionic contribution  to forces
     atom    1 type  1   force =     0.00000000   -0.00000000   -0.00000000
     atom    2 type  1   force =    -0.00000000    0.00000000   -0.00000000
     atom    3 type  1   force =     0.00000000    0.00000000   -0.00000000
     atom    4 type  2   force =    -0.00000000   -0.00000000   -0.00000000
     The local contribution  to forces
     atom    1 type  1   force =     0.00000000    0.00000000   -0.00000000
     atom    2 type  1   force =     0.00000000   -0.00000000   -0.00000000
     atom    3 type  1   force =     0.00000000   -0.00000000   -0.00000000
     atom    4 type  2   force =    -0.00000000   -0.00000000    0.00000000
     The core correction contribution to forces
     atom    1 type  1   force =    -0.00000000    0.00000000   -0.00000000
     atom    2 type  1   force =     0.00000000   -0.00000000   -0.00000000
     atom    3 type  1   force =    -0.00000000   -0.00000000    0.00000000
     atom    4 type  2   force =     0.00000000    0.00000000    0.00000000
     The Hubbard contrib.    to forces
     atom    1 type  1   force =     0.00000000    0.00000000    0.00000000
     atom    2 type  1   force =     0.00000000    0.00000000    0.00000000
     atom    3 type  1   force =     0.00000000    0.00000000    0.00000000
     atom    4 type  2   force =     0.00000000    0.00000000    0.00000000
     The SCF correction term to forces
     atom    1 type  1   force =    -0.00000000   -0.00000000    0.00000000
     atom    2 type  1   force =    -0.00000000    0.00000000    0.00000000
     atom    3 type  1   force =     0.00000000    0.00000000   -0.00000000
     atom    4 type  2   force =     0.00000000   -0.00000000   -0.00000000

     Total force =     0.000000     Total SCF correction =     0.000000


     Computing stress (Cartesian axis) and pressure

          total   stress  (Ry/bohr**3)                   (kbar)     P=      538.35
   0.00353696   0.00000000   0.00000000          520.30        0.00        0.00
   0.00000000   0.00353696   0.00000000            0.00      520.30        0.00
   0.00000000   0.00000000   0.00390488            0.00        0.00      574.43


     Writing all to output data dir ./output/SiLi.save/

     init_run     :      0.98s CPU      1.06s WALL (       2 calls)
     electrons    :     23.96s CPU     26.78s WALL (      10 calls)
     update_pot   :      1.14s CPU      1.16s WALL (       8 calls)
     forces       :      1.11s CPU      1.19s WALL (      10 calls)
     stress       :      4.46s CPU      4.57s WALL (      10 calls)

     Called by init_run:
     wfcinit      :      0.27s CPU      0.28s WALL (       2 calls)
     potinit      :      0.18s CPU      0.21s WALL (       2 calls)
     hinit0       :      0.52s CPU      0.55s WALL (       2 calls)

     Called by electrons:
     c_bands      :     21.16s CPU     23.54s WALL (      70 calls)
     sum_band     :      2.53s CPU      2.66s WALL (      70 calls)
     v_of_rho     :      0.24s CPU      0.43s WALL (      76 calls)
     mix_rho      :      0.03s CPU      0.04s WALL (      70 calls)

     Called by c_bands:
     init_us_2    :      0.55s CPU      0.61s WALL (    8100 calls)
     init_us_2:cp :      0.54s CPU      0.60s WALL (    8100 calls)
     cegterg      :     19.58s CPU     20.60s WALL (    3500 calls)

     Called by *egterg:
     cdiaghg      :      2.38s CPU      2.47s WALL (   14548 calls)
     h_psi        :     15.35s CPU     16.17s WALL (   15248 calls)
     g_psi        :      0.08s CPU      0.09s WALL (   11648 calls)

     Called by h_psi:
     h_psi:calbec :      1.18s CPU      1.24s WALL (   15248 calls)
     vloc_psi     :     13.20s CPU     13.90s WALL (   15248 calls)
     add_vuspsi   :      0.88s CPU      0.92s WALL (   15248 calls)

     General routines
     calbec       :      1.45s CPU      1.53s WALL (   17748 calls)
     fft          :      0.53s CPU      0.80s WALL (    1012 calls)
     ffts         :      0.01s CPU      0.02s WALL (      70 calls)
     fftw         :     13.40s CPU     14.07s WALL (  292428 calls)

     Parallel routines

     PWSCF        :     31.93s CPU     35.34s WALL


   This run was terminated on:  11:31:44  29Dec2024            

=------------------------------------------------------------------------------=
   JOB DONE.
=------------------------------------------------------------------------------=
