
     Program PWSCF v.7.2 starts on 17Jan2025 at 16: 9:50 

     This program is part of the open-source Quantum ESPRESSO suite
     for quantum simulation of materials; please cite
         "P. Giannozzi et al., J. Phys.:Condens. Matter 21 395502 (2009);
         "P. Giannozzi et al., J. Phys.:Condens. Matter 29 465901 (2017);
         "P. Giannozzi et al., J. Chem. Phys. 152 154105 (2020);
          URL http://www.quantum-espresso.org", 
     in publications or presentations arising from this work. More details at
     http://www.quantum-espresso.org/quote

     Parallel version (MPI & OpenMP), running on       8 processor cores
     Number of MPI processes:                 8
     Threads/MPI process:                     1

     MPI processes distributed on     1 nodes
     480162 MiB available memory on the printing compute node when the environment starts

     Waiting for input...
     Reading input from standard input

     Current dimensions of program PWSCF are:
     Max number of different atomic species (ntypx) = 10
     Max number of k-points (npk) =  40000
     Max angular momentum in pseudopotentials (lmaxx) =  4

     R & G space division:  proc/nbgrp/npool/nimage =       8
     Subspace diagonalization in iterative solution of the eigenvalue problem:
     a serial algorithm will be used


     Parallelization info
     --------------------
     sticks:   dense  smooth     PW     G-vecs:    dense   smooth      PW
     Min          96      96     30                 1793     1793     302
     Max          97      97     31                 1797     1797     304
     Sum         769     769    241                14359    14359    2421

     Using Slab Decomposition



     bravais-lattice index     =            7
     lattice parameter (alat)  =       6.8910  a.u.
     unit-cell volume          =     230.9068 (a.u.)^3
     number of atoms/cell      =            4
     number of atomic types    =            2
     number of electrons       =        13.00
     number of Kohn-Sham states=           11
     kinetic-energy cutoff     =      60.0000  Ry
     charge density cutoff     =     240.0000  Ry
     scf convergence threshold =      1.0E-08
     mixing beta               =       0.8000
     number of iterations used =            8  plain     mixing
     energy convergence thresh.=      1.0E-03
     force convergence thresh. =      5.0E-03
     press convergence thresh. =      2.0E+00
     Exchange-correlation= PBE
                           (   1   4   3   4   0   0   0)
     nstep                     =           50


     celldm(1)=   6.890986  celldm(2)=   0.000000  celldm(3)=   1.411310
     celldm(4)=   0.000000  celldm(5)=   0.000000  celldm(6)=   0.000000

     crystal axes: (cart. coord. in units of alat)
               a(1) = (   0.500000  -0.500000   0.705655 )  
               a(2) = (   0.500000   0.500000   0.705655 )  
               a(3) = (  -0.500000  -0.500000   0.705655 )  

     reciprocal axes: (cart. coord. in units 2 pi/alat)
               b(1) = (  1.000000 -1.000000  0.000000 )  
               b(2) = (  0.000000  1.000000  0.708561 )  
               b(3) = ( -1.000000  0.000000  0.708561 )  


     PseudoPot. # 1 for Si read from file:
     ../pseudo/Si_ONCV_PBE_sr.upf
     MD5 check sum: e543d271109d17c80368dfa7c482276d
     Pseudo is Norm-conserving + core correction, Zval =  4.0
     Generated using ONCVPSP code by D. R. Hamann
     Using radial grid of 1510 points,  6 beta functions with: 
                l(1) =   0
                l(2) =   0
                l(3) =   1
                l(4) =   1
                l(5) =   2
                l(6) =   2

     PseudoPot. # 2 for Li read from file:
     ../pseudo/Li_ONCV_PBE_sr.upf
     MD5 check sum: 50ff420e78310ffa21704f3361e624a4
     Pseudo is Norm-conserving, Zval =  3.0
     Generated using ONCVPSP code by D. R. Hamann
     Using radial grid of 1944 points,  4 beta functions with: 
                l(1) =   0
                l(2) =   0
                l(3) =   1
                l(4) =   1

     atomic species   valence    mass     pseudopotential
        Si             4.00    28.08550     Si( 1.00)
        Li             3.00     6.94100     Li( 1.00)

      8 Sym. Ops. (no inversion) found



   Cartesian axes

     site n.     atom                  positions (alat units)
         1           Si  tau(   1) = (   0.0000000   0.0000000   0.0361846  )
         2           Li  tau(   2) = (   0.0000000   0.5000000   0.4515706  )
         3           Li  tau(   3) = (   0.5000000   0.0000000   0.4515706  )
         4           Li  tau(   4) = (   0.0000000   0.0000000   0.4920985  )

     number of k points=    18  Marzari-Vanderbilt smearing, width (Ry)=  0.0200
                       cart. coord. in units 2pi/alat
        k(    1) = (   0.0000000   0.0000000   0.0000000), wk =   0.0160000
        k(    2) = (  -0.2000000   0.0000000   0.1417123), wk =   0.1280000
        k(    3) = (  -0.4000000   0.0000000   0.2834245), wk =   0.1280000
        k(    4) = (  -0.2000000   0.2000000   0.2834245), wk =   0.1280000
        k(    5) = (  -0.4000000   0.2000000   0.4251368), wk =   0.2560000
        k(    6) = (   0.4000000   0.2000000  -0.1417123), wk =   0.2560000
        k(    7) = (   0.2000000   0.2000000   0.0000000), wk =   0.0640000
        k(    8) = (  -0.4000000   0.4000000   0.5668491), wk =   0.1280000
        k(    9) = (   0.4000000   0.4000000  -0.0000000), wk =   0.0640000
        k(   10) = (   0.0000000   0.0000000   0.2834245), wk =   0.0320000
        k(   11) = (  -0.2000000   0.0000000   0.4251368), wk =   0.1280000
        k(   12) = (   0.6000000   0.0000000  -0.1417123), wk =   0.1280000
        k(   13) = (   0.4000000   0.0000000   0.0000000), wk =   0.0640000
        k(   14) = (  -0.2000000   0.2000000   0.5668491), wk =   0.1280000
        k(   15) = (   0.6000000   0.2000000  -0.0000000), wk =   0.1280000
        k(   16) = (   0.4000000  -0.6000000  -0.4251368), wk =   0.1280000
        k(   17) = (   0.0000000   0.0000000   0.5668491), wk =   0.0320000
        k(   18) = (   0.8000000   0.0000000  -0.0000000), wk =   0.0640000

     Dense  grid:    14359 G-vectors     FFT dimensions: (  36,  36,  36)

     Estimated max dynamical RAM per process >      12.24 MB

     Estimated total dynamical RAM >      97.96 MB

     Initial potential from superposition of free atoms

     starting charge      12.9857, renormalised to      13.0000
     Starting wfcs are   10 randomized atomic wfcs +    1 random wfcs

     total cpu time spent up to now is        0.7 secs

     Self-consistent Calculation

     iteration #  1     ecut=    60.00 Ry     beta= 0.80
     Davidson diagonalization with overlap
     ethr =  1.00E-02,  avg # of iterations =  5.8

     Threshold (ethr) on eigenvalues was too large:
     Diagonalizing with lowered threshold

     Davidson diagonalization with overlap
     ethr =  3.86E-04,  avg # of iterations =  1.7

     total cpu time spent up to now is        0.9 secs

     total energy              =     -51.18781359 Ry
     estimated scf accuracy    <       0.05020308 Ry

     iteration #  2     ecut=    60.00 Ry     beta= 0.80
     Davidson diagonalization with overlap
     ethr =  3.86E-04,  avg # of iterations =  2.2

     total cpu time spent up to now is        1.0 secs

     total energy              =     -51.19628613 Ry
     estimated scf accuracy    <       0.00608026 Ry

     iteration #  3     ecut=    60.00 Ry     beta= 0.80
     Davidson diagonalization with overlap
     ethr =  4.68E-05,  avg # of iterations =  2.2

     total cpu time spent up to now is        1.1 secs

     total energy              =     -51.19743657 Ry
     estimated scf accuracy    <       0.00018139 Ry

     iteration #  4     ecut=    60.00 Ry     beta= 0.80
     Davidson diagonalization with overlap
     ethr =  1.40E-06,  avg # of iterations =  4.2

     total cpu time spent up to now is        1.3 secs

     total energy              =     -51.19746443 Ry
     estimated scf accuracy    <       0.00001202 Ry

     iteration #  5     ecut=    60.00 Ry     beta= 0.80
     Davidson diagonalization with overlap
     ethr =  9.25E-08,  avg # of iterations =  2.0

     total cpu time spent up to now is        1.4 secs

     total energy              =     -51.19746617 Ry
     estimated scf accuracy    <       0.00000013 Ry

     iteration #  6     ecut=    60.00 Ry     beta= 0.80
     Davidson diagonalization with overlap
     ethr =  9.92E-10,  avg # of iterations =  2.7

     total cpu time spent up to now is        1.5 secs

     End of self-consistent calculation

          k = 0.0000 0.0000 0.0000 (  1835 PWs)   bands (ev):

   -39.6725 -37.6677 -37.6512  -1.1952   9.2960   9.2960   9.5234  10.2446
    10.2446  11.8486  14.5591

          k =-0.2000 0.0000 0.1417 (  1823 PWs)   bands (ev):

   -39.6519 -37.6822 -37.6568  -0.9016   6.5602   8.3105   8.8510  11.1462
    11.6727  12.7850  15.0642

          k =-0.4000 0.0000 0.2834 (  1832 PWs)   bands (ev):

   -39.6192 -37.7167 -37.6583  -0.1905   4.0085   7.7721   8.2729  10.3822
    12.6046  13.3427  16.0429

          k =-0.2000 0.2000 0.2834 (  1825 PWs)   bands (ev):

   -39.6312 -37.6830 -37.6774  -0.4692   5.5471   6.1361   8.5821  11.3351
    12.3984  13.7879  15.3230

          k =-0.4000 0.2000 0.4251 (  1807 PWs)   bands (ev):

   -39.5996 -37.7181 -37.6762   0.1996   3.9252   6.0336   7.6207  10.6487
    13.9043  14.8728  16.3965

          k = 0.4000 0.2000-0.1417 (  1810 PWs)   bands (ev):

   -39.6017 -37.7195 -37.6742  -0.1230   4.8275   6.9395   7.3347  10.2970
    12.3021  14.8642  15.5123

          k = 0.2000 0.2000 0.0000 (  1822 PWs)   bands (ev):

   -39.6345 -37.6926 -37.6672  -0.7590   7.2975   7.7050   8.0039  10.1923
    10.9023  14.3619  14.5945

          k =-0.4000 0.4000 0.5668 (  1816 PWs)   bands (ev):

   -39.5709 -37.7342 -37.6952   0.6271   4.5136   4.8370   6.8149  10.1437
    12.6328  17.3369  17.6580

          k = 0.4000 0.4000-0.0000 (  1780 PWs)   bands (ev):

   -39.5708 -37.7344 -37.6917   0.3382   4.8868   6.1891   6.4634   9.4663
    11.1769  17.6816  17.9439

          k = 0.0000 0.0000 0.2834 (  1812 PWs)   bands (ev):

   -39.6662 -37.6655 -37.6523  -0.8880   6.6963   6.6963   8.4130  12.2309
    12.3675  13.6161  13.6161

          k =-0.2000 0.0000 0.4251 (  1808 PWs)   bands (ev):

   -39.6446 -37.6901 -37.6487  -0.3331   4.6718   6.0895   7.4966  12.2670
    13.3951  13.5220  15.6354

          k = 0.6000 0.0000-0.1417 (  1804 PWs)   bands (ev):

   -39.6157 -37.7228 -37.6505   0.1799   3.5188   6.6327   6.9842  12.2508
    12.7421  15.1685  17.0886

          k = 0.4000 0.0000 0.0000 (  1829 PWs)   bands (ev):

   -39.6207 -37.7206 -37.6537  -0.3823   4.9482   7.2256   8.1913  11.0484
    13.0100  13.6070  14.3687

          k =-0.2000 0.2000 0.5668 (  1810 PWs)   bands (ev):

   -39.6253 -37.7068 -37.6537   0.2168   4.1929   4.8650   6.8282  12.7848
    14.0403  14.5510  16.7775

          k = 0.6000 0.2000-0.0000 (  1812 PWs)   bands (ev):

   -39.5986 -37.7282 -37.6666   0.4211   3.8709   5.4165   6.8449  12.1074
    13.0475  14.6748  17.6731

          k = 0.4000-0.6000-0.4251 (  1811 PWs)   bands (ev):

   -39.5715 -37.7195 -37.7094   0.4602   4.7585   5.3675   6.2796  10.8833
    13.2284  14.9769  17.4663

          k = 0.0000 0.0000 0.5668 (  1780 PWs)   bands (ev):

   -39.6568 -37.6873 -37.6290  -0.1490   5.1101   5.1101   5.8420  11.6909
    13.2957  17.0354  17.0354

          k = 0.8000 0.0000-0.0000 (  1816 PWs)   bands (ev):

   -39.6411 -37.7036 -37.6365   0.2166   3.8860   5.3043   6.0338  12.2608
    14.3382  15.8425  17.9440

     the Fermi energy is     7.6512 ev

!    total energy              =     -51.19746621 Ry
     estimated scf accuracy    <          7.9E-09 Ry
     smearing contrib. (-TS)   =      -0.00012671 Ry
     internal energy E=F+TS    =     -51.19733951 Ry

     The total energy is F=E-TS. E is the sum of the following terms:
     one-electron contribution =     -16.76746473 Ry
     hartree contribution      =       9.55831845 Ry
     xc contribution           =     -13.90531965 Ry
     ewald contribution        =     -30.08287358 Ry

     convergence has been achieved in   6 iterations

     Forces acting on atoms (cartesian axes, Ry/au):

     atom    1 type  1   force =     0.00000000    0.00000000   -0.26377657
     atom    2 type  2   force =     0.00000000    0.00000000   -0.09053254
     atom    3 type  2   force =     0.00000000    0.00000000   -0.09053254
     atom    4 type  2   force =     0.00000000    0.00000000    0.44484165
     The non-local contrib.  to forces
     atom    1 type  1   force =     0.00000000    0.00000000   -0.17455459
     atom    2 type  2   force =     0.00000000    0.00000000    0.00783873
     atom    3 type  2   force =     0.00000000   -0.00000000    0.00783873
     atom    4 type  2   force =     0.00000000    0.00000000    0.09321098
     The ionic contribution  to forces
     atom    1 type  1   force =     0.00000000    0.00000000   -1.04732548
     atom    2 type  2   force =    -0.00000000    0.00000000   -0.27256779
     atom    3 type  2   force =    -0.00000000   -0.00000000   -0.27256779
     atom    4 type  2   force =     0.00000000   -0.00000000    1.59246106
     The local contribution  to forces
     atom    1 type  1   force =    -0.00000000   -0.00000000    0.94677276
     atom    2 type  2   force =    -0.00000000    0.00000000    0.17418246
     atom    3 type  2   force =     0.00000000   -0.00000000    0.17418246
     atom    4 type  2   force =    -0.00000000   -0.00000000   -1.24080876
     The core correction contribution to forces
     atom    1 type  1   force =    -0.00000000   -0.00000000    0.01133117
     atom    2 type  2   force =     0.00000000    0.00000000    0.00000000
     atom    3 type  2   force =     0.00000000    0.00000000    0.00000000
     atom    4 type  2   force =     0.00000000    0.00000000    0.00000000
     The Hubbard contrib.    to forces
     atom    1 type  1   force =     0.00000000    0.00000000    0.00000000
     atom    2 type  2   force =     0.00000000    0.00000000    0.00000000
     atom    3 type  2   force =     0.00000000    0.00000000    0.00000000
     atom    4 type  2   force =     0.00000000    0.00000000    0.00000000
     The SCF correction term to forces
     atom    1 type  1   force =     0.00000000    0.00000000   -0.00000306
     atom    2 type  2   force =     0.00000000    0.00000000    0.00001144
     atom    3 type  2   force =     0.00000000    0.00000000    0.00001144
     atom    4 type  2   force =     0.00000000    0.00000000   -0.00002423

     Total force =     0.532780     Total SCF correction =     0.000029


     Computing stress (Cartesian axis) and pressure

          total   stress  (Ry/bohr**3)                   (kbar)     P=      779.76
   0.00466991  -0.00000000   0.00000000          686.97       -0.00        0.00
   0.00000000   0.00466991  -0.00000000            0.00      686.97       -0.00
   0.00000000  -0.00000000   0.00656232            0.00       -0.00      965.35


     BFGS Geometry Optimization
     Energy error            =      0.0E+00 Ry
     Gradient error          =      4.4E-01 Ry/Bohr
     Cell gradient error     =      4.7E+02 kbar

     number of scf cycles    =   1
     number of bfgs steps    =   0

     enthalpy           new  =     -50.4126300742 Ry

     new trust radius        =       0.4448416499 bohr
ibrav =      7
 celldm(1) =      7.10994324
 celldm(3) =      1.47602377
Input lattice vectors:
     0.51588722    -0.51588722     0.76146180
     0.51588722     0.51588722     0.76146180
    -0.51588722    -0.51588722     0.76146180
New lattice vectors in INITIAL alat:
     0.51588722    -0.51588722     0.76146180
     0.51588722     0.51588722     0.76146180
    -0.51588722    -0.51588722     0.76146180
New lattice vectors in NEW alat (for information only):
     0.50000000    -0.50000000     0.73801188
     0.50000000     0.50000000     0.73801188
    -0.50000000    -0.50000000     0.73801188
Discrepancy in bohr =     0.000000    0.000000    0.000000
     new conv_thr            =       0.0000000100 Ry

     new unit-cell volume =    265.25389 a.u.^3 (    39.30657 Ang^3 )
     density =      2.06618 g/cm^3

CELL_PARAMETERS (alat=  6.89098598)
   0.515887223  -0.515887223   0.761461802
   0.515887223   0.515887223   0.761461802
  -0.515887223  -0.515887223   0.761461802

ATOMIC_POSITIONS (crystal)
Si            0.0000000000       -0.0014836616       -0.0014836616
Li           -0.5000000000        0.8106565483        0.3106565483
Li            0.5000000000        0.3106565483       -0.1893434517
Li           -0.0000000000        0.3944225651        0.3944225651



     Writing config-only to output data dir ./output/SiLi.save/
     NEW-OLD atomic charge density approx. for the potential
     extrapolated charge   14.68149, renormalised to   13.00000

     total cpu time spent up to now is        2.0 secs

     Self-consistent Calculation

     iteration #  1     ecut=    60.00 Ry     beta= 0.80
     Davidson diagonalization with overlap
     ethr =  1.00E-06,  avg # of iterations = 10.8

     total cpu time spent up to now is        2.4 secs

     total energy              =     -51.42355626 Ry
     estimated scf accuracy    <       0.06695568 Ry

     iteration #  2     ecut=    60.00 Ry     beta= 0.80
     Davidson diagonalization with overlap
     ethr =  5.15E-04,  avg # of iterations =  2.1

     total cpu time spent up to now is        2.5 secs

     total energy              =     -51.47990968 Ry
     estimated scf accuracy    <       0.03341123 Ry

     iteration #  3     ecut=    60.00 Ry     beta= 0.80
     Davidson diagonalization with overlap
     ethr =  2.57E-04,  avg # of iterations =  1.1

     total cpu time spent up to now is        2.6 secs

     total energy              =     -51.48121565 Ry
     estimated scf accuracy    <       0.00279370 Ry

     iteration #  4     ecut=    60.00 Ry     beta= 0.80
     Davidson diagonalization with overlap
     ethr =  2.15E-05,  avg # of iterations =  1.9

     total cpu time spent up to now is        2.8 secs

     total energy              =     -51.48157404 Ry
     estimated scf accuracy    <       0.00004359 Ry

     iteration #  5     ecut=    60.00 Ry     beta= 0.80
     Davidson diagonalization with overlap
     ethr =  3.35E-07,  avg # of iterations =  4.4

     total cpu time spent up to now is        2.9 secs

     total energy              =     -51.48159025 Ry
     estimated scf accuracy    <       0.00000226 Ry

     iteration #  6     ecut=    60.00 Ry     beta= 0.80
     Davidson diagonalization with overlap
     ethr =  1.74E-08,  avg # of iterations =  2.0

     total cpu time spent up to now is        3.0 secs

     total energy              =     -51.48159071 Ry
     estimated scf accuracy    <       0.00000003 Ry

     iteration #  7     ecut=    60.00 Ry     beta= 0.80
     Davidson diagonalization with overlap
     ethr =  2.48E-10,  avg # of iterations =  2.7

     total cpu time spent up to now is        3.2 secs

     End of self-consistent calculation

          k = 0.0000 0.0000 0.0000 (  1835 PWs)   bands (ev):

   -39.8760 -38.8373 -38.8231  -2.2783   7.4040   7.4040   8.0187  10.1065
    10.1065  10.5537  13.0179

          k =-0.1938 0.0000 0.1313 (  1823 PWs)   bands (ev):

   -39.8567 -38.8484 -38.8261  -1.9784   5.3270   7.0570   7.2576  10.3983
    10.6233  11.3253  13.1911

          k =-0.3877 0.0000 0.2627 (  1832 PWs)   bands (ev):

   -39.8280 -38.8783 -38.8301  -1.2778   2.9816   6.6336   6.8806   9.2364
    10.2767  12.1146  14.6342

          k =-0.1938 0.1938 0.2627 (  1825 PWs)   bands (ev):

   -39.8380 -38.8574 -38.8368  -1.5303   4.3785   5.0807   7.0561  10.4191
    11.1900  11.3160  13.9833

          k =-0.3877 0.1938 0.3940 (  1807 PWs)   bands (ev):

   -39.8085 -38.8772 -38.8434  -0.8995   2.9196   4.9875   6.0383   9.5573
    11.6218  13.5459  14.8552

          k = 0.3877 0.1938-0.1313 (  1810 PWs)   bands (ev):

   -39.8103 -38.8750 -38.8452  -1.2291   3.7871   5.5669   5.9338   9.1713
    11.3440  12.5926  13.9074

          k = 0.1938 0.1938 0.0000 (  1822 PWs)   bands (ev):

   -39.8412 -38.8487 -38.8425  -1.8516   6.0453   6.1704   6.4930   9.5246
    10.0148  12.6880  13.3363

          k =-0.3877 0.3877 0.5253 (  1816 PWs)   bands (ev):

   -39.7832 -38.8848 -38.8673  -0.5125   3.5450   3.7589   5.1207   8.9930
    11.5007  15.0173  15.5478

          k = 0.3877 0.3877 0.0000 (  1780 PWs)   bands (ev):

   -39.7794 -38.8796 -38.8625  -0.7889   3.9154   4.8438   4.8633   8.3958
    10.1659  15.9772  16.3890

          k = 0.0000 0.0000 0.2627 (  1812 PWs)   bands (ev):

   -39.8695 -38.8432 -38.8130  -1.9177   5.7533   5.7533   6.5466  10.4969
    10.9422  12.5502  12.5502

          k =-0.1938 0.0000 0.3940 (  1808 PWs)   bands (ev):

   -39.8486 -38.8567 -38.8178  -1.3367   3.6912   5.3143   5.7309  10.3617
    12.0127  12.2144  14.0299

          k = 0.5815-0.0000-0.1313 (  1804 PWs)   bands (ev):

   -39.8227 -38.8783 -38.8248  -0.9125   2.7133   5.0971   5.9026  10.7489
    10.7577  13.7477  15.4841

          k = 0.3877-0.0000 0.0000 (  1829 PWs)   bands (ev):

   -39.8282 -38.8760 -38.8285  -1.4881   4.1359   5.2763   7.3047   9.6502
    11.2401  12.8997  13.1279

          k =-0.1938 0.1938 0.5253 (  1810 PWs)   bands (ev):

   -39.8321 -38.8663 -38.8278  -0.7947   3.2577   4.0572   5.0656  11.3048
    12.0343  12.9771  15.5618

          k = 0.5815 0.1938 0.0000 (  1812 PWs)   bands (ev):

   -39.8078 -38.8798 -38.8419  -0.6951   3.1333   4.2867   5.1170  10.4107
    12.3180  12.7345  15.6630

          k = 0.3877-0.5815-0.3940 (  1811 PWs)   bands (ev):

   -39.7834 -38.8761 -38.8746  -0.6691   3.6264   4.2405   4.9115   9.9881
    11.8759  12.3296  15.1300

          k = 0.0000 0.0000 0.5253 (  1780 PWs)   bands (ev):

   -39.8587 -38.8494 -38.8044  -1.0395   3.9037   4.4473   4.4473   9.7128
    11.6328  15.5125  15.5125

          k = 0.7754-0.0000 0.0000 (  1816 PWs)   bands (ev):

   -39.8462 -38.8621 -38.8167  -0.7179   3.0029   4.2450   4.6555  10.2902
    12.6861  13.9529  16.2475

     the Fermi energy is     6.1351 ev

!    total energy              =     -51.48159072 Ry
     estimated scf accuracy    <          6.0E-10 Ry
     smearing contrib. (-TS)   =       0.00027613 Ry
     internal energy E=F+TS    =     -51.48186685 Ry

     The total energy is F=E-TS. E is the sum of the following terms:
     one-electron contribution =     -17.97429270 Ry
     hartree contribution      =       9.52956595 Ry
     xc contribution           =     -13.67736091 Ry
     ewald contribution        =     -29.35977920 Ry

     convergence has been achieved in   7 iterations

     Forces acting on atoms (cartesian axes, Ry/au):

     atom    1 type  1   force =    -0.00000000   -0.00000000    0.06182343
     atom    2 type  2   force =    -0.00000000   -0.00000000   -0.10536894
     atom    3 type  2   force =    -0.00000000   -0.00000000   -0.10536894
     atom    4 type  2   force =     0.00000000    0.00000000    0.14891446
     The non-local contrib.  to forces
     atom    1 type  1   force =    -0.00000000    0.00000000    0.07243804
     atom    2 type  2   force =    -0.00000000   -0.00000000   -0.01629929
     atom    3 type  2   force =    -0.00000000   -0.00000000   -0.01629929
     atom    4 type  2   force =    -0.00000000    0.00000000    0.07212555
     The ionic contribution  to forces
     atom    1 type  1   force =    -0.00000000    0.00000000    0.07693976
     atom    2 type  2   force =    -0.00000000   -0.00000000   -0.49872573
     atom    3 type  2   force =    -0.00000000    0.00000000   -0.49872573
     atom    4 type  2   force =     0.00000000   -0.00000000    0.92051170
     The local contribution  to forces
     atom    1 type  1   force =    -0.00000000    0.00000000   -0.08333944
     atom    2 type  2   force =     0.00000000    0.00000000    0.40964824
     atom    3 type  2   force =     0.00000000   -0.00000000    0.40964824
     atom    4 type  2   force =    -0.00000000   -0.00000000   -0.84373220
     The core correction contribution to forces
     atom    1 type  1   force =     0.00000000   -0.00000000   -0.00420321
     atom    2 type  2   force =     0.00000000    0.00000000    0.00000000
     atom    3 type  2   force =     0.00000000    0.00000000    0.00000000
     atom    4 type  2   force =     0.00000000    0.00000000    0.00000000
     The Hubbard contrib.    to forces
     atom    1 type  1   force =     0.00000000    0.00000000    0.00000000
     atom    2 type  2   force =     0.00000000    0.00000000    0.00000000
     atom    3 type  2   force =     0.00000000    0.00000000    0.00000000
     atom    4 type  2   force =     0.00000000    0.00000000    0.00000000
     The SCF correction term to forces
     atom    1 type  1   force =     0.00000000   -0.00000000   -0.00000909
     atom    2 type  2   force =     0.00000000    0.00000000    0.00001047
     atom    3 type  2   force =    -0.00000000   -0.00000000    0.00001047
     atom    4 type  2   force =     0.00000000    0.00000000    0.00001205

     Total force =     0.219552     Total SCF correction =     0.000021


     Computing stress (Cartesian axis) and pressure

          total   stress  (Ry/bohr**3)                   (kbar)     P=      354.12
   0.00287272   0.00000000  -0.00000000          422.59        0.00       -0.00
   0.00000000   0.00287272   0.00000000            0.00      422.59        0.00
  -0.00000000   0.00000000   0.00147643           -0.00        0.00      217.19

     Energy error            =      1.7E-01 Ry
     Gradient error          =      1.5E-01 Ry/Bohr
     Cell gradient error     =      2.8E+02 kbar

     number of scf cycles    =   2
     number of bfgs steps    =   1

     enthalpy           old  =     -50.4126300742 Ry
     enthalpy           new  =     -50.5800110869 Ry

     CASE: enthalpy          _new < enthalpy          _old

     new trust radius        =       0.3171555645 bohr
ibrav =      7
 celldm(1) =      7.05912005
 celldm(3) =      1.43935287
Input lattice vectors:
     0.51219957    -0.51219957     0.73723592
     0.51219957     0.51219957     0.73723592
    -0.51219957    -0.51219957     0.73723592
New lattice vectors in INITIAL alat:
     0.51219957    -0.51219957     0.73723592
     0.51219957     0.51219957     0.73723592
    -0.51219957    -0.51219957     0.73723592
New lattice vectors in NEW alat (for information only):
     0.50000000    -0.50000000     0.71967644
     0.50000000     0.50000000     0.71967644
    -0.50000000    -0.50000000     0.71967644
Discrepancy in bohr =     0.000000    0.000000    0.000000
     new conv_thr            =       0.0000000030 Ry

     new unit-cell volume =    253.15644 a.u.^3 (    37.51391 Ang^3 )
     density =      2.16492 g/cm^3

CELL_PARAMETERS (alat=  6.89098598)
   0.512199566  -0.512199566   0.737235916
   0.512199566   0.512199566   0.737235916
  -0.512199566  -0.512199566   0.737235916

ATOMIC_POSITIONS (crystal)
Si           -0.0000000000       -0.0013156165       -0.0013156165
Li           -0.5000000000        0.7954618858        0.2954618858
Li            0.5000000000        0.2954618858       -0.2045381142
Li            0.0000000000        0.4246438448        0.4246438448



     Writing config-only to output data dir ./output/SiLi.save/
     NEW-OLD atomic charge density approx. for the potential
     extrapolated charge   12.37946, renormalised to   13.00000

     total cpu time spent up to now is        3.7 secs

     Self-consistent Calculation

     iteration #  1     ecut=    60.00 Ry     beta= 0.80
     Davidson diagonalization with overlap
     ethr =  1.00E-06,  avg # of iterations =  8.8

     total cpu time spent up to now is        4.0 secs

     total energy              =     -51.52478196 Ry
     estimated scf accuracy    <       0.00673609 Ry

     iteration #  2     ecut=    60.00 Ry     beta= 0.80
     Davidson diagonalization with overlap
     ethr =  5.18E-05,  avg # of iterations =  2.0

     total cpu time spent up to now is        4.2 secs

     total energy              =     -51.53107454 Ry
     estimated scf accuracy    <       0.00289808 Ry

     iteration #  3     ecut=    60.00 Ry     beta= 0.80
     Davidson diagonalization with overlap
     ethr =  2.23E-05,  avg # of iterations =  1.0

     total cpu time spent up to now is        4.3 secs

     total energy              =     -51.53111416 Ry
     estimated scf accuracy    <       0.00028020 Ry

     iteration #  4     ecut=    60.00 Ry     beta= 0.80
     Davidson diagonalization with overlap
     ethr =  2.16E-06,  avg # of iterations =  1.9

     total cpu time spent up to now is        4.4 secs

     total energy              =     -51.53115135 Ry
     estimated scf accuracy    <       0.00000466 Ry

     iteration #  5     ecut=    60.00 Ry     beta= 0.80
     Davidson diagonalization with overlap
     ethr =  3.59E-08,  avg # of iterations =  2.1

     total cpu time spent up to now is        4.5 secs

     total energy              =     -51.53115238 Ry
     estimated scf accuracy    <       0.00000069 Ry

     iteration #  6     ecut=    60.00 Ry     beta= 0.80
     Davidson diagonalization with overlap
     ethr =  5.33E-09,  avg # of iterations =  1.3

     total cpu time spent up to now is        4.7 secs

     total energy              =     -51.53115243 Ry
     estimated scf accuracy    <       0.00000003 Ry

     iteration #  7     ecut=    60.00 Ry     beta= 0.80
     Davidson diagonalization with overlap
     ethr =  2.51E-10,  avg # of iterations =  2.0

     total cpu time spent up to now is        4.8 secs

     End of self-consistent calculation

          k = 0.0000 0.0000 0.0000 (  1835 PWs)   bands (ev):

   -39.0602 -38.1941 -38.1840  -2.0187   8.1599   8.1599   8.6002  10.6077
    10.6077  10.7698  14.1674

          k =-0.1952-0.0000 0.1356 (  1823 PWs)   bands (ev):

   -39.0408 -38.2048 -38.1883  -1.7084   5.7493   7.6578   7.8257  11.0361
    11.2888  11.9727  13.6620

          k =-0.3905-0.0000 0.2713 (  1832 PWs)   bands (ev):

   -39.0119 -38.2317 -38.1920  -0.9805   3.2887   7.2714   7.3685   9.7103
    10.3806  12.9221  15.6308

          k =-0.1952 0.1952 0.2713 (  1825 PWs)   bands (ev):

   -39.0220 -38.2075 -38.2037  -1.2340   4.7477   5.4243   7.6598  11.1236
    11.6958  11.8775  14.5713

          k =-0.3905 0.1952 0.4069 (  1807 PWs)   bands (ev):

   -38.9941 -38.2317 -38.2040  -0.5758   3.2060   5.3323   6.4131  10.2743
    12.0003  14.4730  15.6894

          k = 0.3905 0.1952-0.1356 (  1810 PWs)   bands (ev):

   -38.9981 -38.2309 -38.2020  -0.9394   4.1213   5.9229   6.2710   9.8896
    12.2371  13.1266  14.5664

          k = 0.1952 0.1952 0.0000 (  1822 PWs)   bands (ev):

   -39.0276 -38.2107 -38.1960  -1.5859   6.4324   6.5056   7.1029  10.3648
    10.5834  13.4659  13.7586

          k =-0.3905 0.3905 0.5426 (  1816 PWs)   bands (ev):

   -38.9721 -38.2424 -38.2186  -0.1689   3.8152   4.0351   5.3080   9.8098
    12.4860  15.6865  16.4525

          k = 0.3905 0.3905-0.0000 (  1780 PWs)   bands (ev):

   -38.9712 -38.2405 -38.2124  -0.4759   4.2458   5.0431   5.0729   9.1861
    11.1484  16.8866  16.9547

          k = 0.0000 0.0000 0.2713 (  1812 PWs)   bands (ev):

   -39.0490 -38.1932 -38.1873  -1.6196   6.2245   6.2245   7.1825  10.9297
    11.2077  13.3419  13.3419

          k =-0.1952 0.0000 0.4069 (  1808 PWs)   bands (ev):

   -39.0285 -38.2108 -38.1874  -0.9943   4.0448   5.7079   6.2371  10.5799
    12.5974  12.8381  14.6650

          k = 0.5857 0.0000-0.1356 (  1804 PWs)   bands (ev):

   -39.0052 -38.2341 -38.1884  -0.5805   3.0782   5.4567   6.2785  10.9188
    11.4420  14.6421  16.3421

          k = 0.3905 0.0000 0.0000 (  1829 PWs)   bands (ev):

   -39.0140 -38.2314 -38.1889  -1.2121   4.6026   5.5928   7.7485  10.5039
    11.5339  13.0612  14.2653

          k =-0.1952 0.1952 0.5426 (  1810 PWs)   bands (ev):

   -39.0115 -38.2224 -38.1940  -0.4058   3.6452   4.3600   5.3358  11.6919
    12.6771  13.4460  16.4726

          k = 0.5857 0.1952 0.0000 (  1812 PWs)   bands (ev):

   -38.9923 -38.2371 -38.2009  -0.3534   3.5513   4.5749   5.3109  11.1724
    12.9683  13.2234  16.4007

          k = 0.3905-0.5857-0.4069 (  1811 PWs)   bands (ev):

   -38.9732 -38.2321 -38.2272  -0.3432   3.8902   4.4928   5.1693  11.0331
    12.8467  12.9137  16.1685

          k = 0.0000 0.0000 0.5426 (  1780 PWs)   bands (ev):

   -39.0332 -38.2055 -38.1793  -0.6080   4.2846   4.7833   4.7833   9.9256
    11.9885  16.4365  16.4365

          k = 0.7809 0.0000-0.0000 (  1816 PWs)   bands (ev):

   -39.0227 -38.2194 -38.1852  -0.2755   3.4056   4.4478   4.9845  10.5057
    13.1295  14.9068  17.2809

     the Fermi energy is     6.5049 ev

!    total energy              =     -51.53115244 Ry
     estimated scf accuracy    <          1.4E-09 Ry
     smearing contrib. (-TS)   =       0.00020088 Ry
     internal energy E=F+TS    =     -51.53135332 Ry

     The total energy is F=E-TS. E is the sum of the following terms:
     one-electron contribution =     -16.63867885 Ry
     hartree contribution      =       9.12352228 Ry
     xc contribution           =     -13.71230670 Ry
     ewald contribution        =     -30.30389005 Ry

     convergence has been achieved in   7 iterations

     Forces acting on atoms (cartesian axes, Ry/au):

     atom    1 type  1   force =    -0.00000000   -0.00000000    0.06135813
     atom    2 type  2   force =     0.00000000   -0.00000000   -0.09329447
     atom    3 type  2   force =    -0.00000000    0.00000000   -0.09329447
     atom    4 type  2   force =    -0.00000000   -0.00000000    0.12523081
     The non-local contrib.  to forces
     atom    1 type  1   force =     0.00000000    0.00000000    0.06182241
     atom    2 type  2   force =     0.00000000    0.00000000   -0.00862547
     atom    3 type  2   force =     0.00000000    0.00000000   -0.00862547
     atom    4 type  2   force =     0.00000000   -0.00000000    0.04428619
     The ionic contribution  to forces
     atom    1 type  1   force =    -0.00000000   -0.00000000    0.06577709
     atom    2 type  2   force =     0.00000000    0.00000000   -0.44920308
     atom    3 type  2   force =    -0.00000000   -0.00000000   -0.44920308
     atom    4 type  2   force =     0.00000000    0.00000000    0.83262906
     The local contribution  to forces
     atom    1 type  1   force =    -0.00000000   -0.00000000   -0.06267899
     atom    2 type  2   force =    -0.00000000    0.00000000    0.36453272
     atom    3 type  2   force =     0.00000000    0.00000000    0.36453272
     atom    4 type  2   force =    -0.00000000    0.00000000   -0.75167717
     The core correction contribution to forces
     atom    1 type  1   force =     0.00000000   -0.00000000   -0.00356614
     atom    2 type  2   force =     0.00000000    0.00000000    0.00000000
     atom    3 type  2   force =     0.00000000    0.00000000    0.00000000
     atom    4 type  2   force =     0.00000000    0.00000000    0.00000000
     The Hubbard contrib.    to forces
     atom    1 type  1   force =     0.00000000    0.00000000    0.00000000
     atom    2 type  2   force =     0.00000000    0.00000000    0.00000000
     atom    3 type  2   force =     0.00000000    0.00000000    0.00000000
     atom    4 type  2   force =     0.00000000    0.00000000    0.00000000
     The SCF correction term to forces
     atom    1 type  1   force =    -0.00000000    0.00000000    0.00000415
     atom    2 type  2   force =     0.00000000   -0.00000000    0.00000175
     atom    3 type  2   force =    -0.00000000    0.00000000    0.00000175
     atom    4 type  2   force =     0.00000000   -0.00000000   -0.00000687

     Total force =     0.191977     Total SCF correction =     0.000008


     Computing stress (Cartesian axis) and pressure

          total   stress  (Ry/bohr**3)                   (kbar)     P=      382.35
   0.00289617   0.00000000  -0.00000000          426.04        0.00       -0.00
   0.00000000   0.00289617   0.00000000            0.00      426.04        0.00
   0.00000000   0.00000000   0.00200511            0.00        0.00      294.96

     Energy error            =      9.1E-02 Ry
     Gradient error          =      1.3E-01 Ry/Bohr
     Cell gradient error     =      2.1E+02 kbar

     number of scf cycles    =   3
     number of bfgs steps    =   2

     enthalpy           old  =     -50.5800110869 Ry
     enthalpy           new  =     -50.6706911778 Ry

     CASE: enthalpy          _new < enthalpy          _old


     WARNING: bfgs curvature condition failed, Theta= 0.982
     new trust radius        =       0.4605979032 bohr
ibrav =      7
 celldm(1) =      6.96386394
 celldm(3) =      1.39933968
Input lattice vectors:
     0.50528792    -0.50528792     0.70706943
     0.50528792     0.50528792     0.70706943
    -0.50528792    -0.50528792     0.70706943
New lattice vectors in INITIAL alat:
     0.50528792    -0.50528792     0.70706943
     0.50528792     0.50528792     0.70706943
    -0.50528792    -0.50528792     0.70706943
New lattice vectors in NEW alat (for information only):
     0.50000000    -0.50000000     0.69966984
     0.50000000     0.50000000     0.69966984
    -0.50000000    -0.50000000     0.69966984
Discrepancy in bohr =     0.000000    0.000000    0.000000
     new conv_thr            =       0.0000000025 Ry

     new unit-cell volume =    236.28926 a.u.^3 (    35.01446 Ang^3 )
     density =      2.31946 g/cm^3

CELL_PARAMETERS (alat=  6.89098598)
   0.505287920  -0.505287920   0.707069434
   0.505287920   0.505287920   0.707069434
  -0.505287920  -0.505287920   0.707069434

ATOMIC_POSITIONS (crystal)
Si           -0.0000000000        0.0007545875        0.0007545875
Li           -0.5000000000        0.7717608240        0.2717608240
Li            0.5000000000        0.2717608240       -0.2282391760
Li            0.0000000000        0.4699757644        0.4699757644



     Writing config-only to output data dir ./output/SiLi.save/
     NEW-OLD atomic charge density approx. for the potential
     extrapolated charge   12.07303, renormalised to   13.00000

     total cpu time spent up to now is        5.3 secs

     Self-consistent Calculation

     iteration #  1     ecut=    60.00 Ry     beta= 0.80
     Davidson diagonalization with overlap
     ethr =  1.00E-06,  avg # of iterations = 10.0

     total cpu time spent up to now is        5.6 secs

     total energy              =     -51.55540174 Ry
     estimated scf accuracy    <       0.01838784 Ry

     iteration #  2     ecut=    60.00 Ry     beta= 0.80
     Davidson diagonalization with overlap
     ethr =  1.41E-04,  avg # of iterations =  2.0

     total cpu time spent up to now is        5.8 secs

     total energy              =     -51.56591887 Ry
     estimated scf accuracy    <       0.00484379 Ry

     iteration #  3     ecut=    60.00 Ry     beta= 0.80
     Davidson diagonalization with overlap
     ethr =  3.73E-05,  avg # of iterations =  1.4

     total cpu time spent up to now is        5.9 secs

     total energy              =     -51.56624281 Ry
     estimated scf accuracy    <       0.00024749 Ry

     iteration #  4     ecut=    60.00 Ry     beta= 0.80
     Davidson diagonalization with overlap
     ethr =  1.90E-06,  avg # of iterations =  2.4

     total cpu time spent up to now is        6.0 secs

     total energy              =     -51.56627380 Ry
     estimated scf accuracy    <       0.00000390 Ry

     iteration #  5     ecut=    60.00 Ry     beta= 0.80
     Davidson diagonalization with overlap
     ethr =  3.00E-08,  avg # of iterations =  1.9

     total cpu time spent up to now is        6.1 secs

     total energy              =     -51.56627445 Ry
     estimated scf accuracy    <       0.00000048 Ry

     iteration #  6     ecut=    60.00 Ry     beta= 0.80
     Davidson diagonalization with overlap
     ethr =  3.67E-09,  avg # of iterations =  1.8

     total cpu time spent up to now is        6.2 secs

     total energy              =     -51.56627450 Ry
     estimated scf accuracy    <       0.00000002 Ry

     iteration #  7     ecut=    60.00 Ry     beta= 0.80
     Davidson diagonalization with overlap
     ethr =  1.67E-10,  avg # of iterations =  2.1

     total cpu time spent up to now is        6.3 secs

     total energy              =     -51.56627450 Ry
     estimated scf accuracy    <          3.7E-09 Ry

     iteration #  8     ecut=    60.00 Ry     beta= 0.80
     Davidson diagonalization with overlap
     ethr =  2.87E-11,  avg # of iterations =  1.9

     total cpu time spent up to now is        6.4 secs

     End of self-consistent calculation

          k = 0.0000 0.0000 0.0000 (  1835 PWs)   bands (ev):

   -37.9510 -37.3230 -37.2830  -1.5864   9.3289   9.3289   9.4061  11.2019
    11.2100  11.2100  15.9628

          k =-0.1979 0.0000 0.1414 (  1823 PWs)   bands (ev):

   -37.9282 -37.3306 -37.2939  -1.2671   6.3771   8.5339   8.6224  11.9264
    12.1246  13.2139  14.0852

          k =-0.3958 0.0000 0.2829 (  1832 PWs)   bands (ev):

   -37.8908 -37.3457 -37.3143  -0.5140   3.7797   8.0878   8.1955  10.3938
    10.6873  14.0519  17.1053

          k =-0.1979 0.1979 0.2829 (  1825 PWs)   bands (ev):

   -37.9019 -37.3352 -37.3133  -0.7648   5.3051   5.9650   8.5201  12.0935
    12.3671  12.8142  15.5034

          k =-0.3958 0.1979 0.4243 (  1807 PWs)   bands (ev):

   -37.8732 -37.3455 -37.3276  -0.0817   3.6737   5.8661   6.9939  11.2889
    12.6272  15.7639  16.7368

          k = 0.3958 0.1979-0.1414 (  1810 PWs)   bands (ev):

   -37.8843 -37.3489 -37.3142  -0.4829   4.6449   6.4318   6.8547  10.9281
    13.4390  13.9211  15.6298

          k = 0.1979 0.1979 0.0000 (  1822 PWs)   bands (ev):

   -37.9190 -37.3366 -37.2966  -1.1513   6.9892   7.0527   8.0018  11.4365
    11.5409  14.4365  14.5738

          k =-0.3958 0.3958 0.5657 (  1816 PWs)   bands (ev):

   -37.8568 -37.3613 -37.3285   0.3433   4.2765   4.5001   5.6625  10.9564
    13.8233  16.7161  17.6211

          k = 0.3958 0.3958-0.0000 (  1780 PWs)   bands (ev):

   -37.8622 -37.3628 -37.3170   0.0029   4.7752   5.4133   5.4725  10.3107
    12.4849  17.7165  18.2019

          k = 0.0000 0.0000 0.2829 (  1812 PWs)   bands (ev):

   -37.9255 -37.3267 -37.2979  -1.1432   6.9075   6.9075   8.1033  11.5579
    11.7175  14.4271  14.4271

          k =-0.1979 0.0000 0.4243 (  1808 PWs)   bands (ev):

   -37.8944 -37.3348 -37.3173  -0.4664   4.5855   6.2857   6.9750  11.0249
    13.4402  13.7312  15.6174

          k = 0.5937 0.0000-0.1414 (  1804 PWs)   bands (ev):

   -37.8769 -37.3485 -37.3202  -0.0740   3.6536   5.9826   6.8371  11.3690
    12.4494  15.9069  16.8321

          k = 0.3958 0.0000 0.0000 (  1829 PWs)   bands (ev):

   -37.8995 -37.3455 -37.3064  -0.7686   5.3335   6.0353   8.4018  11.9282
    12.1363  13.1945  15.7088

          k =-0.1979 0.1979 0.5657 (  1810 PWs)   bands (ev):

   -37.8738 -37.3378 -37.3338   0.1785   4.2543   4.8389   5.7276  12.3147
    13.6981  14.1970  17.6714

          k = 0.5937 0.1979-0.0000 (  1812 PWs)   bands (ev):

   -37.8672 -37.3543 -37.3248   0.1627   4.2548   4.9774   5.6387  12.3189
    13.7037  14.1888  17.4987

          k = 0.3958-0.5937-0.4243 (  1811 PWs)   bands (ev):

   -37.8608 -37.3500 -37.3357   0.1469   4.3298   4.9349   5.6314  12.4028
    13.8788  14.1736  17.7023

          k = 0.0000 0.0000 0.5657 (  1780 PWs)   bands (ev):

   -37.8830 -37.3369 -37.3201   0.0433   4.8603   5.2800   5.2800  10.3462
    12.6429  17.7338  17.7338

          k = 0.7916 0.0000-0.0000 (  1816 PWs)   bands (ev):

   -37.8745 -37.3400 -37.3310   0.3863   4.1154   4.6682   5.4736  10.9736
    13.8741  16.4501  17.8344

     the Fermi energy is     7.1068 ev

!    total energy              =     -51.56627450 Ry
     estimated scf accuracy    <          9.8E-11 Ry
     smearing contrib. (-TS)   =      -0.00018004 Ry
     internal energy E=F+TS    =     -51.56609446 Ry

     The total energy is F=E-TS. E is the sum of the following terms:
     one-electron contribution =     -14.95327046 Ry
     hartree contribution      =       8.66731240 Ry
     xc contribution           =     -13.77740636 Ry
     ewald contribution        =     -31.50273004 Ry

     convergence has been achieved in   8 iterations

     Forces acting on atoms (cartesian axes, Ry/au):

     atom    1 type  1   force =    -0.00000000    0.00000000    0.03361004
     atom    2 type  2   force =    -0.00000000   -0.00000000   -0.04913594
     atom    3 type  2   force =    -0.00000000    0.00000000   -0.04913594
     atom    4 type  2   force =    -0.00000000    0.00000000    0.06466185
     The non-local contrib.  to forces
     atom    1 type  1   force =     0.00000000    0.00000000    0.02790049
     atom    2 type  2   force =     0.00000000   -0.00000000   -0.00190851
     atom    3 type  2   force =    -0.00000000   -0.00000000   -0.00190851
     atom    4 type  2   force =     0.00000000   -0.00000000    0.01492975
     The ionic contribution  to forces
     atom    1 type  1   force =     0.00000000   -0.00000000    0.02860692
     atom    2 type  2   force =    -0.00000000   -0.00000000   -0.23005040
     atom    3 type  2   force =    -0.00000000    0.00000000   -0.23005040
     atom    4 type  2   force =    -0.00000000   -0.00000000    0.43149388
     The local contribution  to forces
     atom    1 type  1   force =    -0.00000000    0.00000000   -0.02131869
     atom    2 type  2   force =    -0.00000000    0.00000000    0.18282311
     atom    3 type  2   force =     0.00000000   -0.00000000    0.18282311
     atom    4 type  2   force =    -0.00000000    0.00000000   -0.38175868
     The core correction contribution to forces
     atom    1 type  1   force =     0.00000000   -0.00000000   -0.00157876
     atom    2 type  2   force =     0.00000000    0.00000000    0.00000000
     atom    3 type  2   force =     0.00000000    0.00000000    0.00000000
     atom    4 type  2   force =     0.00000000    0.00000000    0.00000000
     The Hubbard contrib.    to forces
     atom    1 type  1   force =     0.00000000    0.00000000    0.00000000
     atom    2 type  2   force =     0.00000000    0.00000000    0.00000000
     atom    3 type  2   force =     0.00000000    0.00000000    0.00000000
     atom    4 type  2   force =     0.00000000    0.00000000    0.00000000
     The SCF correction term to forces
     atom    1 type  1   force =    -0.00000000    0.00000000    0.00000076
     atom    2 type  2   force =     0.00000000    0.00000000    0.00000052
     atom    3 type  2   force =     0.00000000   -0.00000000    0.00000052
     atom    4 type  2   force =    -0.00000000   -0.00000000   -0.00000243

     Total force =     0.100695     Total SCF correction =     0.000003


     Computing stress (Cartesian axis) and pressure

          total   stress  (Ry/bohr**3)                   (kbar)     P=      449.95
   0.00313548   0.00000000   0.00000000          461.25        0.00        0.00
   0.00000000   0.00313548  -0.00000000            0.00      461.25       -0.00
  -0.00000000  -0.00000000   0.00290520           -0.00       -0.00      427.37

     Energy error            =      9.2E-02 Ry
     Gradient error          =      6.5E-02 Ry/Bohr
     Cell gradient error     =      7.3E+01 kbar

     number of scf cycles    =   4
     number of bfgs steps    =   3

     enthalpy           old  =     -50.6706911778 Ry
     enthalpy           new  =     -50.7631436272 Ry

     CASE: enthalpy          _new < enthalpy          _old

     new trust radius        =       0.4186283075 bohr
ibrav =      7
 celldm(1) =      6.86944947
 celldm(3) =      1.37328638
Input lattice vectors:
     0.49843734    -0.49843734     0.68449721
     0.49843734     0.49843734     0.68449721
    -0.49843734    -0.49843734     0.68449721
New lattice vectors in INITIAL alat:
     0.49843734    -0.49843734     0.68449721
     0.49843734     0.49843734     0.68449721
    -0.49843734    -0.49843734     0.68449721
New lattice vectors in NEW alat (for information only):
     0.50000000    -0.50000000     0.68664319
     0.50000000     0.50000000     0.68664319
    -0.50000000    -0.50000000     0.68664319
Discrepancy in bohr =     0.000000    0.000000    0.000000
     new conv_thr            =       0.0000000013 Ry

     new unit-cell volume =    222.58553 a.u.^3 (    32.98377 Ang^3 )
     density =      2.46226 g/cm^3

CELL_PARAMETERS (alat=  6.89098598)
   0.498437342  -0.498437342   0.684497214
   0.498437342   0.498437342   0.684497214
  -0.498437342  -0.498437342   0.684497214

ATOMIC_POSITIONS (crystal)
Si           -0.0000000000        0.0034725421        0.0034725421
Li           -0.5000000000        0.7489222971        0.2489222971
Li            0.5000000000        0.2489222971       -0.2510777029
Li            0.0000000000        0.5129348637        0.5129348637



     Writing config-only to output data dir ./output/SiLi.save/
     NEW-OLD atomic charge density approx. for the potential
     extrapolated charge   12.20052, renormalised to   13.00000

     total cpu time spent up to now is        7.0 secs

     Self-consistent Calculation

     iteration #  1     ecut=    60.00 Ry     beta= 0.80
     Davidson diagonalization with overlap
     ethr =  1.00E-06,  avg # of iterations =  9.4

     total cpu time spent up to now is        7.3 secs

     total energy              =     -51.53208144 Ry
     estimated scf accuracy    <       0.01048689 Ry

     iteration #  2     ecut=    60.00 Ry     beta= 0.80
     Davidson diagonalization with overlap
     ethr =  8.07E-05,  avg # of iterations =  2.0

     total cpu time spent up to now is        7.5 secs

     total energy              =     -51.53864905 Ry
     estimated scf accuracy    <       0.00277823 Ry

     iteration #  3     ecut=    60.00 Ry     beta= 0.80
     Davidson diagonalization with overlap
     ethr =  2.14E-05,  avg # of iterations =  1.6

     total cpu time spent up to now is        7.6 secs

     total energy              =     -51.53885624 Ry
     estimated scf accuracy    <       0.00012675 Ry

     iteration #  4     ecut=    60.00 Ry     beta= 0.80
     Davidson diagonalization with overlap
     ethr =  9.75E-07,  avg # of iterations =  2.2

     total cpu time spent up to now is        7.7 secs

     total energy              =     -51.53887320 Ry
     estimated scf accuracy    <       0.00000096 Ry

     iteration #  5     ecut=    60.00 Ry     beta= 0.80
     Davidson diagonalization with overlap
     ethr =  7.37E-09,  avg # of iterations =  2.9

     total cpu time spent up to now is        7.8 secs

     total energy              =     -51.53887346 Ry
     estimated scf accuracy    <       0.00000015 Ry

     iteration #  6     ecut=    60.00 Ry     beta= 0.80
     Davidson diagonalization with overlap
     ethr =  1.17E-09,  avg # of iterations =  2.0

     total cpu time spent up to now is        7.9 secs

     total energy              =     -51.53887348 Ry
     estimated scf accuracy    <          1.9E-09 Ry

     iteration #  7     ecut=    60.00 Ry     beta= 0.80
     Davidson diagonalization with overlap
     ethr =  1.49E-11,  avg # of iterations =  2.4

     total cpu time spent up to now is        8.0 secs

     End of self-consistent calculation

          k = 0.0000 0.0000 0.0000 (  1835 PWs)   bands (ev):

   -37.2419 -36.6637 -36.6277  -1.1378  10.0874  10.2006  10.2006  11.7422
    11.7521  11.7521  17.4453

          k =-0.2006 0.0000 0.1461 (  1823 PWs)   bands (ev):

   -37.2100 -36.6774 -36.6418  -0.8183   6.9396   9.2005   9.3013  12.5598
    12.8772  14.2202  14.7669

          k =-0.4013 0.0000 0.2922 (  1832 PWs)   bands (ev):

   -37.1542 -36.7029 -36.6682  -0.0627   4.2680   8.6685   8.9466  10.9081
    11.2703  15.0749  18.0264

          k =-0.2006 0.2006 0.2922 (  1825 PWs)   bands (ev):

   -37.1697 -36.6905 -36.6655  -0.3074   5.8106   6.4781   9.2349  12.8113
    13.1487  13.5287  16.3129

          k =-0.4013 0.2006 0.4383 (  1807 PWs)   bands (ev):

   -37.1297 -36.7060 -36.6857   0.3782   4.1471   6.3642   7.5731  12.0751
    13.3222  16.8052  17.5586

          k = 0.4013 0.2006-0.1461 (  1810 PWs)   bands (ev):

   -37.1506 -36.7056 -36.6666  -0.0384   5.1597   6.9595   7.3979  11.7130
    14.3212  14.6892  16.6447

          k = 0.2006 0.2006 0.0000 (  1822 PWs)   bands (ev):

   -37.2003 -36.6846 -36.6433  -0.7081   7.5131   7.6310   8.7141  12.1457
    12.3173  15.1121  15.5116

          k =-0.4013 0.4013 0.5844 (  1816 PWs)   bands (ev):

   -37.1101 -36.7274 -36.6829   0.8016   4.7557   4.9805   6.1376  11.8504
    14.7756  17.6165  18.4986

          k = 0.4013 0.4013 0.0000 (  1780 PWs)   bands (ev):

   -37.1226 -36.7279 -36.6678   0.4488   5.2851   5.8591   5.9790  11.1936
    13.3818  18.4556  19.4882

          k =-0.0000-0.0000 0.2922 (  1812 PWs)   bands (ev):

   -37.1993 -36.6792 -36.6483  -0.6754   7.4330   7.4330   8.9061  12.2192
    12.3259  15.2682  15.2682

          k =-0.2006-0.0000 0.4383 (  1808 PWs)   bands (ev):

   -37.1509 -36.6974 -36.6741   0.0235   5.0621   6.7419   7.6682  11.6163
    14.1524  14.4247  16.5386

          k = 0.6019-0.0000-0.1461 (  1804 PWs)   bands (ev):

   -37.1303 -36.7075 -36.6832   0.3974   4.1689   6.5463   7.2896  11.9941
    13.1787  17.0315  17.6756

          k = 0.4013 0.0000 0.0000 (  1829 PWs)   bands (ev):

   -37.1703 -36.6962 -36.6600  -0.3252   5.9810   6.5069   8.9383  12.8009
    12.9805  13.5321  16.8477

          k =-0.2006 0.2006 0.5844 (  1810 PWs)   bands (ev):

   -37.1190 -36.7014 -36.6997   0.6958   4.7612   5.2752   6.2212  12.9434
    14.5412  14.9250  18.6539

          k = 0.6019 0.2006-0.0000 (  1812 PWs)   bands (ev):

   -37.1187 -36.7167 -36.6853   0.6347   4.8588   5.4179   6.0555  13.1892
    14.4461  14.9700  18.3256

          k = 0.4013-0.6019-0.4383 (  1811 PWs)   bands (ev):

   -37.1179 -36.7113 -36.6916   0.5952   4.7990   5.4326   6.1211  13.4121
    14.8428  15.1213  18.8793

          k =-0.0000-0.0000 0.5844 (  1780 PWs)   bands (ev):

   -37.1240 -36.7124 -36.6803   0.6051   5.4492   5.6744   5.6744  10.9285
    13.3769  18.6777  18.6777

          k = 0.8025 0.0000 0.0000 (  1816 PWs)   bands (ev):

   -37.1122 -36.7116 -36.6961   0.9520   4.7785   4.9451   5.8656  11.5864
    14.6198  17.6012  18.4118

     the Fermi energy is     7.6912 ev

!    total energy              =     -51.53887348 Ry
     estimated scf accuracy    <          3.4E-10 Ry
     smearing contrib. (-TS)   =       0.00015136 Ry
     internal energy E=F+TS    =     -51.53902485 Ry

     The total energy is F=E-TS. E is the sum of the following terms:
     one-electron contribution =     -13.91483340 Ry
     hartree contribution      =       8.47305830 Ry
     xc contribution           =     -13.85324026 Ry
     ewald contribution        =     -32.24400948 Ry

     convergence has been achieved in   7 iterations

     Forces acting on atoms (cartesian axes, Ry/au):

     atom    1 type  1   force =    -0.00000000   -0.00000000   -0.00516324
     atom    2 type  2   force =     0.00000000    0.00000000    0.01291096
     atom    3 type  2   force =     0.00000000    0.00000000    0.01291096
     atom    4 type  2   force =     0.00000000   -0.00000000   -0.02065867
     The non-local contrib.  to forces
     atom    1 type  1   force =     0.00000000   -0.00000000   -0.00164131
     atom    2 type  2   force =     0.00000000    0.00000000   -0.00026282
     atom    3 type  2   force =     0.00000000   -0.00000000   -0.00026282
     atom    4 type  2   force =     0.00000000    0.00000000   -0.00437795
     The ionic contribution  to forces
     atom    1 type  1   force =     0.00000000   -0.00000000    0.01185483
     atom    2 type  2   force =     0.00000000    0.00000000    0.05876649
     atom    3 type  2   force =    -0.00000000    0.00000000    0.05876649
     atom    4 type  2   force =    -0.00000000   -0.00000000   -0.12938781
     The local contribution  to forces
     atom    1 type  1   force =    -0.00000000    0.00000000   -0.01542606
     atom    2 type  2   force =    -0.00000000    0.00000000   -0.04559306
     atom    3 type  2   force =     0.00000000   -0.00000000   -0.04559306
     atom    4 type  2   force =    -0.00000000    0.00000000    0.11310901
     The core correction contribution to forces
     atom    1 type  1   force =    -0.00000000    0.00000000    0.00004892
     atom    2 type  2   force =     0.00000000    0.00000000    0.00000000
     atom    3 type  2   force =     0.00000000    0.00000000    0.00000000
     atom    4 type  2   force =     0.00000000    0.00000000    0.00000000
     The Hubbard contrib.    to forces
     atom    1 type  1   force =     0.00000000    0.00000000    0.00000000
     atom    2 type  2   force =     0.00000000    0.00000000    0.00000000
     atom    3 type  2   force =     0.00000000    0.00000000    0.00000000
     atom    4 type  2   force =     0.00000000    0.00000000    0.00000000
     The SCF correction term to forces
     atom    1 type  1   force =    -0.00000000    0.00000000    0.00000023
     atom    2 type  2   force =    -0.00000000    0.00000000    0.00000019
     atom    3 type  2   force =     0.00000000   -0.00000000    0.00000019
     atom    4 type  2   force =    -0.00000000    0.00000000   -0.00000208

     Total force =     0.028050     Total SCF correction =     0.000002


     Computing stress (Cartesian axis) and pressure

          total   stress  (Ry/bohr**3)                   (kbar)     P=      558.54
   0.00380219  -0.00000000  -0.00000000          559.32       -0.00       -0.00
  -0.00000000   0.00380219   0.00000000           -0.00      559.32        0.00
  -0.00000000   0.00000000   0.00378627           -0.00        0.00      556.98

     Energy error            =      1.9E-02 Ry
     Gradient error          =      2.1E-02 Ry/Bohr
     Cell gradient error     =      5.9E+01 kbar

     number of scf cycles    =   5
     number of bfgs steps    =   4

     enthalpy           old  =     -50.7631436272 Ry
     enthalpy           new  =     -50.7823206571 Ry

     CASE: enthalpy          _new < enthalpy          _old

     new trust radius        =       0.0968635347 bohr
ibrav =      7
 celldm(1) =      6.92835308
 celldm(3) =      1.37649359
Input lattice vectors:
     0.50271130    -0.50271130     0.69197888
     0.50271130     0.50271130     0.69197888
    -0.50271130    -0.50271130     0.69197888
New lattice vectors in INITIAL alat:
     0.50271130    -0.50271130     0.69197888
     0.50271130     0.50271130     0.69197888
    -0.50271130    -0.50271130     0.69197888
New lattice vectors in NEW alat (for information only):
     0.50000000    -0.50000000     0.68824679
     0.50000000     0.50000000     0.68824679
    -0.50000000    -0.50000000     0.68824679
Discrepancy in bohr =     0.000000    0.000000    0.000000
     new conv_thr            =       0.0000000004 Ry

     new unit-cell volume =    228.89391 a.u.^3 (    33.91858 Ang^3 )
     density =      2.39440 g/cm^3

CELL_PARAMETERS (alat=  6.89098598)
   0.502711303  -0.502711303   0.691978884
   0.502711303   0.502711303   0.691978884
  -0.502711303  -0.502711303   0.691978884

ATOMIC_POSITIONS (crystal)
Si           -0.0000000000        0.0035020346        0.0035020346
Li           -0.5000000000        0.7540414492        0.2540414492
Li            0.5000000000        0.2540414492       -0.2459585508
Li            0.0000000000        0.5026670669        0.5026670669



     Writing config-only to output data dir ./output/SiLi.save/
     NEW-OLD atomic charge density approx. for the potential
     extrapolated charge   13.35789, renormalised to   13.00000

     total cpu time spent up to now is        8.6 secs

     Self-consistent Calculation

     iteration #  1     ecut=    60.00 Ry     beta= 0.80
     Davidson diagonalization with overlap
     ethr =  1.00E-06,  avg # of iterations =  6.5

     total cpu time spent up to now is        8.8 secs

     total energy              =     -51.56139931 Ry
     estimated scf accuracy    <       0.00067413 Ry

     iteration #  2     ecut=    60.00 Ry     beta= 0.80
     Davidson diagonalization with overlap
     ethr =  5.19E-06,  avg # of iterations =  2.1

     total cpu time spent up to now is        9.0 secs

     total energy              =     -51.56294668 Ry
     estimated scf accuracy    <       0.00050386 Ry

     iteration #  3     ecut=    60.00 Ry     beta= 0.80
     Davidson diagonalization with overlap
     ethr =  3.88E-06,  avg # of iterations =  1.0

     total cpu time spent up to now is        9.1 secs

     total energy              =     -51.56292236 Ry
     estimated scf accuracy    <       0.00008473 Ry

     iteration #  4     ecut=    60.00 Ry     beta= 0.80
     Davidson diagonalization with overlap
     ethr =  6.52E-07,  avg # of iterations =  1.1

     total cpu time spent up to now is        9.2 secs

     total energy              =     -51.56292543 Ry
     estimated scf accuracy    <       0.00000569 Ry

     iteration #  5     ecut=    60.00 Ry     beta= 0.80
     Davidson diagonalization with overlap
     ethr =  4.37E-08,  avg # of iterations =  2.0

     total cpu time spent up to now is        9.3 secs

     total energy              =     -51.56292647 Ry
     estimated scf accuracy    <       0.00000002 Ry

     iteration #  6     ecut=    60.00 Ry     beta= 0.80
     Davidson diagonalization with overlap
     ethr =  1.17E-10,  avg # of iterations =  3.9

     total cpu time spent up to now is        9.5 secs

     total energy              =     -51.56292649 Ry
     estimated scf accuracy    <          4.7E-09 Ry

     iteration #  7     ecut=    60.00 Ry     beta= 0.80
     Davidson diagonalization with overlap
     ethr =  3.58E-11,  avg # of iterations =  2.0

     total cpu time spent up to now is        9.6 secs

     End of self-consistent calculation

          k = 0.0000 0.0000 0.0000 (  1835 PWs)   bands (ev):

   -37.5155 -36.9525 -36.9074  -1.3601   9.7514   9.8562   9.8562  11.4578
    11.4703  11.4703  16.9870

          k =-0.1989 0.0000 0.1445 (  1823 PWs)   bands (ev):

   -37.4883 -36.9627 -36.9204  -1.0395   6.6732   8.9034   8.9913  12.2583
    12.5367  13.8424  14.4117

          k =-0.3978 0.0000 0.2890 (  1832 PWs)   bands (ev):

   -37.4426 -36.9781 -36.9475  -0.2824   4.0297   8.3825   8.6326  10.6513
    10.9656  14.5925  17.6451

          k =-0.1989 0.1989 0.2890 (  1825 PWs)   bands (ev):

   -37.4548 -36.9715 -36.9419  -0.5287   5.5599   6.2296   8.9211  12.4792
    12.7812  13.2165  15.8985

          k =-0.3978 0.1989 0.4335 (  1807 PWs)   bands (ev):

   -37.4225 -36.9784 -36.9629   0.1558   3.9138   6.1138   7.3023  11.7369
    12.9748  16.3312  17.1607

          k = 0.3978 0.1989-0.1445 (  1810 PWs)   bands (ev):

   -37.4394 -36.9821 -36.9436  -0.2592   4.9145   6.7038   7.1241  11.3849
    13.9612  14.3133  16.1706

          k = 0.1989 0.1989 0.0000 (  1822 PWs)   bands (ev):

   -37.4805 -36.9681 -36.9217  -0.9291   7.2550   7.3596   8.3829  11.8301
    12.0182  14.7319  15.1050

          k =-0.3978 0.3978 0.5781 (  1816 PWs)   bands (ev):

   -37.4073 -36.9977 -36.9582   0.5748   4.5125   4.7515   5.8956  11.4760
    14.3878  17.1809  18.0977

          k = 0.3978 0.3978-0.0000 (  1780 PWs)   bands (ev):

   -37.4167 -36.9996 -36.9437   0.2248   5.0280   5.6300   5.7379  10.8257
    13.0234  18.0324  18.9596

          k =-0.0000 0.0000 0.2890 (  1812 PWs)   bands (ev):

   -37.4789 -36.9641 -36.9260  -0.8986   7.1871   7.1871   8.5486  11.8945
    12.0105  14.8781  14.8781

          k =-0.1989 0.0000 0.4335 (  1808 PWs)   bands (ev):

   -37.4388 -36.9760 -36.9500  -0.2022   4.8287   6.5136   7.3630  11.2850
    13.8017  14.0798  16.0814

          k = 0.5968-0.0000-0.1445 (  1804 PWs)   bands (ev):

   -37.4225 -36.9797 -36.9611   0.1730   3.9364   6.2739   7.0514  11.6478
    12.8554  16.5369  17.2595

          k = 0.3978 0.0000 0.0000 (  1829 PWs)   bands (ev):

   -37.4555 -36.9756 -36.9381  -0.5455   5.7195   6.2479   8.6565  12.4462
    12.6836  13.1792  16.3855

          k =-0.1989 0.1989 0.5781 (  1810 PWs)   bands (ev):

   -37.4131 -36.9772 -36.9726   0.4635   4.5327   5.0511   5.9610  12.5866
    14.1532  14.5549  18.2097

          k = 0.5968 0.1989 0.0000 (  1812 PWs)   bands (ev):

   -37.4136 -36.9887 -36.9613   0.4075   4.6245   5.1700   5.8159  12.8185
    14.0567  14.6039  17.9126

          k = 0.3978-0.5968-0.4335 (  1811 PWs)   bands (ev):

   -37.4134 -36.9843 -36.9656   0.3719   4.5605   5.1892   5.8755  13.0228
    14.4175  14.7465  18.4191

          k =-0.0000 0.0000 0.5781 (  1780 PWs)   bands (ev):

   -37.4159 -36.9887 -36.9543   0.3678   5.1723   5.4696   5.4696  10.5768
    13.0013  18.2384  18.2384

          k = 0.7957 0.0000-0.0000 (  1816 PWs)   bands (ev):

   -37.4073 -36.9862 -36.9696   0.7117   4.5849   4.6677   5.6579  11.2262
    14.2338  17.1854  17.9950

     the Fermi energy is     7.4151 ev

!    total energy              =     -51.56292649 Ry
     estimated scf accuracy    <          2.4E-10 Ry
     smearing contrib. (-TS)   =       0.00007624 Ry
     internal energy E=F+TS    =     -51.56300273 Ry

     The total energy is F=E-TS. E is the sum of the following terms:
     one-electron contribution =     -14.32417253 Ry
     hartree contribution      =       8.52873721 Ry
     xc contribution           =     -13.81429375 Ry
     ewald contribution        =     -31.95327366 Ry

     convergence has been achieved in   7 iterations

     Forces acting on atoms (cartesian axes, Ry/au):

     atom    1 type  1   force =    -0.00000000    0.00000000    0.00080656
     atom    2 type  2   force =    -0.00000000    0.00000000   -0.00133812
     atom    3 type  2   force =     0.00000000   -0.00000000   -0.00133812
     atom    4 type  2   force =    -0.00000000    0.00000000    0.00186968
     The non-local contrib.  to forces
     atom    1 type  1   force =     0.00000000    0.00000000    0.00054138
     atom    2 type  2   force =    -0.00000000    0.00000000   -0.00001389
     atom    3 type  2   force =     0.00000000    0.00000000   -0.00001389
     atom    4 type  2   force =     0.00000000    0.00000000    0.00038678
     The ionic contribution  to forces
     atom    1 type  1   force =     0.00000000   -0.00000000    0.00012071
     atom    2 type  2   force =     0.00000000    0.00000000   -0.00608579
     atom    3 type  2   force =    -0.00000000    0.00000000   -0.00608579
     atom    4 type  2   force =    -0.00000000   -0.00000000    0.01205087
     The local contribution  to forces
     atom    1 type  1   force =    -0.00000000    0.00000000    0.00017446
     atom    2 type  2   force =    -0.00000000    0.00000000    0.00476085
     atom    3 type  2   force =     0.00000000   -0.00000000    0.00476085
     atom    4 type  2   force =    -0.00000000    0.00000000   -0.01056804
     The core correction contribution to forces
     atom    1 type  1   force =    -0.00000000    0.00000000   -0.00002889
     atom    2 type  2   force =     0.00000000    0.00000000    0.00000000
     atom    3 type  2   force =     0.00000000    0.00000000    0.00000000
     atom    4 type  2   force =     0.00000000    0.00000000    0.00000000
     The Hubbard contrib.    to forces
     atom    1 type  1   force =     0.00000000    0.00000000    0.00000000
     atom    2 type  2   force =     0.00000000    0.00000000    0.00000000
     atom    3 type  2   force =     0.00000000    0.00000000    0.00000000
     atom    4 type  2   force =     0.00000000    0.00000000    0.00000000
     The SCF correction term to forces
     atom    1 type  1   force =    -0.00000000   -0.00000000   -0.00000119
     atom    2 type  2   force =     0.00000000    0.00000000    0.00000064
     atom    3 type  2   force =    -0.00000000   -0.00000000    0.00000064
     atom    4 type  2   force =    -0.00000000    0.00000000   -0.00000001

     Total force =     0.002780     Total SCF correction =     0.000001


     Computing stress (Cartesian axis) and pressure

          total   stress  (Ry/bohr**3)                   (kbar)     P=      497.35
   0.00338346   0.00000000  -0.00000000          497.72        0.00       -0.00
   0.00000000   0.00338346   0.00000000            0.00      497.72        0.00
   0.00000000  -0.00000000   0.00337581            0.00       -0.00      496.60

     Energy error            =      2.6E-03 Ry
     Gradient error          =      1.9E-03 Ry/Bohr
     Cell gradient error     =      3.4E+00 kbar

     number of scf cycles    =   6
     number of bfgs steps    =   5

     enthalpy           old  =     -50.7823206571 Ry
     enthalpy           new  =     -50.7849319111 Ry

     CASE: enthalpy          _new < enthalpy          _old

     new trust radius        =       0.0082468270 bohr
ibrav =      7
 celldm(1) =      6.92636201
 celldm(3) =      1.37588252
Input lattice vectors:
     0.50256683    -0.50256683     0.69147292
     0.50256683     0.50256683     0.69147292
    -0.50256683    -0.50256683     0.69147292
New lattice vectors in INITIAL alat:
     0.50256683    -0.50256683     0.69147292
     0.50256683     0.50256683     0.69147292
    -0.50256683    -0.50256683     0.69147292
New lattice vectors in NEW alat (for information only):
     0.50000000    -0.50000000     0.68794126
     0.50000000     0.50000000     0.68794126
    -0.50000000    -0.50000000     0.68794126
Discrepancy in bohr =     0.000000    0.000000    0.000000
     new conv_thr            =            1.0E-10 Ry

     new unit-cell volume =    228.59510 a.u.^3 (    33.87430 Ang^3 )
     density =      2.39752 g/cm^3

CELL_PARAMETERS (alat=  6.89098598)
   0.502566834  -0.502566834   0.691472922
   0.502566834   0.502566834   0.691472922
  -0.502566834  -0.502566834   0.691472922

ATOMIC_POSITIONS (crystal)
Si           -0.0000000000        0.0035490875        0.0035490875
Li           -0.5000000000        0.7535855556        0.2535855556
Li            0.5000000000        0.2535855556       -0.2464144444
Li            0.0000000000        0.5035318012        0.5035318012



     Writing config-only to output data dir ./output/SiLi.save/
     NEW-OLD atomic charge density approx. for the potential
     extrapolated charge   12.98303, renormalised to   13.00000

     total cpu time spent up to now is       10.1 secs

     Self-consistent Calculation

     iteration #  1     ecut=    60.00 Ry     beta= 0.80
     Davidson diagonalization with overlap
     ethr =  1.00E-06,  avg # of iterations =  3.1

     Threshold (ethr) on eigenvalues was too large:
     Diagonalizing with lowered threshold

     Davidson diagonalization with overlap
     ethr =  1.24E-08,  avg # of iterations =  1.8

     total cpu time spent up to now is       10.4 secs

     total energy              =     -51.56192486 Ry
     estimated scf accuracy    <       0.00000168 Ry

     iteration #  2     ecut=    60.00 Ry     beta= 0.80
     Davidson diagonalization with overlap
     ethr =  1.29E-08,  avg # of iterations =  2.0

     total cpu time spent up to now is       10.5 secs

     total energy              =     -51.56192833 Ry
     estimated scf accuracy    <       0.00000112 Ry

     iteration #  3     ecut=    60.00 Ry     beta= 0.80
     Davidson diagonalization with overlap
     ethr =  8.58E-09,  avg # of iterations =  1.0

     total cpu time spent up to now is       10.6 secs

     total energy              =     -51.56192829 Ry
     estimated scf accuracy    <       0.00000017 Ry

     iteration #  4     ecut=    60.00 Ry     beta= 0.80
     Davidson diagonalization with overlap
     ethr =  1.31E-09,  avg # of iterations =  1.3

     total cpu time spent up to now is       10.8 secs

     total energy              =     -51.56192830 Ry
     estimated scf accuracy    <          8.1E-09 Ry

     iteration #  5     ecut=    60.00 Ry     beta= 0.80
     Davidson diagonalization with overlap
     ethr =  6.26E-11,  avg # of iterations =  2.0

     total cpu time spent up to now is       10.9 secs

     End of self-consistent calculation

          k = 0.0000 0.0000 0.0000 (  1835 PWs)   bands (ev):

   -37.5021 -36.9388 -36.8940  -1.3500   9.7661   9.8729   9.8729  11.4708
    11.4834  11.4834  17.0183

          k =-0.1990 0.0000 0.1446 (  1823 PWs)   bands (ev):

   -37.4746 -36.9492 -36.9070  -1.0294   6.6855   8.9169   9.0062  12.2706
    12.5535  13.8605  14.4284

          k =-0.3980 0.0000 0.2892 (  1832 PWs)   bands (ev):

   -37.4284 -36.9649 -36.9342  -0.2723   4.0407   8.3943   8.6488  10.6614
    10.9810  14.6151  17.6613

          k =-0.1990 0.1990 0.2892 (  1825 PWs)   bands (ev):

   -37.4408 -36.9582 -36.9287  -0.5185   5.5708   6.2410   8.9366  12.4935
    12.8000  13.2313  15.9155

          k =-0.3980 0.1990 0.4339 (  1807 PWs)   bands (ev):

   -37.4082 -36.9654 -36.9497   0.1659   3.9245   6.1246   7.3157  11.7531
    12.9909  16.3526  17.1785

          k = 0.3980 0.1990-0.1446 (  1810 PWs)   bands (ev):

   -37.4253 -36.9689 -36.9303  -0.2493   4.9261   6.7162   7.1358  11.4008
    13.9790  14.3306  16.1936

          k = 0.1990 0.1990 0.0000 (  1822 PWs)   bands (ev):

   -37.4668 -36.9547 -36.9084  -0.9191   7.2668   7.3731   8.3975  11.8448
    12.0327  14.7469  15.1255

          k =-0.3980 0.3980 0.5785 (  1816 PWs)   bands (ev):

   -37.3928 -36.9848 -36.9450   0.5847   4.5233   4.7624   5.9076  11.4947
    14.4069  17.2001  18.1156

          k = 0.3980 0.3980-0.0000 (  1780 PWs)   bands (ev):

   -37.4024 -36.9867 -36.9304   0.2345   5.0392   5.6407   5.7504  10.8441
    13.0407  18.0474  18.9904

          k =-0.0000 0.0000 0.2892 (  1812 PWs)   bands (ev):

   -37.4651 -36.9506 -36.9127  -0.8881   7.1977   7.1977   8.5662  11.9103
    12.0249  14.8955  14.8955

          k =-0.1990-0.0000 0.4339 (  1808 PWs)   bands (ev):

   -37.4246 -36.9627 -36.9369  -0.1913   4.8388   6.5228   7.3789  11.2992
    13.8168  14.0937  16.1019

          k = 0.5969-0.0000-0.1446 (  1804 PWs)   bands (ev):

   -37.4082 -36.9667 -36.9479   0.1834   3.9474   6.2876   7.0605  11.6627
    12.8697  16.5614  17.2793

          k = 0.3980 0.0000 0.0000 (  1829 PWs)   bands (ev):

   -37.4416 -36.9623 -36.9248  -0.5356   5.7333   6.2596   8.6674  12.4612
    12.7002  13.1929  16.4101

          k =-0.1990 0.1990 0.5785 (  1810 PWs)   bands (ev):

   -37.3987 -36.9641 -36.9596   0.4748   4.5430   5.0604   5.9737  12.6003
    14.1707  14.5709  18.2308

          k = 0.5969 0.1990 0.0000 (  1812 PWs)   bands (ev):

   -37.3991 -36.9757 -36.9481   0.4178   4.6364   5.1813   5.8260  12.8360
    14.0729  14.6206  17.9286

          k = 0.3980-0.5969-0.4339 (  1811 PWs)   bands (ev):

   -37.3990 -36.9713 -36.9525   0.3816   4.5712   5.2009   5.8867  13.0440
    14.4395  14.7657  18.4437

          k =-0.0000 0.0000 0.5785 (  1780 PWs)   bands (ev):

   -37.4015 -36.9755 -36.9413   0.3800   5.1860   5.4775   5.4775  10.5908
    13.0183  18.2569  18.2569

          k = 0.7959 0.0000-0.0000 (  1816 PWs)   bands (ev):

   -37.3928 -36.9731 -36.9566   0.7240   4.5977   4.6764   5.6657  11.2406
    14.2504  17.2057  18.0118

     the Fermi energy is     7.4285 ev

!    total energy              =     -51.56192830 Ry
     estimated scf accuracy    <          3.2E-11 Ry
     smearing contrib. (-TS)   =       0.00008878 Ry
     internal energy E=F+TS    =     -51.56201708 Ry

     The total energy is F=E-TS. E is the sum of the following terms:
     one-electron contribution =     -14.30453941 Ry
     hartree contribution      =       8.52584319 Ry
     xc contribution           =     -13.81606874 Ry
     ewald contribution        =     -31.96725212 Ry

     convergence has been achieved in   5 iterations

     Forces acting on atoms (cartesian axes, Ry/au):

     atom    1 type  1   force =     0.00000000   -0.00000000    0.00007795
     atom    2 type  2   force =    -0.00000000    0.00000000   -0.00007123
     atom    3 type  2   force =    -0.00000000   -0.00000000   -0.00007123
     atom    4 type  2   force =     0.00000000    0.00000000    0.00006451
     The non-local contrib.  to forces
     atom    1 type  1   force =     0.00000000   -0.00000000    0.00007691
     atom    2 type  2   force =     0.00000000    0.00000000   -0.00000384
     atom    3 type  2   force =    -0.00000000   -0.00000000   -0.00000384
     atom    4 type  2   force =     0.00000000   -0.00000000    0.00000638
     The ionic contribution  to forces
     atom    1 type  1   force =     0.00000000   -0.00000000    0.00019818
     atom    2 type  2   force =     0.00000000   -0.00000000   -0.00029739
     atom    3 type  2   force =     0.00000000    0.00000000   -0.00029739
     atom    4 type  2   force =     0.00000000   -0.00000000    0.00039661
     The local contribution  to forces
     atom    1 type  1   force =    -0.00000000    0.00000000   -0.00019494
     atom    2 type  2   force =    -0.00000000    0.00000000    0.00023161
     atom    3 type  2   force =    -0.00000000   -0.00000000    0.00023161
     atom    4 type  2   force =    -0.00000000   -0.00000000   -0.00033671
     The core correction contribution to forces
     atom    1 type  1   force =    -0.00000000    0.00000000   -0.00000465
     atom    2 type  2   force =     0.00000000    0.00000000    0.00000000
     atom    3 type  2   force =     0.00000000    0.00000000    0.00000000
     atom    4 type  2   force =     0.00000000    0.00000000    0.00000000
     The Hubbard contrib.    to forces
     atom    1 type  1   force =     0.00000000    0.00000000    0.00000000
     atom    2 type  2   force =     0.00000000    0.00000000    0.00000000
     atom    3 type  2   force =     0.00000000    0.00000000    0.00000000
     atom    4 type  2   force =     0.00000000    0.00000000    0.00000000
     The SCF correction term to forces
     atom    1 type  1   force =     0.00000000   -0.00000000    0.00000239
     atom    2 type  2   force =    -0.00000000   -0.00000000   -0.00000167
     atom    3 type  2   force =    -0.00000000   -0.00000000   -0.00000167
     atom    4 type  2   force =     0.00000000    0.00000000   -0.00000184

     Total force =     0.000143     Total SCF correction =     0.000004


     Computing stress (Cartesian axis) and pressure

          total   stress  (Ry/bohr**3)                   (kbar)     P=      500.02
   0.00340099   0.00000000   0.00000000          500.30        0.00        0.00
   0.00000000   0.00340099  -0.00000000            0.00      500.30       -0.00
   0.00000000  -0.00000000   0.00339531            0.00       -0.00      499.47

     Energy error            =      1.7E-05 Ry
     Gradient error          =      7.8E-05 Ry/Bohr
     Cell gradient error     =      5.3E-01 kbar
ibrav =      7
 celldm(1) =      6.92636201
 celldm(3) =      1.37588252
Input lattice vectors:
     0.50256683    -0.50256683     0.69147292
     0.50256683     0.50256683     0.69147292
    -0.50256683    -0.50256683     0.69147292
New lattice vectors in INITIAL alat:
     0.50256683    -0.50256683     0.69147292
     0.50256683     0.50256683     0.69147292
    -0.50256683    -0.50256683     0.69147292
New lattice vectors in NEW alat (for information only):
     0.50000000    -0.50000000     0.68794126
     0.50000000     0.50000000     0.68794126
    -0.50000000    -0.50000000     0.68794126
Discrepancy in bohr =     0.000000    0.000000    0.000000

     bfgs converged in   7 scf cycles and   6 bfgs steps
     (criteria: energy <  1.0E-03 Ry, force <  5.0E-03 Ry/Bohr, cell <  2.0E+00 kbar)

     End of BFGS Geometry Optimization

     Final enthalpy           =     -50.7849493473 Ry

     File ./output/SiLi.bfgs deleted, as requested
Begin final coordinates
     new unit-cell volume =    228.59510 a.u.^3 (    33.87430 Ang^3 )
     density =      2.39752 g/cm^3

CELL_PARAMETERS (alat=  6.89098598)
   0.502566834  -0.502566834   0.691472922
   0.502566834   0.502566834   0.691472922
  -0.502566834  -0.502566834   0.691472922

ATOMIC_POSITIONS (crystal)
Si           -0.0000000000        0.0035490875        0.0035490875
Li           -0.5000000000        0.7535855556        0.2535855556
Li            0.5000000000        0.2535855556       -0.2464144444
Li            0.0000000000        0.5035318012        0.5035318012
End final coordinates



     Writing config-only to output data dir ./output/SiLi.save/

     Final scf calculation at the relaxed structure.
     The G-vectors are recalculated for the final unit cell
     Results may differ from those at the preceding step.

     Parallelization info
     --------------------
     sticks:   dense  smooth     PW     G-vecs:    dense   smooth      PW
     Min          96      96     29                 1785     1785     296
     Max          97      97     30                 1787     1787     298
     Sum         773     773    239                14287    14287    2381

     Using Slab Decomposition



     bravais-lattice index     =            7
     lattice parameter (alat)  =       6.8910  a.u.
     unit-cell volume          =     228.5951 (a.u.)^3
     number of atoms/cell      =            4
     number of atomic types    =            2
     number of electrons       =        13.00
     number of Kohn-Sham states=           11
     kinetic-energy cutoff     =      60.0000  Ry
     charge density cutoff     =     240.0000  Ry
     scf convergence threshold =      1.0E-10
     mixing beta               =       0.8000
     number of iterations used =            8  plain     mixing
     press convergence thresh. =      2.0E+00
     Exchange-correlation= PBE
                           (   1   4   3   4   0   0   0)

     celldm(1)=   6.890986  celldm(2)=   0.000000  celldm(3)=   1.411310
     celldm(4)=   0.000000  celldm(5)=   0.000000  celldm(6)=   0.000000

     crystal axes: (cart. coord. in units of alat)
               a(1) = (   0.502567  -0.502567   0.691473 )  
               a(2) = (   0.502567   0.502567   0.691473 )  
               a(3) = (  -0.502567  -0.502567   0.691473 )  

     reciprocal axes: (cart. coord. in units 2 pi/alat)
               b(1) = (  0.994893 -0.994893 -0.000000 )  
               b(2) = (  0.000000  0.994893  0.723094 )  
               b(3) = ( -0.994893 -0.000000  0.723094 )  


     PseudoPot. # 1 for Si read from file:
     ../pseudo/Si_ONCV_PBE_sr.upf
     MD5 check sum: e543d271109d17c80368dfa7c482276d
     Pseudo is Norm-conserving + core correction, Zval =  4.0
     Generated using ONCVPSP code by D. R. Hamann
     Using radial grid of 1510 points,  6 beta functions with: 
                l(1) =   0
                l(2) =   0
                l(3) =   1
                l(4) =   1
                l(5) =   2
                l(6) =   2

     PseudoPot. # 2 for Li read from file:
     ../pseudo/Li_ONCV_PBE_sr.upf
     MD5 check sum: 50ff420e78310ffa21704f3361e624a4
     Pseudo is Norm-conserving, Zval =  3.0
     Generated using ONCVPSP code by D. R. Hamann
     Using radial grid of 1944 points,  4 beta functions with: 
                l(1) =   0
                l(2) =   0
                l(3) =   1
                l(4) =   1

     atomic species   valence    mass     pseudopotential
        Si             4.00    28.08550     Si( 1.00)
        Li             3.00     6.94100     Li( 1.00)

      8 Sym. Ops. (no inversion) found



   Cartesian axes

     site n.     atom                  positions (alat units)
         1           Si  tau(   1) = (  -0.0000000  -0.0000000   0.0049082  )
         2           Li  tau(   2) = (   0.0000000   0.5025668   0.3506951  )
         3           Li  tau(   3) = (   0.5025668   0.0000000   0.3506951  )
         4           Li  tau(   4) = (   0.0000000  -0.0000000   0.6963572  )

     number of k points=    18  Marzari-Vanderbilt smearing, width (Ry)=  0.0200
                       cart. coord. in units 2pi/alat
        k(    1) = (   0.0000000   0.0000000   0.0000000), wk =   0.0160000
        k(    2) = (  -0.1989785   0.0000000   0.1446188), wk =   0.1280000
        k(    3) = (  -0.3979570   0.0000000   0.2892376), wk =   0.1280000
        k(    4) = (  -0.1989785   0.1989785   0.2892376), wk =   0.1280000
        k(    5) = (  -0.3979570   0.1989785   0.4338565), wk =   0.2560000
        k(    6) = (   0.3979570   0.1989785  -0.1446188), wk =   0.2560000
        k(    7) = (   0.1989785   0.1989785   0.0000000), wk =   0.0640000
        k(    8) = (  -0.3979570   0.3979570   0.5784753), wk =   0.1280000
        k(    9) = (   0.3979570   0.3979570  -0.0000000), wk =   0.0640000
        k(   10) = (  -0.0000000   0.0000000   0.2892376), wk =   0.0320000
        k(   11) = (  -0.1989785  -0.0000000   0.4338565), wk =   0.1280000
        k(   12) = (   0.5969355  -0.0000000  -0.1446188), wk =   0.1280000
        k(   13) = (   0.3979570   0.0000000   0.0000000), wk =   0.0640000
        k(   14) = (  -0.1989785   0.1989785   0.5784753), wk =   0.1280000
        k(   15) = (   0.5969355   0.1989785   0.0000000), wk =   0.1280000
        k(   16) = (   0.3979570  -0.5969355  -0.4338565), wk =   0.1280000
        k(   17) = (  -0.0000000   0.0000000   0.5784753), wk =   0.0320000
        k(   18) = (   0.7959140   0.0000000  -0.0000000), wk =   0.0640000

     Dense  grid:    14287 G-vectors     FFT dimensions: (  36,  36,  36)

     Estimated max dynamical RAM per process >      12.26 MB

     Estimated total dynamical RAM >      98.08 MB

     Initial potential from superposition of free atoms

     starting charge      12.9857, renormalised to      13.0000
     Starting wfcs are   10 randomized atomic wfcs +    1 random wfcs

     total cpu time spent up to now is       11.4 secs

     Self-consistent Calculation

     iteration #  1     ecut=    60.00 Ry     beta= 0.80
     Davidson diagonalization with overlap
     c_bands:  1 eigenvalues not converged
     c_bands:  1 eigenvalues not converged
     c_bands:  1 eigenvalues not converged
     c_bands:  1 eigenvalues not converged
     c_bands:  1 eigenvalues not converged
     ethr =  1.00E-06,  avg # of iterations = 16.8

     total cpu time spent up to now is       11.8 secs

     total energy              =     -51.56116568 Ry
     estimated scf accuracy    <       0.01077684 Ry

     iteration #  2     ecut=    60.00 Ry     beta= 0.80
     Davidson diagonalization with overlap
     ethr =  8.29E-05,  avg # of iterations =  1.0

     total cpu time spent up to now is       11.9 secs

     total energy              =     -51.56162364 Ry
     estimated scf accuracy    <       0.00032642 Ry

     iteration #  3     ecut=    60.00 Ry     beta= 0.80
     Davidson diagonalization with overlap
     ethr =  2.51E-06,  avg # of iterations =  1.2

     total cpu time spent up to now is       12.0 secs

     total energy              =     -51.56164374 Ry
     estimated scf accuracy    <       0.00000964 Ry

     iteration #  4     ecut=    60.00 Ry     beta= 0.80
     Davidson diagonalization with overlap
     ethr =  7.42E-08,  avg # of iterations =  2.0

     total cpu time spent up to now is       12.1 secs

     total energy              =     -51.56164485 Ry
     estimated scf accuracy    <       0.00000012 Ry

     iteration #  5     ecut=    60.00 Ry     beta= 0.80
     Davidson diagonalization with overlap
     ethr =  9.42E-10,  avg # of iterations =  2.0

     total cpu time spent up to now is       12.3 secs

     total energy              =     -51.56164487 Ry
     estimated scf accuracy    <          1.1E-09 Ry

     iteration #  6     ecut=    60.00 Ry     beta= 0.80
     Davidson diagonalization with overlap
     ethr =  8.31E-12,  avg # of iterations =  3.4

     total cpu time spent up to now is       12.4 secs

     End of self-consistent calculation

          k = 0.0000 0.0000 0.0000 (  1811 PWs)   bands (ev):

   -37.5018 -36.9396 -36.8946  -1.3496   9.7661   9.8729   9.8729  11.4707
    11.4834  11.4834  16.0140

          k =-0.1990 0.0000 0.1446 (  1801 PWs)   bands (ev):

   -37.4747 -36.9494 -36.9080  -1.0291   6.6855   8.9168   9.0062  12.2706
    12.5534  13.8606  14.4327

          k =-0.3980 0.0000 0.2892 (  1802 PWs)   bands (ev):

   -37.4286 -36.9652 -36.9344  -0.2723   4.0410   8.3943   8.6488  10.6614
    10.9810  14.6153  17.6618

          k =-0.1990 0.1990 0.2892 (  1800 PWs)   bands (ev):

   -37.4415 -36.9585 -36.9288  -0.5185   5.5708   6.2410   8.9366  12.4935
    12.8000  13.2313  15.9155

          k =-0.3980 0.1990 0.4339 (  1790 PWs)   bands (ev):

   -37.4089 -36.9661 -36.9502   0.1660   3.9245   6.1247   7.3157  11.7532
    12.9909  16.3527  17.1784

          k = 0.3980 0.1990-0.1446 (  1793 PWs)   bands (ev):

   -37.4260 -36.9702 -36.9305  -0.2493   4.9261   6.7162   7.1357  11.4008
    13.9790  14.3306  16.1935

          k = 0.1990 0.1990 0.0000 (  1806 PWs)   bands (ev):

   -37.4671 -36.9557 -36.9091  -0.9189   7.2668   7.3731   8.3976  11.8447
    12.0327  14.7469  15.1255

          k =-0.3980 0.3980 0.5785 (  1790 PWs)   bands (ev):

   -37.3933 -36.9856 -36.9451   0.5847   4.5233   4.7625   5.9076  11.4949
    14.4073  17.2001  18.1156

          k = 0.3980 0.3980-0.0000 (  1776 PWs)   bands (ev):

   -37.4035 -36.9882 -36.9314   0.2345   5.0391   5.6407   5.7504  10.8441
    13.0407  18.0474  18.9904

          k =-0.0000 0.0000 0.2892 (  1788 PWs)   bands (ev):

   -37.4655 -36.9506 -36.9133  -0.8880   7.1977   7.1977   8.5663  11.9104
    12.0250  14.8954  14.8954

          k =-0.1990-0.0000 0.4339 (  1798 PWs)   bands (ev):

   -37.4255 -36.9645 -36.9372  -0.1914   4.8389   6.5228   7.3789  11.2993
    13.8168  14.0936  16.1019

          k = 0.5969-0.0000-0.1446 (  1795 PWs)   bands (ev):

   -37.4093 -36.9677 -36.9488   0.1834   3.9473   6.2876   7.0605  11.6626
    12.8697  16.5613  17.2793

          k = 0.3980 0.0000 0.0000 (  1807 PWs)   bands (ev):

   -37.4422 -36.9633 -36.9245  -0.5356   5.7333   6.2597   8.6674  12.4611
    12.7002  13.1929  16.4103

          k =-0.1990 0.1990 0.5785 (  1791 PWs)   bands (ev):

   -37.3994 -36.9652 -36.9597   0.4748   4.5430   5.0605   5.9737  12.6003
    14.1707  14.5712  18.2308

          k = 0.5969 0.1990 0.0000 (  1788 PWs)   bands (ev):

   -37.3996 -36.9761 -36.9483   0.4178   4.6364   5.1814   5.8261  12.8360
    14.0731  14.6208  17.9286

          k = 0.3980-0.5969-0.4339 (  1794 PWs)   bands (ev):

   -37.3998 -36.9721 -36.9529   0.3816   4.5712   5.2010   5.8867  13.0440
    14.4396  14.7658  18.4436

          k =-0.0000 0.0000 0.5785 (  1788 PWs)   bands (ev):

   -37.4032 -36.9772 -36.9430   0.3800   5.1859   5.4774   5.4774  10.5906
    13.0179  18.2568  18.2569

          k = 0.7959 0.0000-0.0000 (  1792 PWs)   bands (ev):

   -37.3932 -36.9732 -36.9571   0.7240   4.5978   4.6764   5.6657  11.2408
    14.2504  17.2057  18.0118

     the Fermi energy is     7.4285 ev

!    total energy              =     -51.56164487 Ry
     estimated scf accuracy    <          6.6E-12 Ry
     smearing contrib. (-TS)   =       0.00008881 Ry
     internal energy E=F+TS    =     -51.56173368 Ry

     The total energy is F=E-TS. E is the sum of the following terms:
     one-electron contribution =     -14.30394240 Ry
     hartree contribution      =       8.52527928 Ry
     xc contribution           =     -13.81581845 Ry
     ewald contribution        =     -31.96725212 Ry

     convergence has been achieved in   6 iterations

     Forces acting on atoms (cartesian axes, Ry/au):

     atom    1 type  1   force =     0.00000000   -0.00000000    0.00007894
     atom    2 type  2   force =    -0.00000000    0.00000000   -0.00007141
     atom    3 type  2   force =    -0.00000000    0.00000000   -0.00007141
     atom    4 type  2   force =     0.00000000   -0.00000000    0.00006387
     The non-local contrib.  to forces
     atom    1 type  1   force =    -0.00000000   -0.00000000    0.00007435
     atom    2 type  2   force =     0.00000000   -0.00000000   -0.00000467
     atom    3 type  2   force =    -0.00000000    0.00000000   -0.00000467
     atom    4 type  2   force =    -0.00000000   -0.00000000    0.00000594
     The ionic contribution  to forces
     atom    1 type  1   force =     0.00000000   -0.00000000    0.00019818
     atom    2 type  2   force =    -0.00000000    0.00000000   -0.00029739
     atom    3 type  2   force =     0.00000000    0.00000000   -0.00029739
     atom    4 type  2   force =    -0.00000000   -0.00000000    0.00039661
     The local contribution  to forces
     atom    1 type  1   force =     0.00000000    0.00000000   -0.00018911
     atom    2 type  2   force =    -0.00000000    0.00000000    0.00023056
     atom    3 type  2   force =    -0.00000000   -0.00000000    0.00023056
     atom    4 type  2   force =    -0.00000000    0.00000000   -0.00033886
     The core correction contribution to forces
     atom    1 type  1   force =    -0.00000000    0.00000000   -0.00000447
     atom    2 type  2   force =     0.00000000    0.00000000    0.00000000
     atom    3 type  2   force =     0.00000000    0.00000000    0.00000000
     atom    4 type  2   force =     0.00000000    0.00000000    0.00000000
     The Hubbard contrib.    to forces
     atom    1 type  1   force =     0.00000000    0.00000000    0.00000000
     atom    2 type  2   force =     0.00000000    0.00000000    0.00000000
     atom    3 type  2   force =     0.00000000    0.00000000    0.00000000
     atom    4 type  2   force =     0.00000000    0.00000000    0.00000000
     The SCF correction term to forces
     atom    1 type  1   force =    -0.00000000   -0.00000000   -0.00000008
     atom    2 type  2   force =    -0.00000000    0.00000000    0.00000002
     atom    3 type  2   force =    -0.00000000   -0.00000000    0.00000002
     atom    4 type  2   force =    -0.00000000   -0.00000000    0.00000010

     Total force =     0.000143     Total SCF correction =     0.000000


     Computing stress (Cartesian axis) and pressure

          total   stress  (Ry/bohr**3)                   (kbar)     P=      498.47
   0.00340414  -0.00000000  -0.00000000          500.77       -0.00       -0.00
   0.00000000   0.00340414  -0.00000000            0.00      500.77       -0.00
  -0.00000000  -0.00000000   0.00335728           -0.00       -0.00      493.87


     Writing all to output data dir ./output/SiLi.save/

     init_run     :      0.54s CPU      0.57s WALL (       2 calls)
     electrons    :      7.05s CPU      8.03s WALL (       8 calls)
     update_pot   :      0.97s CPU      0.98s WALL (       6 calls)
     forces       :      0.69s CPU      0.71s WALL (       8 calls)
     stress       :      2.03s CPU      2.07s WALL (       8 calls)

     Called by init_run:
     wfcinit      :      0.07s CPU      0.08s WALL (       2 calls)
     potinit      :      0.14s CPU      0.14s WALL (       2 calls)
     hinit0       :      0.31s CPU      0.33s WALL (       2 calls)

     Called by electrons:
     c_bands      :      6.02s CPU      6.84s WALL (      55 calls)
     sum_band     :      0.80s CPU      0.84s WALL (      55 calls)
     v_of_rho     :      0.21s CPU      0.23s WALL (      61 calls)
     mix_rho      :      0.02s CPU      0.02s WALL (      55 calls)

     Called by c_bands:
     init_us_2    :      0.16s CPU      0.18s WALL (    2304 calls)
     init_us_2:cp :      0.16s CPU      0.18s WALL (    2304 calls)
     cegterg      :      5.65s CPU      6.01s WALL (     990 calls)

     Called by *egterg:
     cdiaghg      :      0.60s CPU      0.64s WALL (    3857 calls)
     h_psi        :      4.57s CPU      4.86s WALL (    4037 calls)
     g_psi        :      0.02s CPU      0.02s WALL (    3011 calls)

     Called by h_psi:
     h_psi:calbec :      0.28s CPU      0.30s WALL (    4037 calls)
     vloc_psi     :      4.09s CPU      4.35s WALL (    4037 calls)
     add_vuspsi   :      0.18s CPU      0.19s WALL (    4037 calls)

     General routines
     calbec       :      0.35s CPU      0.38s WALL (    4757 calls)
     fft          :      0.30s CPU      0.32s WALL (     810 calls)
     ffts         :      0.01s CPU      0.01s WALL (      55 calls)
     fftw         :      4.20s CPU      4.45s WALL (   75258 calls)

     Parallel routines

     PWSCF        :     11.52s CPU     12.83s WALL


   This run was terminated on:  16:10: 2  17Jan2025            

=------------------------------------------------------------------------------=
   JOB DONE.
=------------------------------------------------------------------------------=
