
     Program PWSCF v.7.2 starts on 29Dec2024 at 11:52:28 

     This program is part of the open-source Quantum ESPRESSO suite
     for quantum simulation of materials; please cite
         "P. Giannozzi et al., J. Phys.:Condens. Matter 21 395502 (2009);
         "P. Giannozzi et al., J. Phys.:Condens. Matter 29 465901 (2017);
         "P. Giannozzi et al., J. Chem. Phys. 152 154105 (2020);
          URL http://www.quantum-espresso.org", 
     in publications or presentations arising from this work. More details at
     http://www.quantum-espresso.org/quote

     Parallel version (MPI & OpenMP), running on       8 processor cores
     Number of MPI processes:                 8
     Threads/MPI process:                     1

     MPI processes distributed on     1 nodes
     483044 MiB available memory on the printing compute node when the environment starts

     Waiting for input...
     Reading input from standard input

     Current dimensions of program PWSCF are:
     Max number of different atomic species (ntypx) = 10
     Max number of k-points (npk) =  40000
     Max angular momentum in pseudopotentials (lmaxx) =  4

     R & G space division:  proc/nbgrp/npool/nimage =       8
     Subspace diagonalization in iterative solution of the eigenvalue problem:
     a serial algorithm will be used


     Parallelization info
     --------------------
     sticks:   dense  smooth     PW     G-vecs:    dense   smooth      PW
     Min         234     234     72                 4319     4319     734
     Max         235     235     73                 4320     4320     735
     Sum        1879    1879    577                34557    34557    5879

     Using Slab Decomposition



     bravais-lattice index     =            5
     lattice parameter (alat)  =      13.4673  a.u.
     unit-cell volume          =     357.7376 (a.u.)^3
     number of atoms/cell      =            4
     number of atomic types    =            2
     number of electrons       =        15.00
     number of Kohn-Sham states=           12
     kinetic-energy cutoff     =      80.0000  Ry
     charge density cutoff     =     320.0000  Ry
     scf convergence threshold =      1.0E-08
     mixing beta               =       0.7000
     number of iterations used =            8  plain     mixing
     energy convergence thresh.=      1.0E-04
     force convergence thresh. =      1.0E-03
     press convergence thresh. =      1.0E+00
     Exchange-correlation= PBE
                           (   1   4   3   4   0   0   0)
     nstep                     =           50


     celldm(1)=  13.467277  celldm(2)=   0.000000  celldm(3)=   0.000000
     celldm(4)=   0.912872  celldm(5)=   0.000000  celldm(6)=   0.000000

     crystal axes: (cart. coord. in units of alat)
               a(1) = (   0.208720  -0.120505   0.970523 )  
               a(2) = (   0.000000   0.241009   0.970523 )  
               a(3) = (  -0.208720  -0.120505   0.970523 )  

     reciprocal axes: (cart. coord. in units 2 pi/alat)
               b(1) = (  2.395552 -1.383073  0.343457 )  
               b(2) = (  0.000000  2.766145  0.343457 )  
               b(3) = ( -2.395552 -1.383073  0.343457 )  


     PseudoPot. # 1 for Si read from file:
     ../pseudo/Si_ONCV_PBE_sr.upf
     MD5 check sum: e543d271109d17c80368dfa7c482276d
     Pseudo is Norm-conserving + core correction, Zval =  4.0
     Generated using ONCVPSP code by D. R. Hamann
     Using radial grid of 1510 points,  6 beta functions with: 
                l(1) =   0
                l(2) =   0
                l(3) =   1
                l(4) =   1
                l(5) =   2
                l(6) =   2

     PseudoPot. # 2 for Li read from file:
     ../pseudo/Li_ONCV_PBE_sr.upf
     MD5 check sum: 50ff420e78310ffa21704f3361e624a4
     Pseudo is Norm-conserving, Zval =  3.0
     Generated using ONCVPSP code by D. R. Hamann
     Using radial grid of 1944 points,  4 beta functions with: 
                l(1) =   0
                l(2) =   0
                l(3) =   1
                l(4) =   1

     atomic species   valence    mass     pseudopotential
        Si             4.00    28.08550     Si( 1.00)
        Li             3.00     6.94100     Li( 1.00)

      6 Sym. Ops. (no inversion) found



   Cartesian axes

     site n.     atom                  positions (alat units)
         1           Si  tau(   1) = (  -0.0000000  -0.0000000   0.6203698  )
         2           Si  tau(   2) = (  -0.0000000  -0.0000000   2.2534919  )
         3           Si  tau(   3) = (  -0.0000000  -0.0000000   2.8318866  )
         4           Li  tau(   4) = (  -0.0000000  -0.0000000   0.1923586  )

     number of k points=    13  Marzari-Vanderbilt smearing, width (Ry)=  0.0200
                       cart. coord. in units 2pi/alat
        k(    1) = (   0.0000000   0.0000000   0.0000000), wk =   0.0312500
        k(    2) = (  -0.5988880  -0.3457682   0.0858644), wk =   0.1875000
        k(    3) = (   1.1977761   0.6915363  -0.1717287), wk =   0.0937500
        k(    4) = (  -0.5988880   0.3457682   0.1717287), wk =   0.1875000
        k(    5) = (   1.1977761   1.3830727  -0.0858644), wk =   0.3750000
        k(    6) = (   0.5988880   1.0373045   0.0000000), wk =   0.1875000
        k(    7) = (   1.1977761  -0.6915363  -0.3434575), wk =   0.0937500
        k(    8) = (   0.0000000   0.0000000   0.2575931), wk =   0.0625000
        k(    9) = (   1.7966641   1.0373045   0.0000000), wk =   0.1875000
        k(   10) = (   1.1977761   0.6915363   0.0858644), wk =   0.1875000
        k(   11) = (   1.7966641  -1.0373045  -0.2575931), wk =   0.1875000
        k(   12) = (   1.1977761  -1.3830727  -0.1717287), wk =   0.1875000
        k(   13) = (   0.0000000   0.0000000  -0.5151862), wk =   0.0312500

     Dense  grid:    34557 G-vectors     FFT dimensions: (  80,  80,  80)

     Estimated max dynamical RAM per process >      20.14 MB

     Estimated total dynamical RAM >     161.12 MB

     Initial potential from superposition of free atoms

     starting charge      14.9936, renormalised to      15.0000
     Starting wfcs are   14 randomized atomic wfcs

     total cpu time spent up to now is        1.5 secs

     Self-consistent Calculation

     iteration #  1     ecut=    80.00 Ry     beta= 0.70
     Davidson diagonalization with overlap
     ethr =  1.00E-02,  avg # of iterations =  3.9

     total cpu time spent up to now is        2.4 secs

     total energy              =     -38.93596882 Ry
     estimated scf accuracy    <       0.66510835 Ry

     iteration #  2     ecut=    80.00 Ry     beta= 0.70
     Davidson diagonalization with overlap
     ethr =  4.43E-03,  avg # of iterations =  4.7

     total cpu time spent up to now is        3.3 secs

     total energy              =     -38.40442284 Ry
     estimated scf accuracy    <       8.39452508 Ry

     iteration #  3     ecut=    80.00 Ry     beta= 0.70
     Davidson diagonalization with overlap
     ethr =  4.43E-03,  avg # of iterations =  3.8

     total cpu time spent up to now is        4.1 secs

     total energy              =     -39.39774970 Ry
     estimated scf accuracy    <       0.01601489 Ry

     iteration #  4     ecut=    80.00 Ry     beta= 0.70
     Davidson diagonalization with overlap
     ethr =  1.07E-04,  avg # of iterations =  6.6

     total cpu time spent up to now is        5.0 secs

     total energy              =     -39.40351463 Ry
     estimated scf accuracy    <       0.02481477 Ry

     iteration #  5     ecut=    80.00 Ry     beta= 0.70
     Davidson diagonalization with overlap
     ethr =  1.07E-04,  avg # of iterations =  2.1

     total cpu time spent up to now is        5.6 secs

     total energy              =     -39.40680622 Ry
     estimated scf accuracy    <       0.00166341 Ry

     iteration #  6     ecut=    80.00 Ry     beta= 0.70
     Davidson diagonalization with overlap
     ethr =  1.11E-05,  avg # of iterations =  4.2

     total cpu time spent up to now is        6.2 secs

     total energy              =     -39.40700265 Ry
     estimated scf accuracy    <       0.00002267 Ry

     iteration #  7     ecut=    80.00 Ry     beta= 0.70
     Davidson diagonalization with overlap
     ethr =  1.51E-07,  avg # of iterations =  4.5

     total cpu time spent up to now is        6.9 secs

     total energy              =     -39.40701504 Ry
     estimated scf accuracy    <       0.00000398 Ry

     iteration #  8     ecut=    80.00 Ry     beta= 0.70
     Davidson diagonalization with overlap
     ethr =  2.65E-08,  avg # of iterations =  1.8

     total cpu time spent up to now is        7.5 secs

     total energy              =     -39.40701567 Ry
     estimated scf accuracy    <       0.00000001 Ry

     iteration #  9     ecut=    80.00 Ry     beta= 0.70
     Davidson diagonalization with overlap
     ethr =  8.86E-11,  avg # of iterations =  4.5

     total cpu time spent up to now is        8.2 secs

     total energy              =     -39.40701570 Ry
     estimated scf accuracy    <       0.00000002 Ry

     iteration # 10     ecut=    80.00 Ry     beta= 0.70
     Davidson diagonalization with overlap
     ethr =  8.86E-11,  avg # of iterations =  1.6

     total cpu time spent up to now is        8.7 secs

     End of self-consistent calculation

          k = 0.0000 0.0000 0.0000 (  4279 PWs)   bands (ev):

   -37.5488  -3.8380  -1.4474   0.5443   6.9433   8.7981  14.1411  14.1411
    14.8469  14.8469  16.6005  16.6005

          k =-0.5989-0.3458 0.0859 (  4313 PWs)   bands (ev):

   -37.5353  -2.5221  -0.2634   1.7354   7.4748   7.9585   9.1919  10.3946
    11.6919  12.3716  12.5873  14.9057

          k = 1.1978 0.6915-0.1717 (  4332 PWs)   bands (ev):

   -37.5217   0.9715   1.5478   2.6303   4.2699   5.0950   6.6772   9.5925
    10.5630  11.1366  11.9784  13.5163

          k =-0.5989 0.3458 0.1717 (  4312 PWs)   bands (ev):

   -37.5353  -2.4956  -0.4212   2.0152   6.8490   8.1325   9.0522  10.8510
    11.4236  12.9785  13.4748  14.4140

          k = 1.1978 1.3831-0.0859 (  4324 PWs)   bands (ev):

   -37.5217   0.1098   1.6725   4.1771   5.3407   5.8554   6.4286   7.4728
     8.8457   9.4808  11.1610  12.8793

          k = 0.5989 1.0373 0.0000 (  4342 PWs)   bands (ev):

   -37.5217   0.0129   2.1329   3.5765   5.1231   6.2147   6.3441   7.1406
     9.5964  10.1231  11.1332  12.7093

          k = 1.1978-0.6915-0.3435 (  4338 PWs)   bands (ev):

   -37.5217   0.9067   2.0354   2.2092   3.5737   5.9684   7.4802   8.7577
    10.1802  10.5923  12.0933  13.5026

          k = 0.0000 0.0000 0.2576 (  4267 PWs)   bands (ev):

   -37.5488  -3.7721  -1.8137   1.2633   5.3432  10.7389  13.9951  13.9951
    15.1530  15.1530  16.5553  16.5554

          k = 1.7967 1.0373 0.0000 (  4313 PWs)   bands (ev):

   -37.5353  -2.4087  -0.7794   2.8334   5.6566   7.8729   9.8693  11.0472
    11.5818  12.5742  13.1556  14.9383

          k = 1.1978 0.6915 0.0859 (  4322 PWs)   bands (ev):

   -37.5217   0.9339   1.7293   2.4729   3.8988   5.4331   7.3710   8.7334
    10.3181  11.6147  11.8519  13.2016

          k = 1.7967-1.0373-0.2576 (  4311 PWs)   bands (ev):

   -37.5353  -2.3732  -0.8922   3.2558   5.1042   7.9870   9.4460  11.3711
    11.7134  13.1836  13.8875  14.8261

          k = 1.1978-1.3831-0.1717 (  4340 PWs)   bands (ev):

   -37.5217   0.2426   1.3067   4.6159   5.6048   6.0551   6.2843   7.0966
     8.6968   9.2771  10.3251  13.8245

          k = 0.0000 0.0000-0.5152 (  4268 PWs)   bands (ev):

   -37.5488  -3.6938  -2.1036   2.2228   3.9963  13.1224  13.8977  13.8977
    14.2034  15.4469  15.4470  16.5981

     the Fermi energy is     9.2148 ev

!    total energy              =     -39.40701570 Ry
     estimated scf accuracy    <          6.3E-10 Ry
     smearing contrib. (-TS)   =       0.00066807 Ry
     internal energy E=F+TS    =     -39.40768377 Ry

     The total energy is F=E-TS. E is the sum of the following terms:
     one-electron contribution =       3.85371100 Ry
     hartree contribution      =       4.43810341 Ry
     xc contribution           =     -12.87939353 Ry
     ewald contribution        =     -34.82010465 Ry

     convergence has been achieved in  10 iterations

     Forces acting on atoms (cartesian axes, Ry/au):

     atom    1 type  1   force =    -0.00000000    0.00000000   -0.01871133
     atom    2 type  1   force =    -0.00000000   -0.00000000    0.25888892
     atom    3 type  1   force =     0.00000000    0.00000000   -0.17038585
     atom    4 type  2   force =    -0.00000000    0.00000000   -0.06979174
     The non-local contrib.  to forces
     atom    1 type  1   force =    -0.00000000   -0.00000000   -0.06594034
     atom    2 type  1   force =     0.00000000    0.00000000    0.26168055
     atom    3 type  1   force =     0.00000000   -0.00000000   -0.17052427
     atom    4 type  2   force =     0.00000000   -0.00000000    0.00542194
     The ionic contribution  to forces
     atom    1 type  1   force =    -0.00000000   -0.00000000    0.19292444
     atom    2 type  1   force =    -0.00000000    0.00000000    1.46496102
     atom    3 type  1   force =     0.00000000    0.00000000   -1.04748187
     atom    4 type  2   force =     0.00000000   -0.00000000   -0.61040359
     The local contribution  to forces
     atom    1 type  1   force =     0.00000000    0.00000000   -0.15084670
     atom    2 type  1   force =     0.00000000   -0.00000000   -1.45211419
     atom    3 type  1   force =     0.00000000   -0.00000000    1.03876828
     atom    4 type  2   force =     0.00000000    0.00000000    0.53519348
     The core correction contribution to forces
     atom    1 type  1   force =     0.00000000    0.00000000    0.00514113
     atom    2 type  1   force =     0.00000000   -0.00000000   -0.01566282
     atom    3 type  1   force =     0.00000000   -0.00000000    0.00888171
     atom    4 type  2   force =     0.00000000    0.00000000    0.00000000
     The Hubbard contrib.    to forces
     atom    1 type  1   force =     0.00000000    0.00000000    0.00000000
     atom    2 type  1   force =     0.00000000    0.00000000    0.00000000
     atom    3 type  1   force =     0.00000000    0.00000000    0.00000000
     atom    4 type  2   force =     0.00000000    0.00000000    0.00000000
     The SCF correction term to forces
     atom    1 type  1   force =     0.00000000    0.00000000    0.00000964
     atom    2 type  1   force =    -0.00000000   -0.00000000    0.00002386
     atom    3 type  1   force =    -0.00000000   -0.00000000   -0.00003020
     atom    4 type  2   force =    -0.00000000   -0.00000000   -0.00000406

     Total force =     0.318239     Total SCF correction =     0.000040


     Computing stress (Cartesian axis) and pressure

          total   stress  (Ry/bohr**3)                   (kbar)     P=      219.29
   0.00128444  -0.00000000   0.00000000          188.95       -0.00        0.00
  -0.00000000   0.00128444   0.00000000           -0.00      188.95        0.00
   0.00000000   0.00000000   0.00190313            0.00        0.00      279.96


     BFGS Geometry Optimization
     Energy error            =      0.0E+00 Ry
     Gradient error          =      2.6E-01 Ry/Bohr
     Cell gradient error     =      3.1E+02 kbar

     number of scf cycles    =   1
     number of bfgs steps    =   0

     enthalpy           new  =     -38.1910904250 Ry

     new trust radius        =       0.2588889171 bohr
ibrav =      5
 celldm(1) =     12.95165935
 celldm(4) =      0.91549276
Input lattice vectors:
     0.19768675    -0.11413450     0.93422998
    -0.00000000     0.22826900     0.93422998
    -0.19768675    -0.11413450     0.93422998
New lattice vectors in INITIAL alat:
     0.19768675    -0.11413450     0.93422998
     0.00000000     0.22826900     0.93422998
    -0.19768675    -0.11413450     0.93422998
New lattice vectors in NEW alat (for information only):
     0.20555685    -0.11867831     0.97142259
     0.00000000     0.23735661     0.97142259
    -0.20555685    -0.11867831     0.97142259
Discrepancy in bohr =     0.000000    0.000000    0.000000
     new conv_thr            =       0.0000000100 Ry

     new unit-cell volume =    308.91499 a.u.^3 (    45.77648 Ang^3 )
     density =      3.30818 g/cm^3

CELL_PARAMETERS (alat= 13.46727746)
   0.197686753  -0.114134500   0.934229985
   0.000000000   0.228269000   0.934229985
  -0.197686753  -0.114134500   0.934229985

ATOMIC_POSITIONS (crystal)
Si            0.2125934729        0.2125934729        0.2125934729
Si            0.7805811432        0.7805811432        0.7805811432
Si            0.9682873004        0.9682873004        0.9682873004
Li            0.0642870935        0.0642870935        0.0642870935



     Writing config-only to output data dir ./output/SiLi.save/
     NEW-OLD atomic charge density approx. for the potential

     negative rho (up, down):  1.945E-08 0.000E+00
     extrapolated charge   12.63033, renormalised to   15.00000

     total cpu time spent up to now is       10.2 secs

     Self-consistent Calculation

     iteration #  1     ecut=    80.00 Ry     beta= 0.70
     Davidson diagonalization with overlap
     c_bands:  1 eigenvalues not converged
     c_bands:  1 eigenvalues not converged
     ethr =  1.00E-06,  avg # of iterations = 15.6

     total cpu time spent up to now is       12.1 secs

     total energy              =     -38.98134556 Ry
     estimated scf accuracy    <       0.41643837 Ry

     iteration #  2     ecut=    80.00 Ry     beta= 0.70
     Davidson diagonalization with overlap
     ethr =  2.78E-03,  avg # of iterations =  4.8

     total cpu time spent up to now is       12.9 secs

     total energy              =     -38.74516834 Ry
     estimated scf accuracy    <       7.50352043 Ry

     iteration #  3     ecut=    80.00 Ry     beta= 0.70
     Davidson diagonalization with overlap
     ethr =  2.78E-03,  avg # of iterations =  3.3

     total cpu time spent up to now is       13.6 secs

     total energy              =     -39.40627335 Ry
     estimated scf accuracy    <       0.17524293 Ry

     iteration #  4     ecut=    80.00 Ry     beta= 0.70
     Davidson diagonalization with overlap
     ethr =  1.17E-03,  avg # of iterations =  1.8

     total cpu time spent up to now is       14.1 secs

     total energy              =     -39.41122904 Ry
     estimated scf accuracy    <       0.07038969 Ry

     iteration #  5     ecut=    80.00 Ry     beta= 0.70
     Davidson diagonalization with overlap
     ethr =  4.69E-04,  avg # of iterations =  1.6

     total cpu time spent up to now is       14.6 secs

     total energy              =     -39.40476726 Ry
     estimated scf accuracy    <       0.04356439 Ry

     iteration #  6     ecut=    80.00 Ry     beta= 0.70
     Davidson diagonalization with overlap
     ethr =  2.90E-04,  avg # of iterations =  1.8

     total cpu time spent up to now is       15.1 secs

     total energy              =     -39.40396297 Ry
     estimated scf accuracy    <       0.00958142 Ry

     iteration #  7     ecut=    80.00 Ry     beta= 0.70
     Davidson diagonalization with overlap
     ethr =  6.39E-05,  avg # of iterations =  5.5

     total cpu time spent up to now is       15.8 secs

     total energy              =     -39.40560084 Ry
     estimated scf accuracy    <       0.00000872 Ry

     iteration #  8     ecut=    80.00 Ry     beta= 0.70
     Davidson diagonalization with overlap
     ethr =  5.82E-08,  avg # of iterations =  7.3

     total cpu time spent up to now is       16.7 secs

     total energy              =     -39.40563690 Ry
     estimated scf accuracy    <       0.00001926 Ry

     iteration #  9     ecut=    80.00 Ry     beta= 0.70
     Davidson diagonalization with overlap
     ethr =  5.82E-08,  avg # of iterations =  1.9

     total cpu time spent up to now is       17.3 secs

     total energy              =     -39.40563853 Ry
     estimated scf accuracy    <       0.00000073 Ry

     iteration # 10     ecut=    80.00 Ry     beta= 0.70
     Davidson diagonalization with overlap
     ethr =  4.89E-09,  avg # of iterations =  2.3

     total cpu time spent up to now is       17.8 secs

     total energy              =     -39.40563867 Ry
     estimated scf accuracy    <       0.00000001 Ry

     iteration # 11     ecut=    80.00 Ry     beta= 0.70
     Davidson diagonalization with overlap
     ethr =  8.79E-11,  avg # of iterations =  3.8

     total cpu time spent up to now is       18.4 secs

     End of self-consistent calculation

          k = 0.0000 0.0000 0.0000 (  4279 PWs)   bands (ev):

   -35.5778  -3.5351  -0.8220   2.1600   8.2510  10.9600  17.1051  17.1051
    17.9074  17.9074  19.2863  19.2863

          k =-0.6323-0.3651 0.0892 (  4313 PWs)   bands (ev):

   -35.5548  -2.0518   0.5845   3.4334   9.1290   9.4477  11.3370  12.6303
    14.0793  14.9786  15.2732  17.0872

          k = 1.2646 0.7301-0.1784 (  4332 PWs)   bands (ev):

   -35.5318   1.9875   2.6521   4.1181   5.2819   6.8046   8.8265  11.4568
    12.8010  13.5955  14.1351  15.3576

          k =-0.6323 0.3651 0.1784 (  4312 PWs)   bands (ev):

   -35.5548  -2.0373   0.4894   3.6656   8.4515   9.6611  11.2856  13.0378
    13.8293  15.6034  16.3596  16.9237

          k = 1.2646 1.4603-0.0892 (  4324 PWs)   bands (ev):

   -35.5318   0.9016   3.0842   6.0429   6.5656   7.2733   8.2559   9.1147
    10.6136  11.7446  13.3776  15.1998

          k = 0.6323 1.0952 0.0000 (  4342 PWs)   bands (ev):

   -35.5318   0.8439   3.4269   5.5148   6.3251   7.4753   8.3943   8.7638
    11.5035  12.1691  13.4557  15.1026

          k = 1.2646-0.7301-0.3568 (  4338 PWs)   bands (ev):

   -35.5318   1.9170   2.9845   3.9033   4.6605   7.7479   9.5034  10.5286
    12.4447  12.7496  14.5802  15.2914

          k = 0.0000 0.0000 0.2676 (  4267 PWs)   bands (ev):

   -35.5778  -3.5020  -1.0301   2.7432   6.8217  12.7894  16.9501  16.9501
    18.2611  18.2611  19.2118  19.2118

          k = 1.8969 1.0952 0.0000 (  4313 PWs)   bands (ev):

   -35.5548  -1.9922   0.2545   4.4082   7.2599   9.4916  11.9243  13.6268
    13.9869  15.1655  15.4457  17.1012

          k = 1.2646 0.7301 0.0892 (  4322 PWs)   bands (ev):

   -35.5318   1.9490   2.7995   4.0398   4.9215   7.2475   9.3253  10.6884
    12.5811  13.8574  14.0691  15.1397

          k = 1.8969-1.0952-0.2676 (  4311 PWs)   bands (ev):

   -35.5548  -1.9757   0.1795   4.8136   6.6985   9.5730  11.6501  13.7798
    14.1828  15.8110  16.1955  17.1716

          k = 1.2646-1.4603-0.1784 (  4340 PWs)   bands (ev):

   -35.5318   0.9678   2.8115   6.2803   7.1085   7.5611   7.7729   8.9983
    10.2510  11.4396  12.7637  16.0876

          k = 0.0000 0.0000-0.5352 (  4268 PWs)   bands (ev):

   -35.5778  -3.4665  -1.2101   3.5817   5.5429  15.2394  16.5215  16.8465
    16.8465  18.5934  18.5936  19.2806

     the Fermi energy is    11.4009 ev

!    total energy              =     -39.40563868 Ry
     estimated scf accuracy    <          6.0E-09 Ry
     smearing contrib. (-TS)   =      -0.00243970 Ry
     internal energy E=F+TS    =     -39.40319898 Ry

     The total energy is F=E-TS. E is the sum of the following terms:
     one-electron contribution =       6.97172135 Ry
     hartree contribution      =       3.92598624 Ry
     xc contribution           =     -13.22696295 Ry
     ewald contribution        =     -37.07394360 Ry

     convergence has been achieved in  11 iterations

     Forces acting on atoms (cartesian axes, Ry/au):

     atom    1 type  1   force =     0.00000000   -0.00000000   -0.04058792
     atom    2 type  1   force =    -0.00000000   -0.00000000    0.25401071
     atom    3 type  1   force =    -0.00000000    0.00000000   -0.11201313
     atom    4 type  2   force =     0.00000000    0.00000000   -0.10140965
     The non-local contrib.  to forces
     atom    1 type  1   force =    -0.00000000   -0.00000000   -0.09424722
     atom    2 type  1   force =     0.00000000   -0.00000000    0.26048876
     atom    3 type  1   force =    -0.00000000    0.00000000   -0.10544188
     atom    4 type  2   force =    -0.00000000    0.00000000    0.00963019
     The ionic contribution  to forces
     atom    1 type  1   force =     0.00000000   -0.00000000    0.31233548
     atom    2 type  1   force =     0.00000000    0.00000000    1.00769707
     atom    3 type  1   force =    -0.00000000    0.00000000   -0.31756731
     atom    4 type  2   force =     0.00000000   -0.00000000   -1.00246524
     The local contribution  to forces
     atom    1 type  1   force =    -0.00000000    0.00000000   -0.26563635
     atom    2 type  1   force =     0.00000000   -0.00000000   -0.99988275
     atom    3 type  1   force =    -0.00000000   -0.00000000    0.30764012
     atom    4 type  2   force =     0.00000000    0.00000000    0.89144384
     The core correction contribution to forces
     atom    1 type  1   force =    -0.00000000    0.00000000    0.00700167
     atom    2 type  1   force =    -0.00000000   -0.00000000   -0.01419495
     atom    3 type  1   force =    -0.00000000   -0.00000000    0.00323930
     atom    4 type  2   force =     0.00000000    0.00000000    0.00000000
     The Hubbard contrib.    to forces
     atom    1 type  1   force =     0.00000000    0.00000000    0.00000000
     atom    2 type  1   force =     0.00000000    0.00000000    0.00000000
     atom    3 type  1   force =     0.00000000    0.00000000    0.00000000
     atom    4 type  2   force =     0.00000000    0.00000000    0.00000000
     The SCF correction term to forces
     atom    1 type  1   force =     0.00000000    0.00000000   -0.00004067
     atom    2 type  1   force =    -0.00000000    0.00000000   -0.00009659
     atom    3 type  1   force =    -0.00000000    0.00000000    0.00011749
     atom    4 type  2   force =     0.00000000    0.00000000   -0.00001761

     Total force =     0.298328     Total SCF correction =     0.000158


     Computing stress (Cartesian axis) and pressure

          total   stress  (Ry/bohr**3)                   (kbar)     P=      427.24
   0.00218332  -0.00000000   0.00000000          321.18       -0.00        0.00
  -0.00000000   0.00218332   0.00000000           -0.00      321.18        0.00
  -0.00000000   0.00000000   0.00434637           -0.00        0.00      639.37

     Energy error            =      1.6E-01 Ry
     Gradient error          =      2.5E-01 Ry/Bohr
     Cell gradient error     =      1.8E+02 kbar

     number of scf cycles    =   2
     number of bfgs steps    =   1

     enthalpy           old  =     -38.1910904250 Ry
     enthalpy           new  =     -38.3556579580 Ry

     CASE: enthalpy          _new < enthalpy          _old

     new trust radius        =       0.3738115976 bohr
ibrav =      5
 celldm(1) =     12.95063652
 celldm(4) =      0.92517838
Input lattice vectors:
     0.18599868    -0.10738639     0.93734678
    -0.00000000     0.21477278     0.93734678
    -0.18599868    -0.10738639     0.93734678
New lattice vectors in INITIAL alat:
     0.18599868    -0.10738639     0.93734678
     0.00000000     0.21477278     0.93734678
    -0.18599868    -0.10738639     0.93734678
New lattice vectors in NEW alat (for information only):
     0.19341874    -0.11167036     0.97474044
     0.00000000     0.22334073     0.97474044
    -0.19341874    -0.11167036     0.97474044
Discrepancy in bohr =     0.000000    0.000000    0.000000
     new conv_thr            =       0.0000000100 Ry

     new unit-cell volume =    274.37849 a.u.^3 (    40.65870 Ang^3 )
     density =      3.72459 g/cm^3

CELL_PARAMETERS (alat= 13.46727746)
   0.185998681  -0.107386388   0.937346775
   0.000000000   0.214772777   0.937346775
  -0.185998681  -0.107386388   0.937346775

ATOMIC_POSITIONS (crystal)
Si            0.2113055533        0.2113055533        0.2113055533
Si            0.7904848530        0.7904848530        0.7904848530
Si            0.9631889839        0.9631889839        0.9631889839
Li            0.0607696198        0.0607696198        0.0607696198



     Writing config-only to output data dir ./output/SiLi.save/
     NEW-OLD atomic charge density approx. for the potential
     extrapolated charge   13.11273, renormalised to   15.00000

     total cpu time spent up to now is       19.7 secs

     Self-consistent Calculation

     iteration #  1     ecut=    80.00 Ry     beta= 0.70
     Davidson diagonalization with overlap
     c_bands:  1 eigenvalues not converged
     ethr =  1.00E-06,  avg # of iterations = 15.1

     total cpu time spent up to now is       21.7 secs

     total energy              =     -39.32169992 Ry
     estimated scf accuracy    <       0.08937871 Ry

     iteration #  2     ecut=    80.00 Ry     beta= 0.70
     Davidson diagonalization with overlap
     ethr =  5.96E-04,  avg # of iterations =  5.2

     total cpu time spent up to now is       22.5 secs

     total energy              =     -39.30970879 Ry
     estimated scf accuracy    <       1.61467262 Ry

     iteration #  3     ecut=    80.00 Ry     beta= 0.70
     Davidson diagonalization with overlap
     ethr =  5.96E-04,  avg # of iterations =  3.8

     total cpu time spent up to now is       23.1 secs

     total energy              =     -39.41847283 Ry
     estimated scf accuracy    <       0.08669190 Ry

     iteration #  4     ecut=    80.00 Ry     beta= 0.70
     Davidson diagonalization with overlap
     ethr =  5.78E-04,  avg # of iterations =  1.5

     total cpu time spent up to now is       23.6 secs

     total energy              =     -39.42252928 Ry
     estimated scf accuracy    <       0.01049764 Ry

     iteration #  5     ecut=    80.00 Ry     beta= 0.70
     Davidson diagonalization with overlap
     ethr =  7.00E-05,  avg # of iterations =  5.4

     total cpu time spent up to now is       24.3 secs

     total energy              =     -39.42332189 Ry
     estimated scf accuracy    <       0.00187129 Ry

     iteration #  6     ecut=    80.00 Ry     beta= 0.70
     Davidson diagonalization with overlap
     ethr =  1.25E-05,  avg # of iterations =  3.3

     total cpu time spent up to now is       24.9 secs

     total energy              =     -39.42356102 Ry
     estimated scf accuracy    <       0.00004610 Ry

     iteration #  7     ecut=    80.00 Ry     beta= 0.70
     Davidson diagonalization with overlap
     ethr =  3.07E-07,  avg # of iterations =  4.5

     total cpu time spent up to now is       25.5 secs

     total energy              =     -39.42357592 Ry
     estimated scf accuracy    <       0.00000058 Ry

     iteration #  8     ecut=    80.00 Ry     beta= 0.70
     Davidson diagonalization with overlap
     ethr =  3.87E-09,  avg # of iterations =  3.4

     total cpu time spent up to now is       26.1 secs

     total energy              =     -39.42357612 Ry
     estimated scf accuracy    <       0.00000028 Ry

     iteration #  9     ecut=    80.00 Ry     beta= 0.70
     Davidson diagonalization with overlap
     ethr =  1.88E-09,  avg # of iterations =  1.2

     total cpu time spent up to now is       26.6 secs

     End of self-consistent calculation

          k = 0.0000 0.0000 0.0000 (  4279 PWs)   bands (ev):

   -33.4125  -3.6439  -0.6454   3.3796   8.5982  12.5097  19.9950  19.9950
    21.5461  21.5462  22.0540  22.0540

          k =-0.6720-0.3880 0.0889 (  4313 PWs)   bands (ev):

   -33.3740  -1.9598   1.0009   4.8311   9.8742  10.9025  13.3387  14.4146
    16.3146  17.7470  18.2331  19.2641

          k = 1.3441 0.7760-0.1778 (  4332 PWs)   bands (ev):

   -33.3355   2.7109   3.3063   5.3661   6.2308   8.5085  10.6354  12.8276
    14.8561  15.5707  16.7143  16.8319

          k =-0.6720 0.3880 0.1778 (  4312 PWs)   bands (ev):

   -33.3740  -1.9556   0.9653   4.9785   9.4007  11.0601  13.4131  14.6433
    16.2244  18.3647  18.6246  19.4683

          k = 1.3441 1.5520-0.0889 (  4324 PWs)   bands (ev):

   -33.3355   1.3677   4.1136   7.2949   8.1020   8.3934  10.0788  10.8459
    12.0246  13.8369  15.3513  17.1645

          k = 0.6720 1.1640 0.0000 (  4342 PWs)   bands (ev):

   -33.3355   1.3464   4.2643   7.1654   7.7377   8.4235  10.2533  10.6365
    12.8247  14.0813  15.5126  16.8579

          k = 1.3441-0.7760-0.3556 (  4338 PWs)   bands (ev):

   -33.3355   2.6682   3.4292   5.4233   5.7449   9.2741  11.0676  12.0775
    14.2744  14.7225  16.9659  17.3402

          k = 0.0000 0.0000 0.2667 (  4267 PWs)   bands (ev):

   -33.4125  -3.6369  -0.7131   3.7218   7.6622  13.9226  19.9479  19.9479
    20.3090  21.6477  21.6479  22.1045

          k = 2.0161 1.1640 0.0000 (  4313 PWs)   bands (ev):

   -33.3740  -1.9426   0.8705   5.4513   8.4620  11.0582  13.7889  15.7793
    16.2880  17.2197  18.3341  19.1468

          k = 1.3441 0.7760 0.0889 (  4322 PWs)   bands (ev):

   -33.3355   2.6889   3.3652   5.4043   5.9558   8.9103  10.8176  12.4132
    14.7845  15.0425  16.7539  16.9945

          k = 2.0161-1.1640-0.2667 (  4311 PWs)   bands (ev):

   -33.3740  -1.9382   0.8386   5.6840   8.0797  11.1097  13.7157  16.1509
    16.2023  17.8530  18.7578  18.9944

          k = 1.3441-1.5520-0.1778 (  4340 PWs)   bands (ev):

   -33.3355   1.3898   3.9792   7.3739   8.2188   9.0389   9.5408  10.9654
    11.4905  13.5064  15.1494  17.7817

          k = 0.0000 0.0000-0.5334 (  4268 PWs)   bands (ev):

   -33.4125  -3.6297  -0.7769   4.1700   6.8197  15.9322  17.8823  19.9063
    19.9063  21.6755  21.6756  22.2984

     the Fermi energy is    13.2590 ev

!    total energy              =     -39.42357616 Ry
     estimated scf accuracy    <          1.2E-09 Ry
     smearing contrib. (-TS)   =      -0.00019662 Ry
     internal energy E=F+TS    =     -39.42337954 Ry

     The total energy is F=E-TS. E is the sum of the following terms:
     one-electron contribution =       9.48973324 Ry
     hartree contribution      =       3.58800721 Ry
     xc contribution           =     -13.56973367 Ry
     ewald contribution        =     -38.93138633 Ry

     convergence has been achieved in   9 iterations

     Forces acting on atoms (cartesian axes, Ry/au):

     atom    1 type  1   force =     0.00000000   -0.00000000   -0.01615666
     atom    2 type  1   force =    -0.00000000    0.00000000    0.12068888
     atom    3 type  1   force =     0.00000000    0.00000000   -0.00444141
     atom    4 type  2   force =     0.00000000    0.00000000   -0.10009080
     The non-local contrib.  to forces
     atom    1 type  1   force =     0.00000000   -0.00000000   -0.05325805
     atom    2 type  1   force =     0.00000000   -0.00000000    0.13956012
     atom    3 type  1   force =    -0.00000000    0.00000000   -0.02515618
     atom    4 type  2   force =    -0.00000000   -0.00000000    0.00485763
     The ionic contribution  to forces
     atom    1 type  1   force =    -0.00000000   -0.00000000    0.58495438
     atom    2 type  1   force =     0.00000000    0.00000000   -0.11249899
     atom    3 type  1   force =     0.00000000    0.00000000    0.87097611
     atom    4 type  2   force =     0.00000000   -0.00000000   -1.34343151
     The local contribution  to forces
     atom    1 type  1   force =    -0.00000000    0.00000000   -0.55138691
     atom    2 type  1   force =    -0.00000000   -0.00000000    0.09826050
     atom    3 type  1   force =     0.00000000   -0.00000000   -0.84693701
     atom    4 type  2   force =    -0.00000000    0.00000000    1.23845865
     The core correction contribution to forces
     atom    1 type  1   force =    -0.00000000    0.00000000    0.00355642
     atom    2 type  1   force =    -0.00000000    0.00000000   -0.00462414
     atom    3 type  1   force =     0.00000000   -0.00000000   -0.00331662
     atom    4 type  2   force =     0.00000000    0.00000000    0.00000000
     The Hubbard contrib.    to forces
     atom    1 type  1   force =     0.00000000    0.00000000    0.00000000
     atom    2 type  1   force =     0.00000000    0.00000000    0.00000000
     atom    3 type  1   force =     0.00000000    0.00000000    0.00000000
     atom    4 type  2   force =     0.00000000    0.00000000    0.00000000
     The SCF correction term to forces
     atom    1 type  1   force =    -0.00000000    0.00000000   -0.00002121
     atom    2 type  1   force =    -0.00000000   -0.00000000   -0.00000732
     atom    3 type  1   force =     0.00000000   -0.00000000   -0.00000642
     atom    4 type  2   force =     0.00000000   -0.00000000    0.00002571

     Total force =     0.157686     Total SCF correction =     0.000035


     Computing stress (Cartesian axis) and pressure

          total   stress  (Ry/bohr**3)                   (kbar)     P=      678.66
   0.00317820   0.00000000  -0.00000000          467.53        0.00       -0.00
   0.00000000   0.00317820   0.00000000            0.00      467.53        0.00
  -0.00000000   0.00000000   0.00748387           -0.00        0.00     1100.92

     Energy error            =      1.4E-01 Ry
     Gradient error          =      1.2E-01 Ry/Bohr
     Cell gradient error     =      6.0E+02 kbar

     number of scf cycles    =   3
     number of bfgs steps    =   2

     enthalpy           old  =     -38.3556579580 Ry
     enthalpy           new  =     -38.4909826165 Ry

     CASE: enthalpy          _new < enthalpy          _old

     new trust radius        =       0.5128067289 bohr
ibrav =      5
 celldm(1) =     13.98285927
 celldm(4) =      0.94650370
Input lattice vectors:
     0.16980992    -0.09803980     1.01960117
    -0.00000000     0.19607961     1.01960117
    -0.16980992    -0.09803980     1.01960117
New lattice vectors in INITIAL alat:
     0.16980992    -0.09803980     1.01960117
     0.00000000     0.19607961     1.01960117
    -0.16980992    -0.09803980     1.01960117
New lattice vectors in NEW alat (for information only):
     0.16354862    -0.09442484     0.98200601
     0.00000000     0.18884968     0.98200601
    -0.16354862    -0.09442484     0.98200601
Discrepancy in bohr =     0.000000    0.000000    0.000000
     new conv_thr            =       0.0000000100 Ry

     new unit-cell volume =    248.76340 a.u.^3 (    36.86293 Ang^3 )
     density =      4.10811 g/cm^3

CELL_PARAMETERS (alat= 13.46727746)
   0.169809920  -0.098039803   1.019601167
   0.000000000   0.196079606   1.019601167
  -0.169809920  -0.098039803   1.019601167

ATOMIC_POSITIONS (crystal)
Si            0.2100467023        0.2100467023        0.2100467023
Si            0.8040259037        0.8040259037        0.8040259037
Si            0.9573077671        0.9573077671        0.9573077671
Li            0.0543686369        0.0543686369        0.0543686369



     Writing config-only to output data dir ./output/SiLi.save/
     NEW-OLD atomic charge density approx. for the potential
     extrapolated charge   13.45611, renormalised to   15.00000

     total cpu time spent up to now is       27.9 secs

     Self-consistent Calculation

     iteration #  1     ecut=    80.00 Ry     beta= 0.70
     Davidson diagonalization with overlap
     c_bands:  1 eigenvalues not converged
     c_bands:  1 eigenvalues not converged
     ethr =  1.00E-06,  avg # of iterations = 15.8

     total cpu time spent up to now is       29.9 secs

     total energy              =     -38.97680421 Ry
     estimated scf accuracy    <       0.37040242 Ry

     iteration #  2     ecut=    80.00 Ry     beta= 0.70
     Davidson diagonalization with overlap
     ethr =  2.47E-03,  avg # of iterations =  5.5

     total cpu time spent up to now is       30.7 secs

     total energy              =     -38.52307471 Ry
     estimated scf accuracy    <      11.32026889 Ry

     iteration #  3     ecut=    80.00 Ry     beta= 0.70
     Davidson diagonalization with overlap
     ethr =  2.47E-03,  avg # of iterations =  4.1

     total cpu time spent up to now is       31.4 secs

     total energy              =     -39.33989729 Ry
     estimated scf accuracy    <       0.30907283 Ry

     iteration #  4     ecut=    80.00 Ry     beta= 0.70
     Davidson diagonalization with overlap
     ethr =  2.06E-03,  avg # of iterations =  1.4

     total cpu time spent up to now is       31.8 secs

     total energy              =     -39.34725541 Ry
     estimated scf accuracy    <       0.06726970 Ry

     iteration #  5     ecut=    80.00 Ry     beta= 0.70
     Davidson diagonalization with overlap
     ethr =  4.48E-04,  avg # of iterations =  3.3

     total cpu time spent up to now is       32.4 secs

     WARNING: integrated charge=    15.00049450, expected=    15.00000000

     total energy              =     -39.35096341 Ry
     estimated scf accuracy    <       0.01120471 Ry

     iteration #  6     ecut=    80.00 Ry     beta= 0.70
     Davidson diagonalization with overlap
     ethr =  7.47E-05,  avg # of iterations =  3.2

     total cpu time spent up to now is       32.9 secs

     WARNING: integrated charge=    15.00348527, expected=    15.00000000

     total energy              =     -39.34989532 Ry
     estimated scf accuracy    <       0.00026453 Ry

     iteration #  7     ecut=    80.00 Ry     beta= 0.70
     Davidson diagonalization with overlap
     ethr =  1.76E-06,  avg # of iterations =  5.4

     total cpu time spent up to now is       33.7 secs

     WARNING: integrated charge=    15.00072884, expected=    15.00000000

     total energy              =     -39.35422408 Ry
     estimated scf accuracy    <       0.00032761 Ry

     iteration #  8     ecut=    80.00 Ry     beta= 0.70
     Davidson diagonalization with overlap
     ethr =  1.76E-06,  avg # of iterations =  1.5

     total cpu time spent up to now is       34.2 secs

     WARNING: integrated charge=    15.00212344, expected=    15.00000000

     total energy              =     -39.35062165 Ry
     estimated scf accuracy    <       0.00000256 Ry

     iteration #  9     ecut=    80.00 Ry     beta= 0.70
     Davidson diagonalization with overlap
     ethr =  1.71E-08,  avg # of iterations =  2.8

     total cpu time spent up to now is       34.7 secs

     WARNING: integrated charge=    15.00292908, expected=    15.00000000

     total energy              =     -39.35055310 Ry
     estimated scf accuracy    <       0.00000129 Ry

     iteration # 10     ecut=    80.00 Ry     beta= 0.70
     Davidson diagonalization with overlap
     ethr =  8.58E-09,  avg # of iterations =  1.5

     total cpu time spent up to now is       35.1 secs

     WARNING: integrated charge=    15.00358284, expected=    15.00000000

     total energy              =     -39.35059125 Ry
     estimated scf accuracy    <       0.00000013 Ry

     iteration # 11     ecut=    80.00 Ry     beta= 0.70
     Davidson diagonalization with overlap
     ethr =  8.34E-10,  avg # of iterations =  2.5

     total cpu time spent up to now is       35.6 secs

     End of self-consistent calculation

          k = 0.0000 0.0000 0.0000 (  4279 PWs)   bands (ev):

   -31.7923  -4.3763  -1.0333   3.5200   7.6600  12.5397  20.7110  22.8048
    24.2457  24.2458  25.0798  25.0798

          k =-0.7361-0.4250 0.0817 (  4313 PWs)   bands (ev):

   -31.7169  -2.3588   0.9615   5.3574   9.4789  12.5306  14.7555  16.2241
    19.6205  20.1908  21.1456  22.5701

          k = 1.4722 0.8500-0.1635 (  4332 PWs)   bands (ev):

   -31.6409   3.3282   3.6913   6.1660   7.5497  10.4227  11.7809  13.9029
    15.9579  17.9509  18.0661  18.9757

          k =-0.7361 0.4250 0.1635 (  4312 PWs)   bands (ev):

   -31.7168  -2.3588   0.9574   5.4017   9.3159  12.6403  14.9422  16.2062
    19.6092  20.2247  20.7640  22.6647

          k = 1.4722 1.7000-0.0817 (  4324 PWs)   bands (ev):

   -31.6411   1.5882   4.8078   8.1703   9.3455  10.3094  11.8064  12.7599
    13.4733  16.2955  17.2732  18.8595

          k = 0.7361 1.2750 0.0000 (  4342 PWs)   bands (ev):

   -31.6411   1.5854   4.8376   8.1056   9.3628  10.1028  11.8728  13.2590
    13.4545  16.3007  17.5006  17.8800

          k = 1.4722-0.8500-0.3269 (  4338 PWs)   bands (ev):

   -31.6409   3.3271   3.7019   6.1320   7.4809  10.9366  11.7367  13.5027
    15.0691  17.9332  18.2155  21.0165

          k = 0.0000 0.0000 0.2452 (  4267 PWs)   bands (ev):

   -31.7923  -4.3780  -1.0329   3.5894   7.3725  13.2688  18.7029  24.2420
    24.2420  25.0798  25.0799  25.1077

          k = 2.2084 1.2750 0.0000 (  4313 PWs)   bands (ev):

   -31.7168  -2.3588   0.9461   5.5325   8.9091  12.8779  15.5898  16.3423
    18.9117  19.6173  20.2774  22.5960

          k = 1.4722 0.8500 0.0817 (  4322 PWs)   bands (ev):

   -31.6409   3.3278   3.6963   6.1504   7.5101  10.6915  11.6985  13.8172
    15.3643  17.9420  18.1374  20.0736

          k = 2.2084-1.2750-0.2452 (  4311 PWs)   bands (ev):

   -31.7169  -2.3588   0.9420   5.5848   8.7724  12.9316  15.9363  16.3618
    18.4922  19.6061  20.2664  22.6931

          k = 1.4722-1.7000-0.1635 (  4340 PWs)   bands (ev):

   -31.6411   1.5910   4.7788   8.2326   9.3294  10.6541  11.5333  12.4240
    13.4733  16.0970  17.4966  19.3799

          k = 0.0000 0.0000-0.4904 (  4268 PWs)   bands (ev):

   -31.7923  -4.3797  -1.0325   3.6644   7.1107  14.2819  17.1309  24.2383
    24.2383  25.0796  25.0797  26.9398

     the Fermi energy is    14.3357 ev

     WARNING: integrated charge=    15.00350589, expected=    15.00000000

!    total energy              =     -39.35060044 Ry
     estimated scf accuracy    <          4.4E-09 Ry
     smearing contrib. (-TS)   =       0.00064818 Ry
     internal energy E=F+TS    =     -39.35124863 Ry

     The total energy is F=E-TS. E is the sum of the following terms:
     one-electron contribution =       9.77352719 Ry
     hartree contribution      =       4.23795513 Ry
     xc contribution           =     -13.96194872 Ry
     ewald contribution        =     -39.40078222 Ry

     convergence has been achieved in  11 iterations

     Forces acting on atoms (cartesian axes, Ry/au):

     atom    1 type  1   force =     0.00000000    0.00000000    0.15765652
     atom    2 type  1   force =     0.00000000   -0.00000000   -0.24866607
     atom    3 type  1   force =    -0.00000000    0.00000000    0.09247722
     atom    4 type  2   force =    -0.00000000    0.00000000   -0.00146767
     The non-local contrib.  to forces
     atom    1 type  1   force =     0.00000000   -0.00000000    0.12136335
     atom    2 type  1   force =     0.00000000   -0.00000000   -0.19125316
     atom    3 type  1   force =    -0.00000000   -0.00000000    0.08026305
     atom    4 type  2   force =    -0.00000000    0.00000000   -0.01496310
     The ionic contribution  to forces
     atom    1 type  1   force =    -0.00000000   -0.00000000    0.96997484
     atom    2 type  1   force =    -0.00000000    0.00000000   -2.80714980
     atom    3 type  1   force =     0.00000000    0.00000000    2.89530834
     atom    4 type  2   force =     0.00000000   -0.00000000   -1.05813338
     The local contribution  to forces
     atom    1 type  1   force =     0.00000000    0.00000000   -0.92426093
     atom    2 type  1   force =     0.00000000   -0.00000000    2.73133812
     atom    3 type  1   force =     0.00000000   -0.00000000   -2.87245550
     atom    4 type  2   force =    -0.00000000    0.00000000    1.07160099
     The core correction contribution to forces
     atom    1 type  1   force =     0.00000000    0.00000000   -0.00937804
     atom    2 type  1   force =    -0.00000000    0.00000000    0.01851511
     atom    3 type  1   force =    -0.00000000   -0.00000000   -0.01072505
     atom    4 type  2   force =     0.00000000    0.00000000    0.00000000
     The Hubbard contrib.    to forces
     atom    1 type  1   force =     0.00000000    0.00000000    0.00000000
     atom    2 type  1   force =     0.00000000    0.00000000    0.00000000
     atom    3 type  1   force =     0.00000000    0.00000000    0.00000000
     atom    4 type  2   force =     0.00000000    0.00000000    0.00000000
     The SCF correction term to forces
     atom    1 type  1   force =     0.00000000    0.00000000   -0.00003931
     atom    2 type  1   force =    -0.00000000   -0.00000000   -0.00011294
     atom    3 type  1   force =    -0.00000000    0.00000000    0.00008977
     atom    4 type  2   force =     0.00000000    0.00000000    0.00003121

     Total force =     0.308617     Total SCF correction =     0.000153


     Computing stress (Cartesian axis) and pressure

          total   stress  (Ry/bohr**3)                   (kbar)     P=     1038.98
   0.00647543  -0.00000000  -0.00000000          952.57       -0.00       -0.00
  -0.00000000   0.00647543   0.00000000           -0.00      952.57        0.00
   0.00000000   0.00000000   0.00823775            0.00        0.00     1211.82

     Energy error            =      1.4E-02 Ry
     Gradient error          =      2.5E-01 Ry/Bohr
     Cell gradient error     =      7.1E+02 kbar

     number of scf cycles    =   4
     number of bfgs steps    =   3

     enthalpy           old  =     -38.4909826165 Ry
     enthalpy           new  =     -38.5050708270 Ry

     CASE: enthalpy          _new < enthalpy          _old

     new trust radius        =       0.2573757389 bohr
ibrav =      5
 celldm(1) =     14.15131233
 celldm(4) =      0.94164835
Input lattice vectors:
     0.17948514    -0.10362579     1.03015114
    -0.00000000     0.20725159     1.03015114
    -0.17948514    -0.10362579     1.03015114
New lattice vectors in INITIAL alat:
     0.17948514    -0.10362579     1.03015114
     0.00000000     0.20725159     1.03015114
    -0.17948514    -0.10362579     1.03015114
New lattice vectors in NEW alat (for information only):
     0.17080933    -0.09861681     0.98035652
     0.00000000     0.19723363     0.98035652
    -0.17080933    -0.09861681     0.98035652
Discrepancy in bohr =     0.000000    0.000000    0.000000
     new conv_thr            =       0.0000000100 Ry

     new unit-cell volume =    280.79411 a.u.^3 (    41.60939 Ang^3 )
     density =      3.63949 g/cm^3

CELL_PARAMETERS (alat= 13.46727746)
   0.179485141  -0.103625794   1.030151141
   0.000000000   0.207251588   1.030151141
  -0.179485141  -0.103625794   1.030151141

ATOMIC_POSITIONS (crystal)
Si            0.2123928938        0.2123928938        0.2123928938
Si            0.7977779728        0.7977779728        0.7977779728
Si            0.9596504306        0.9596504306        0.9596504306
Li            0.0559277128        0.0559277128        0.0559277128



     Writing config-only to output data dir ./output/SiLi.save/
     NEW-OLD atomic charge density approx. for the potential
     extrapolated charge   16.71385, renormalised to   15.00000

     total cpu time spent up to now is       36.9 secs

     Self-consistent Calculation

     iteration #  1     ecut=    80.00 Ry     beta= 0.70
     Davidson diagonalization with overlap
     c_bands:  1 eigenvalues not converged
     c_bands:  1 eigenvalues not converged
     ethr =  1.00E-06,  avg # of iterations = 15.2

     total cpu time spent up to now is       38.8 secs

     total energy              =     -38.56562111 Ry
     estimated scf accuracy    <       1.11099715 Ry

     iteration #  2     ecut=    80.00 Ry     beta= 0.70
     Davidson diagonalization with overlap
     ethr =  7.41E-03,  avg # of iterations =  4.6

     total cpu time spent up to now is       39.6 secs

     total energy              =     -38.11916654 Ry
     estimated scf accuracy    <      17.05758080 Ry

     iteration #  3     ecut=    80.00 Ry     beta= 0.70
     Davidson diagonalization with overlap
     ethr =  7.41E-03,  avg # of iterations =  2.9

     total cpu time spent up to now is       40.1 secs

     total energy              =     -39.54760319 Ry
     estimated scf accuracy    <       0.44235480 Ry

     iteration #  4     ecut=    80.00 Ry     beta= 0.70
     Davidson diagonalization with overlap
     ethr =  2.95E-03,  avg # of iterations =  1.6

     total cpu time spent up to now is       40.6 secs

     total energy              =     -39.55663500 Ry
     estimated scf accuracy    <       0.19060057 Ry

     iteration #  5     ecut=    80.00 Ry     beta= 0.70
     Davidson diagonalization with overlap
     ethr =  1.27E-03,  avg # of iterations =  1.3

     total cpu time spent up to now is       41.1 secs

     total energy              =     -39.54242677 Ry
     estimated scf accuracy    <       0.10873000 Ry

     iteration #  6     ecut=    80.00 Ry     beta= 0.70
     Davidson diagonalization with overlap
     ethr =  7.25E-04,  avg # of iterations =  2.2

     total cpu time spent up to now is       41.5 secs

     total energy              =     -39.54472796 Ry
     estimated scf accuracy    <       0.01395401 Ry

     iteration #  7     ecut=    80.00 Ry     beta= 0.70
     Davidson diagonalization with overlap
     ethr =  9.30E-05,  avg # of iterations =  4.9

     total cpu time spent up to now is       42.2 secs

     total energy              =     -39.54754569 Ry
     estimated scf accuracy    <       0.00164557 Ry

     iteration #  8     ecut=    80.00 Ry     beta= 0.70
     Davidson diagonalization with overlap
     ethr =  1.10E-05,  avg # of iterations =  2.7

     total cpu time spent up to now is       42.7 secs

     total energy              =     -39.54793657 Ry
     estimated scf accuracy    <       0.00044368 Ry

     iteration #  9     ecut=    80.00 Ry     beta= 0.70
     Davidson diagonalization with overlap
     ethr =  2.96E-06,  avg # of iterations =  3.1

     total cpu time spent up to now is       43.2 secs

     total energy              =     -39.54797484 Ry
     estimated scf accuracy    <       0.00001331 Ry

     iteration # 10     ecut=    80.00 Ry     beta= 0.70
     Davidson diagonalization with overlap
     ethr =  8.87E-08,  avg # of iterations =  2.8

     total cpu time spent up to now is       43.7 secs

     total energy              =     -39.54797869 Ry
     estimated scf accuracy    <       0.00000026 Ry

     iteration # 11     ecut=    80.00 Ry     beta= 0.70
     Davidson diagonalization with overlap
     ethr =  1.75E-09,  avg # of iterations =  3.5

     total cpu time spent up to now is       44.3 secs

     total energy              =     -39.54797872 Ry
     estimated scf accuracy    <       0.00000050 Ry

     iteration # 12     ecut=    80.00 Ry     beta= 0.70
     Davidson diagonalization with overlap
     ethr =  1.75E-09,  avg # of iterations =  1.5

     total cpu time spent up to now is       44.7 secs

     total energy              =     -39.54797873 Ry
     estimated scf accuracy    <       0.00000006 Ry

     iteration # 13     ecut=    80.00 Ry     beta= 0.70
     Davidson diagonalization with overlap
     ethr =  4.17E-10,  avg # of iterations =  1.7

     total cpu time spent up to now is       45.2 secs

     End of self-consistent calculation

          k = 0.0000 0.0000 0.0000 (  4279 PWs)   bands (ev):

   -33.4598  -4.3089  -1.5217   2.4775   6.7376  11.1099  19.6399  21.2409
    21.4291  21.4291  22.6708  22.6708

          k =-0.6964-0.4021 0.0809 (  4313 PWs)   bands (ev):

   -33.4130  -2.4892   0.2751   4.1432   8.3280  11.1329  12.9302  14.1345
    17.2818  17.7849  19.4736  19.5051

          k = 1.3929 0.8042-0.1618 (  4332 PWs)   bands (ev):

   -33.3661   2.6223   3.0906   5.1013   6.0161   8.5703  10.0096  12.0082
    14.4501  15.7218  16.4162  17.2719

          k =-0.6964 0.4021 0.1618 (  4312 PWs)   bands (ev):

   -33.4130  -2.4881   0.2640   4.2092   8.1157  11.2482  13.1362  14.1011
    17.2526  18.1925  18.9774  19.6743

          k = 1.3929 1.6084-0.0809 (  4324 PWs)   bands (ev):

   -33.3662   1.0930   3.7505   7.1075   8.3324   8.4140  10.0899  11.0788
    11.3403  13.8974  14.9157  16.6173

          k = 0.6964 1.2063 0.0000 (  4342 PWs)   bands (ev):

   -33.3662   1.0858   3.8061   6.9695   8.2244   8.3796  10.2636  11.0696
    11.7184  13.9858  15.0959  15.7868

          k = 1.3929-0.8042-0.3236 (  4338 PWs)   bands (ev):

   -33.3661   2.6048   3.1333   5.0994   5.8404   9.0309  10.1294  11.7199
    13.2806  15.6773  16.8194  18.1817

          k =-0.0000-0.0000 0.2427 (  4267 PWs)   bands (ev):

   -33.4598  -4.3083  -1.5382   2.6120   6.3082  11.9799  17.4270  21.4157
    21.4157  22.6744  22.6746  23.5891

          k = 2.0893 1.2063 0.0000 (  4313 PWs)   bands (ev):

   -33.4130  -2.4849   0.2330   4.4122   7.5952  11.4112  13.8245  14.4298
    16.8999  17.2737  18.5173  19.5496

          k = 1.3929 0.8042 0.0809 (  4322 PWs)   bands (ev):

   -33.3661   2.6135   3.1115   5.1049   5.9168   8.8213  10.0164  11.9099
    13.7783  15.6990  16.6000  18.0400

          k = 2.0893-1.2063-0.2427 (  4311 PWs)   bands (ev):

   -33.4130  -2.4838   0.2224   4.4950   7.4172  11.4572  13.9853  14.6201
    16.8756  17.2450  18.1943  19.7261

          k = 1.3929-1.6084-0.1618 (  4340 PWs)   bands (ev):

   -33.3662   1.1002   3.6977   7.2363   8.3165   8.7153   9.7063  10.9464
    11.2647  13.7172  14.9327  17.1199

          k = 0.0000 0.0000-0.4854 (  4268 PWs)   bands (ev):

   -33.4598  -4.3077  -1.5544   2.7641   5.9212  13.2051  15.6866  21.4028
    21.4028  22.6749  22.6757  23.7589

     the Fermi energy is    12.8043 ev

!    total energy              =     -39.54797874 Ry
     estimated scf accuracy    <          4.7E-10 Ry
     smearing contrib. (-TS)   =      -0.00050229 Ry
     internal energy E=F+TS    =     -39.54747646 Ry

     The total energy is F=E-TS. E is the sum of the following terms:
     one-electron contribution =       8.91355187 Ry
     hartree contribution      =       3.70285193 Ry
     xc contribution           =     -13.55489731 Ry
     ewald contribution        =     -38.60898295 Ry

     convergence has been achieved in  13 iterations

     Forces acting on atoms (cartesian axes, Ry/au):

     atom    1 type  1   force =     0.00000000    0.00000000   -0.00436764
     atom    2 type  1   force =     0.00000000    0.00000000    0.00533469
     atom    3 type  1   force =    -0.00000000   -0.00000000    0.02603718
     atom    4 type  2   force =    -0.00000000   -0.00000000   -0.02700424
     The non-local contrib.  to forces
     atom    1 type  1   force =     0.00000000   -0.00000000   -0.03089711
     atom    2 type  1   force =    -0.00000000    0.00000000    0.03093604
     atom    3 type  1   force =     0.00000000   -0.00000000    0.01642280
     atom    4 type  2   force =     0.00000000   -0.00000000   -0.01168153
     The ionic contribution  to forces
     atom    1 type  1   force =     0.00000000   -0.00000000    0.42539156
     atom    2 type  1   force =     0.00000000    0.00000000   -1.30343447
     atom    3 type  1   force =     0.00000000    0.00000000    1.97601301
     atom    4 type  2   force =    -0.00000000   -0.00000000   -1.09797010
     The local contribution  to forces
     atom    1 type  1   force =    -0.00000000    0.00000000   -0.40081354
     atom    2 type  1   force =     0.00000000   -0.00000000    1.27569691
     atom    3 type  1   force =     0.00000000   -0.00000000   -1.96043564
     atom    4 type  2   force =    -0.00000000    0.00000000    1.08266005
     The core correction contribution to forces
     atom    1 type  1   force =     0.00000000    0.00000000    0.00195223
     atom    2 type  1   force =     0.00000000    0.00000000    0.00216882
     atom    3 type  1   force =    -0.00000000   -0.00000000   -0.00600330
     atom    4 type  2   force =     0.00000000    0.00000000    0.00000000
     The Hubbard contrib.    to forces
     atom    1 type  1   force =     0.00000000    0.00000000    0.00000000
     atom    2 type  1   force =     0.00000000    0.00000000    0.00000000
     atom    3 type  1   force =     0.00000000    0.00000000    0.00000000
     atom    4 type  2   force =     0.00000000    0.00000000    0.00000000
     The SCF correction term to forces
     atom    1 type  1   force =     0.00000000   -0.00000000   -0.00000104
     atom    2 type  1   force =    -0.00000000    0.00000000   -0.00003286
     atom    3 type  1   force =     0.00000000   -0.00000000    0.00004006
     atom    4 type  2   force =    -0.00000000   -0.00000000   -0.00001291

     Total force =     0.038141     Total SCF correction =     0.000053


     Computing stress (Cartesian axis) and pressure

          total   stress  (Ry/bohr**3)                   (kbar)     P=      555.79
   0.00332563   0.00000000  -0.00000000          489.22        0.00       -0.00
   0.00000000   0.00332563   0.00000000            0.00      489.22        0.00
   0.00000000   0.00000000   0.00468338            0.00        0.00      688.95

     Energy error            =      8.9E-02 Ry
     Gradient error          =      2.7E-02 Ry/Bohr
     Cell gradient error     =      1.9E+02 kbar

     number of scf cycles    =   5
     number of bfgs steps    =   4

     enthalpy           old  =     -38.5050708270 Ry
     enthalpy           new  =     -38.5935789588 Ry

     CASE: enthalpy          _new < enthalpy          _old

     new trust radius        =       0.0742952511 bohr
ibrav =      5
 celldm(1) =     14.44930784
 celldm(4) =      0.94478659
Input lattice vectors:
     0.17826846    -0.10292335     1.05298809
     0.00000000     0.20584669     1.05298809
    -0.17826846    -0.10292335     1.05298809
New lattice vectors in INITIAL alat:
     0.17826846    -0.10292335     1.05298809
     0.00000000     0.20584669     1.05298809
    -0.17826846    -0.10292335     1.05298809
New lattice vectors in NEW alat (for information only):
     0.16615266    -0.09592828     0.98142298
     0.00000000     0.19185656     0.98142298
    -0.16615266    -0.09592828     0.98142298
Discrepancy in bohr =     0.000000    0.000000    0.000000
     new conv_thr            =       0.0000000027 Ry

     new unit-cell volume =    283.14086 a.u.^3 (    41.95715 Ang^3 )
     density =      3.60933 g/cm^3

CELL_PARAMETERS (alat= 13.46727746)
   0.178268465  -0.102923346   1.052988086
   0.000000000   0.205846692   1.052988086
  -0.178268465  -0.102923346   1.052988086

ATOMIC_POSITIONS (crystal)
Si            0.2126644889        0.2126644889        0.2126644889
Si            0.7985474633        0.7985474633        0.7985474633
Si            0.9596954602        0.9596954602        0.9596954602
Li            0.0548415977        0.0548415977        0.0548415977



     Writing config-only to output data dir ./output/SiLi.save/
     NEW-OLD atomic charge density approx. for the potential
     extrapolated charge   15.12427, renormalised to   15.00000

     total cpu time spent up to now is       46.5 secs

     Self-consistent Calculation

     iteration #  1     ecut=    80.00 Ry     beta= 0.70
     Davidson diagonalization with overlap
     ethr =  1.00E-06,  avg # of iterations =  9.8

     total cpu time spent up to now is       47.7 secs

     total energy              =     -39.55950798 Ry
     estimated scf accuracy    <       0.00400743 Ry

     iteration #  2     ecut=    80.00 Ry     beta= 0.70
     Davidson diagonalization with overlap
     ethr =  2.67E-05,  avg # of iterations =  4.7

     total cpu time spent up to now is       48.4 secs

     total energy              =     -39.55412928 Ry
     estimated scf accuracy    <       0.09797139 Ry

     iteration #  3     ecut=    80.00 Ry     beta= 0.70
     Davidson diagonalization with overlap
     ethr =  2.67E-05,  avg # of iterations =  4.2

     total cpu time spent up to now is       49.1 secs

     total energy              =     -39.56271892 Ry
     estimated scf accuracy    <       0.00083414 Ry

     iteration #  4     ecut=    80.00 Ry     beta= 0.70
     Davidson diagonalization with overlap
     ethr =  5.56E-06,  avg # of iterations =  2.7

     total cpu time spent up to now is       49.6 secs

     total energy              =     -39.56275160 Ry
     estimated scf accuracy    <       0.00054391 Ry

     iteration #  5     ecut=    80.00 Ry     beta= 0.70
     Davidson diagonalization with overlap
     ethr =  3.63E-06,  avg # of iterations =  2.1

     total cpu time spent up to now is       50.1 secs

     total energy              =     -39.56281622 Ry
     estimated scf accuracy    <       0.00011373 Ry

     iteration #  6     ecut=    80.00 Ry     beta= 0.70
     Davidson diagonalization with overlap
     ethr =  7.58E-07,  avg # of iterations =  2.2

     total cpu time spent up to now is       50.5 secs

     total energy              =     -39.56282815 Ry
     estimated scf accuracy    <       0.00000040 Ry

     iteration #  7     ecut=    80.00 Ry     beta= 0.70
     Davidson diagonalization with overlap
     ethr =  2.65E-09,  avg # of iterations =  3.9

     total cpu time spent up to now is       51.1 secs

     total energy              =     -39.56282863 Ry
     estimated scf accuracy    <       0.00000070 Ry

     iteration #  8     ecut=    80.00 Ry     beta= 0.70
     Davidson diagonalization with overlap
     ethr =  2.65E-09,  avg # of iterations =  1.7

     total cpu time spent up to now is       51.5 secs

     total energy              =     -39.56282868 Ry
     estimated scf accuracy    <       0.00000003 Ry

     iteration #  9     ecut=    80.00 Ry     beta= 0.70
     Davidson diagonalization with overlap
     ethr =  1.70E-10,  avg # of iterations =  2.0

     total cpu time spent up to now is       52.0 secs

     End of self-consistent calculation

          k = 0.0000 0.0000 0.0000 (  4279 PWs)   bands (ev):

   -33.5959  -4.3921  -1.6872   2.2120   6.3610  10.6958  18.8095  20.4657
    21.7883  21.7884  22.9192  22.9193

          k =-0.7012-0.4048 0.0791 (  4313 PWs)   bands (ev):

   -33.5471  -2.5455   0.1386   3.9193   8.0007  11.1262  12.7320  14.1584
    17.5374  17.7208  19.2713  19.7307

          k = 1.4024 0.8097-0.1583 (  4332 PWs)   bands (ev):

   -33.4982   2.6602   3.0892   5.0505   5.9715   8.5071   9.8180  11.8282
    14.1720  15.9580  16.0655  17.1452

          k =-0.7012 0.4048 0.1583 (  4312 PWs)   bands (ev):

   -33.5471  -2.5446   0.1295   3.9750   7.8173  11.2658  12.8869  14.1348
    17.5127  18.0873  18.5606  19.8777

          k = 1.4024 1.6193-0.0791 (  4324 PWs)   bands (ev):

   -33.4983   1.0886   3.6768   7.0290   8.3934   8.4533  10.0784  11.0129
    11.2783  13.8332  14.7649  16.4130

          k = 0.7012 1.2145 0.0000 (  4342 PWs)   bands (ev):

   -33.4983   1.0826   3.7243   6.8878   8.3195   8.4191  10.2664  11.1246
    11.4774  13.8821  14.9559  15.5010

          k = 1.4024-0.8097-0.3166 (  4338 PWs)   bands (ev):

   -33.4982   2.6456   3.1249   5.0414   5.8282   8.9478   9.8677  11.6033
    13.0441  15.9201  16.6834  18.3571

          k = 0.0000 0.0000 0.2374 (  4267 PWs)   bands (ev):

   -33.5959  -4.3919  -1.6998   2.3214   5.9948  11.4824  16.7372  21.7769
    21.7770  22.7563  22.9211  22.9211

          k = 2.1036 1.2145 0.0000 (  4313 PWs)   bands (ev):

   -33.5471  -2.5420   0.1039   4.1446   7.3602  11.4959  13.6094  14.2493
    16.6598  17.5306  18.2613  19.7694

          k = 1.4024 0.8097 0.0791 (  4322 PWs)   bands (ev):

   -33.4982   2.6529   3.1067   5.0496   5.8906   8.7451   9.7973  11.7630
    13.5035  15.9387  16.4236  17.9254

          k = 2.1036-1.2145-0.2374 (  4311 PWs)   bands (ev):

   -33.5472  -2.5412   0.0951   4.2122   7.2062  11.5545  13.9272  14.2615
    16.4498  17.5062  18.0772  19.9222

          k = 1.4024-1.6193-0.1583 (  4340 PWs)   bands (ev):

   -33.4983   1.0948   3.6313   7.1696   8.3720   8.6892   9.6998  10.8494
    11.2905  13.6743  14.8200  16.9687

          k = 0.0000 0.0000-0.4748 (  4268 PWs)   bands (ev):

   -33.5959  -4.3917  -1.7122   2.4426   5.6644  12.5764  15.1327  21.7661
    21.7662  22.9211  22.9213  24.0540

     the Fermi energy is    12.5546 ev

!    total energy              =     -39.56282869 Ry
     estimated scf accuracy    <          1.3E-10 Ry
     smearing contrib. (-TS)   =      -0.00044081 Ry
     internal energy E=F+TS    =     -39.56238787 Ry

     The total energy is F=E-TS. E is the sum of the following terms:
     one-electron contribution =       8.76964635 Ry
     hartree contribution      =       3.71624797 Ry
     xc contribution           =     -13.53474524 Ry
     ewald contribution        =     -38.51353694 Ry

     convergence has been achieved in   9 iterations

     Forces acting on atoms (cartesian axes, Ry/au):

     atom    1 type  1   force =    -0.00000000   -0.00000000   -0.00183167
     atom    2 type  1   force =     0.00000000    0.00000000   -0.00330614
     atom    3 type  1   force =    -0.00000000    0.00000000    0.01578718
     atom    4 type  2   force =    -0.00000000    0.00000000   -0.01064937
     The non-local contrib.  to forces
     atom    1 type  1   force =     0.00000000   -0.00000000   -0.02653734
     atom    2 type  1   force =    -0.00000000    0.00000000    0.02322370
     atom    3 type  1   force =     0.00000000   -0.00000000    0.00602123
     atom    4 type  2   force =     0.00000000   -0.00000000   -0.01119611
     The ionic contribution  to forces
     atom    1 type  1   force =     0.00000000   -0.00000000    0.38177424
     atom    2 type  1   force =     0.00000000    0.00000000   -1.45489985
     atom    3 type  1   force =     0.00000000    0.00000000    2.04227789
     atom    4 type  2   force =     0.00000000   -0.00000000   -0.96915227
     The local contribution  to forces
     atom    1 type  1   force =     0.00000000    0.00000000   -0.35870366
     atom    2 type  1   force =     0.00000000   -0.00000000    1.42582056
     atom    3 type  1   force =     0.00000000   -0.00000000   -2.02733322
     atom    4 type  2   force =    -0.00000000    0.00000000    0.96969241
     The core correction contribution to forces
     atom    1 type  1   force =    -0.00000000    0.00000000    0.00163556
     atom    2 type  1   force =     0.00000000    0.00000000    0.00256010
     atom    3 type  1   force =    -0.00000000   -0.00000000   -0.00518034
     atom    4 type  2   force =     0.00000000    0.00000000    0.00000000
     The Hubbard contrib.    to forces
     atom    1 type  1   force =     0.00000000    0.00000000    0.00000000
     atom    2 type  1   force =     0.00000000    0.00000000    0.00000000
     atom    3 type  1   force =     0.00000000    0.00000000    0.00000000
     atom    4 type  2   force =     0.00000000    0.00000000    0.00000000
     The SCF correction term to forces
     atom    1 type  1   force =     0.00000000    0.00000000    0.00000064
     atom    2 type  1   force =    -0.00000000   -0.00000000   -0.00000954
     atom    3 type  1   force =     0.00000000    0.00000000    0.00000273
     atom    4 type  2   force =     0.00000000   -0.00000000    0.00000771

     Total force =     0.019415     Total SCF correction =     0.000013


     Computing stress (Cartesian axis) and pressure

          total   stress  (Ry/bohr**3)                   (kbar)     P=      517.01
   0.00328056   0.00000000   0.00000000          482.59        0.00        0.00
  -0.00000000   0.00328056   0.00000000           -0.00      482.59        0.00
  -0.00000000   0.00000000   0.00398248           -0.00        0.00      585.84

     Energy error            =      6.9E-03 Ry
     Gradient error          =      1.6E-02 Ry/Bohr
     Cell gradient error     =      8.6E+01 kbar

     number of scf cycles    =   6
     number of bfgs steps    =   5

     enthalpy           old  =     -38.5935789588 Ry
     enthalpy           new  =     -38.6004524498 Ry

     CASE: enthalpy          _new < enthalpy          _old

     new trust radius        =       0.0642407772 bohr
ibrav =      5
 celldm(1) =     14.71013419
 celldm(4) =      0.94773346
Input lattice vectors:
     0.17657683    -0.10194668     1.07308841
     0.00000000     0.20389336     1.07308841
    -0.17657683    -0.10194668     1.07308841
New lattice vectors in INITIAL alat:
     0.17657683    -0.10194668     1.07308841
     0.00000000     0.20389336     1.07308841
    -0.17657683    -0.10194668     1.07308841
New lattice vectors in NEW alat (for information only):
     0.16165789    -0.09333322     0.98242335
     0.00000000     0.18666645     0.98242335
    -0.16165789    -0.09333322     0.98242335
Discrepancy in bohr =     0.000000    0.000000    0.000000
     new conv_thr            =       0.0000000016 Ry

     new unit-cell volume =    283.09551 a.u.^3 (    41.95043 Ang^3 )
     density =      3.60990 g/cm^3

CELL_PARAMETERS (alat= 13.46727746)
   0.176576832  -0.101946681   1.073088406
   0.000000000   0.203893362   1.073088406
  -0.176576832  -0.101946681   1.073088406

ATOMIC_POSITIONS (crystal)
Si            0.2129034081        0.2129034081        0.2129034081
Si            0.7988649691        0.7988649691        0.7988649691
Si            0.9600047773        0.9600047773        0.9600047773
Li            0.0539758556        0.0539758556        0.0539758556



     Writing config-only to output data dir ./output/SiLi.save/
     NEW-OLD atomic charge density approx. for the potential
     extrapolated charge   14.99760, renormalised to   15.00000

     total cpu time spent up to now is       53.2 secs

     Self-consistent Calculation

     iteration #  1     ecut=    80.00 Ry     beta= 0.70
     Davidson diagonalization with overlap
     c_bands:  1 eigenvalues not converged
     ethr =  1.00E-06,  avg # of iterations =  9.1
     Minimization algorithm failed to find Fermi energy: reverting to bisection
     Possible cause: smearing is larger than the electronic band-gap.

     total cpu time spent up to now is       54.3 secs

     total energy              =     -39.56398594 Ry
     estimated scf accuracy    <       0.00120437 Ry

     iteration #  2     ecut=    80.00 Ry     beta= 0.70
     Davidson diagonalization with overlap
     ethr =  8.03E-06,  avg # of iterations =  4.5
     Minimization algorithm failed to find Fermi energy: reverting to bisection
     Possible cause: smearing is larger than the electronic band-gap.

     total cpu time spent up to now is       55.0 secs

     total energy              =     -39.56216365 Ry
     estimated scf accuracy    <       0.02482468 Ry

     iteration #  3     ecut=    80.00 Ry     beta= 0.70
     Davidson diagonalization with overlap
     ethr =  8.03E-06,  avg # of iterations =  4.5
     Minimization algorithm failed to find Fermi energy: reverting to bisection
     Possible cause: smearing is larger than the electronic band-gap.

     total cpu time spent up to now is       55.6 secs

     total energy              =     -39.56472829 Ry
     estimated scf accuracy    <       0.00007329 Ry

     iteration #  4     ecut=    80.00 Ry     beta= 0.70
     Davidson diagonalization with overlap
     ethr =  4.89E-07,  avg # of iterations =  2.2
     Minimization algorithm failed to find Fermi energy: reverting to bisection
     Possible cause: smearing is larger than the electronic band-gap.

     total cpu time spent up to now is       56.1 secs

     total energy              =     -39.56472474 Ry
     estimated scf accuracy    <       0.00016013 Ry

     iteration #  5     ecut=    80.00 Ry     beta= 0.70
     Davidson diagonalization with overlap
     ethr =  4.89E-07,  avg # of iterations =  1.6
     Minimization algorithm failed to find Fermi energy: reverting to bisection
     Possible cause: smearing is larger than the electronic band-gap.

     total cpu time spent up to now is       56.5 secs

     total energy              =     -39.56474851 Ry
     estimated scf accuracy    <       0.00003378 Ry

     iteration #  6     ecut=    80.00 Ry     beta= 0.70
     Davidson diagonalization with overlap
     ethr =  2.25E-07,  avg # of iterations =  1.0
     Minimization algorithm failed to find Fermi energy: reverting to bisection
     Possible cause: smearing is larger than the electronic band-gap.

     total cpu time spent up to now is       56.9 secs

     total energy              =     -39.56475162 Ry
     estimated scf accuracy    <       0.00000027 Ry

     iteration #  7     ecut=    80.00 Ry     beta= 0.70
     Davidson diagonalization with overlap
     ethr =  1.79E-09,  avg # of iterations =  2.9
     Minimization algorithm failed to find Fermi energy: reverting to bisection
     Possible cause: smearing is larger than the electronic band-gap.

     total cpu time spent up to now is       57.4 secs

     total energy              =     -39.56475175 Ry
     estimated scf accuracy    <       0.00000002 Ry

     iteration #  8     ecut=    80.00 Ry     beta= 0.70
     Davidson diagonalization with overlap
     ethr =  1.35E-10,  avg # of iterations =  2.0
     Minimization algorithm failed to find Fermi energy: reverting to bisection
     Possible cause: smearing is larger than the electronic band-gap.

     total cpu time spent up to now is       57.9 secs

     total energy              =     -39.56475176 Ry
     estimated scf accuracy    <          1.7E-09 Ry

     iteration #  9     ecut=    80.00 Ry     beta= 0.70
     Davidson diagonalization with overlap
     ethr =  1.12E-11,  avg # of iterations =  2.1
     Minimization algorithm failed to find Fermi energy: reverting to bisection
     Possible cause: smearing is larger than the electronic band-gap.

     total cpu time spent up to now is       58.3 secs

     End of self-consistent calculation

          k = 0.0000 0.0000 0.0000 (  4279 PWs)   bands (ev):

   -33.5955  -4.4268  -1.7877   2.0058   6.0866  10.3769  18.1336  19.8531
    22.3583  22.3583  23.3441  23.3441

          k =-0.7079-0.4087 0.0777 (  4313 PWs)   bands (ev):

   -33.5430  -2.5432   0.0763   3.7600   7.7810  11.1490  12.7235  14.3348
    17.7809  17.9713  19.0410  20.0648

          k = 1.4158 0.8174-0.1553 (  4332 PWs)   bands (ev):

   -33.4902   2.7869   3.1703   5.0906   6.0349   8.5190   9.7357  11.7791
    14.0152  15.8035  16.3663  17.1797

          k =-0.7079 0.4087 0.1553 (  4312 PWs)   bands (ev):

   -33.5430  -2.5425   0.0688   3.8071   7.6206  11.3237  12.8185  14.3242
    17.9497  17.9790  18.3572  20.2650

          k = 1.4158 1.6348-0.0777 (  4324 PWs)   bands (ev):

   -33.4903   1.1619   3.6923   7.0073   8.5426   8.6490  10.1695  11.0039
    11.4275  13.8749  14.7385  16.3361

          k = 0.7079 1.2261 0.0000 (  4342 PWs)   bands (ev):

   -33.4903   1.1567   3.7339   6.8675   8.5317   8.5766  10.3820  11.2821
    11.3971  13.8723  14.9425  15.3871

          k = 1.4158-0.8174-0.3106 (  4338 PWs)   bands (ev):

   -33.4902   2.7754   3.2000   5.0720   5.9204   8.9706   9.6955  11.5982
    12.9446  16.3331  16.6156  18.7132

          k = 0.0000 0.0000 0.2330 (  4267 PWs)   bands (ev):

   -33.5955  -4.4269  -1.7969   2.0936   5.7739  11.0893  16.1969  22.0621
    22.3486  22.3486  23.3449  23.3450

          k = 2.1237 1.2261 0.0000 (  4313 PWs)   bands (ev):

   -33.5430  -2.5405   0.0476   3.9488   7.2174  11.6695  13.4104  14.3306
    16.4982  17.9653  18.1839  20.1680

          k = 1.4158 0.8174 0.0777 (  4322 PWs)   bands (ev):

   -33.4902   2.7812   3.1848   5.0844   5.9698   8.7560   9.6807  11.7380
    13.3610  16.3047  16.3494  17.8262

          k = 2.1237-1.2261-0.2330 (  4311 PWs)   bands (ev):

   -33.5430  -2.5399   0.0403   4.0042   7.0827  11.7557  13.7301  14.2962
    16.1588  17.9440  18.1145  20.3044

          k = 1.4158-1.6348-0.1553 (  4340 PWs)   bands (ev):

   -33.4903   1.1673   3.6523   7.1530   8.5254   8.8308   9.7824  10.8778
    11.4597  13.7349  14.8395  16.9581

          k = 0.0000 0.0000-0.4659 (  4268 PWs)   bands (ev):

   -33.5955  -4.4270  -1.8059   2.1891   5.4915  12.0633  14.7187  22.3392
    22.3392  23.3445  23.3445  24.5477

     the Fermi energy is    11.9653 ev

!    total energy              =     -39.56475176 Ry
     estimated scf accuracy    <          7.2E-11 Ry
     smearing contrib. (-TS)   =       0.00280316 Ry
     internal energy E=F+TS    =     -39.56755492 Ry

[...]
New lattice vectors in NEW alat (for information only):
     0.15156394    -0.08750548     0.98456648
     0.00000000     0.17501096     0.98456648
    -0.15156394    -0.08750548     0.98456648
Discrepancy in bohr =     0.000000    0.000000    0.000000

     bfgs converged in  22 scf cycles and  20 bfgs steps
     (criteria: energy <  1.0E-04 Ry, force <  1.0E-03 Ry/Bohr, cell <  1.0E+00 kbar)

     End of BFGS Geometry Optimization

     Final enthalpy           =     -38.6047615149 Ry

     File ./output/SiLi.bfgs deleted, as requested
Begin final coordinates
     new unit-cell volume =    278.74197 a.u.^3 (    41.30530 Ang^3 )
     density =      3.66629 g/cm^3

CELL_PARAMETERS (alat= 13.46727746)
   0.171807079  -0.099192864   1.116066867
   0.000000000   0.198385727   1.116066867
  -0.171807079  -0.099192864   1.116066867

ATOMIC_POSITIONS (crystal)
Si            0.2133091451        0.2133091451        0.2133091451
Si            0.7971194569        0.7971194569        0.7971194569
Si            0.9620828128        0.9620828128        0.9620828128
Li            0.0532375953        0.0532375953        0.0532375953
End final coordinates



     Writing config-only to output data dir ./output/SiLi.save/

     Final scf calculation at the relaxed structure.
     The G-vectors are recalculated for the final unit cell
     Results may differ from those at the preceding step.

     Parallelization info
     --------------------
     sticks:   dense  smooth     PW     G-vecs:    dense   smooth      PW
     Min         222     222     71                 3366     3366     614
     Max         223     223     72                 3367     3367     615
     Sum        1781    1781    571                26929    26929    4915

     Using Slab Decomposition



     bravais-lattice index     =            5
     lattice parameter (alat)  =      13.4673  a.u.
     unit-cell volume          =     278.7420 (a.u.)^3
     number of atoms/cell      =            4
     number of atomic types    =            2
     number of electrons       =        15.00
     number of Kohn-Sham states=           12
     kinetic-energy cutoff     =      80.0000  Ry
     charge density cutoff     =     320.0000  Ry
     scf convergence threshold =      1.0E-10
     mixing beta               =       0.7000
     number of iterations used =            8  plain     mixing
     press convergence thresh. =      1.0E+00
     Exchange-correlation= PBE
                           (   1   4   3   4   0   0   0)

     celldm(1)=  13.467277  celldm(2)=   0.000000  celldm(3)=   0.000000
     celldm(4)=   0.912872  celldm(5)=   0.000000  celldm(6)=   0.000000

     crystal axes: (cart. coord. in units of alat)
               a(1) = (   0.171807  -0.099193   1.116067 )  
               a(2) = (   0.000000   0.198386   1.116067 )  
               a(3) = (  -0.171807  -0.099193   1.116067 )  

     reciprocal axes: (cart. coord. in units 2 pi/alat)
               b(1) = (  2.910241 -1.680228  0.298668 )  
               b(2) = (  0.000000  3.360457  0.298668 )  
               b(3) = ( -2.910241 -1.680228  0.298668 )  


     PseudoPot. # 1 for Si read from file:
     ../pseudo/Si_ONCV_PBE_sr.upf
     MD5 check sum: e543d271109d17c80368dfa7c482276d
     Pseudo is Norm-conserving + core correction, Zval =  4.0
     Generated using ONCVPSP code by D. R. Hamann
     Using radial grid of 1510 points,  6 beta functions with: 
                l(1) =   0
                l(2) =   0
                l(3) =   1
                l(4) =   1
                l(5) =   2
                l(6) =   2

     PseudoPot. # 2 for Li read from file:
     ../pseudo/Li_ONCV_PBE_sr.upf
     MD5 check sum: 50ff420e78310ffa21704f3361e624a4
     Pseudo is Norm-conserving, Zval =  3.0
     Generated using ONCVPSP code by D. R. Hamann
     Using radial grid of 1944 points,  4 beta functions with: 
                l(1) =   0
                l(2) =   0
                l(3) =   1
                l(4) =   1

     atomic species   valence    mass     pseudopotential
        Si             4.00    28.08550     Si( 1.00)
        Li             3.00     6.94100     Li( 1.00)

      6 Sym. Ops. (no inversion) found



   Cartesian axes

     site n.     atom                  positions (alat units)
         1           Si  tau(   1) = (   0.0000000  -0.0000000   0.7142018  )
         2           Si  tau(   2) = (   0.0000000  -0.0000000   2.6689158  )
         3           Si  tau(   3) = (  -0.0000000  -0.0000000   3.2212463  )
         4           Li  tau(   4) = (   0.0000000  -0.0000000   0.1782501  )

     number of k points=    13  Marzari-Vanderbilt smearing, width (Ry)=  0.0200
                       cart. coord. in units 2pi/alat
        k(    1) = (   0.0000000   0.0000000   0.0000000), wk =   0.0312500
        k(    2) = (  -0.7275602  -0.4200571   0.0746670), wk =   0.1875000
        k(    3) = (   1.4551205   0.8401142  -0.1493339), wk =   0.0937500
        k(    4) = (  -0.7275602   0.4200571   0.1493339), wk =   0.1875000
        k(    5) = (   1.4551205   1.6802284  -0.0746670), wk =   0.3750000
        k(    6) = (   0.7275602   1.2601713   0.0000000), wk =   0.1875000
        k(    7) = (   1.4551205  -0.8401142  -0.2986679), wk =   0.0937500
        k(    8) = (  -0.0000000  -0.0000000   0.2240009), wk =   0.0625000
        k(    9) = (   2.1826807   1.2601713   0.0000000), wk =   0.1875000
        k(   10) = (   1.4551205   0.8401142   0.0746670), wk =   0.1875000
        k(   11) = (   2.1826807  -1.2601713  -0.2240009), wk =   0.1875000
        k(   12) = (   1.4551205  -1.6802284  -0.1493339), wk =   0.1875000
        k(   13) = (   0.0000000   0.0000000  -0.4480018), wk =   0.0312500

     Dense  grid:    26929 G-vectors     FFT dimensions: (  90,  90,  90)

     Estimated max dynamical RAM per process >      21.56 MB

     Estimated total dynamical RAM >     172.44 MB

     Initial potential from superposition of free atoms

     starting charge      14.9936, renormalised to      15.0000
     Starting wfcs are   14 randomized atomic wfcs

     total cpu time spent up to now is      146.6 secs

     Self-consistent Calculation

     iteration #  1     ecut=    80.00 Ry     beta= 0.70
     Davidson diagonalization with overlap
     c_bands:  3 eigenvalues not converged
     c_bands:  1 eigenvalues not converged
     c_bands:  1 eigenvalues not converged
     c_bands:  2 eigenvalues not converged
     c_bands:  1 eigenvalues not converged
     c_bands:  1 eigenvalues not converged
     c_bands:  3 eigenvalues not converged
     c_bands:  1 eigenvalues not converged
     c_bands:  1 eigenvalues not converged
     c_bands:  3 eigenvalues not converged
     ethr =  1.00E-06,  avg # of iterations = 19.5
     Minimization algorithm failed to find Fermi energy: reverting to bisection
     Possible cause: smearing is larger than the electronic band-gap.

     total cpu time spent up to now is      149.4 secs

     total energy              =     -39.40022871 Ry
     estimated scf accuracy    <       0.22442638 Ry

     iteration #  2     ecut=    80.00 Ry     beta= 0.70
     Davidson diagonalization with overlap
     ethr =  1.50E-03,  avg # of iterations =  3.7

     total cpu time spent up to now is      150.3 secs

     total energy              =     -39.10890191 Ry
     estimated scf accuracy    <       4.69137076 Ry

     iteration #  3     ecut=    80.00 Ry     beta= 0.70
     Davidson diagonalization with overlap
     ethr =  1.50E-03,  avg # of iterations =  3.4
     Minimization algorithm failed to find Fermi energy: reverting to bisection
     Possible cause: smearing is larger than the electronic band-gap.

     total cpu time spent up to now is      151.0 secs

     total energy              =     -39.54268803 Ry
     estimated scf accuracy    <       0.02706841 Ry

     iteration #  4     ecut=    80.00 Ry     beta= 0.70
     Davidson diagonalization with overlap
     ethr =  1.80E-04,  avg # of iterations =  3.2
     Minimization algorithm failed to find Fermi energy: reverting to bisection
     Possible cause: smearing is larger than the electronic band-gap.

     total cpu time spent up to now is      151.8 secs

     total energy              =     -39.54545933 Ry
     estimated scf accuracy    <       0.05278601 Ry

     iteration #  5     ecut=    80.00 Ry     beta= 0.70
     Davidson diagonalization with overlap
     ethr =  1.80E-04,  avg # of iterations =  1.8
     Minimization algorithm failed to find Fermi energy: reverting to bisection
     Possible cause: smearing is larger than the electronic band-gap.

     total cpu time spent up to now is      152.4 secs

     total energy              =     -39.55186879 Ry
     estimated scf accuracy    <       0.00343177 Ry

     iteration #  6     ecut=    80.00 Ry     beta= 0.70
     Davidson diagonalization with overlap
     ethr =  2.29E-05,  avg # of iterations =  3.1
     Minimization algorithm failed to find Fermi energy: reverting to bisection
     Possible cause: smearing is larger than the electronic band-gap.

     total cpu time spent up to now is      153.1 secs

     total energy              =     -39.55221254 Ry
     estimated scf accuracy    <       0.00003199 Ry

     iteration #  7     ecut=    80.00 Ry     beta= 0.70
     Davidson diagonalization with overlap
     ethr =  2.13E-07,  avg # of iterations =  5.4
     Minimization algorithm failed to find Fermi energy: reverting to bisection
     Possible cause: smearing is larger than the electronic band-gap.

     total cpu time spent up to now is      153.9 secs

     total energy              =     -39.55223197 Ry
     estimated scf accuracy    <       0.00000193 Ry

     iteration #  8     ecut=    80.00 Ry     beta= 0.70
     Davidson diagonalization with overlap
     ethr =  1.29E-08,  avg # of iterations =  1.9
     Minimization algorithm failed to find Fermi energy: reverting to bisection
     Possible cause: smearing is larger than the electronic band-gap.

     total cpu time spent up to now is      154.6 secs

     total energy              =     -39.55223232 Ry
     estimated scf accuracy    <       0.00000025 Ry

     iteration #  9     ecut=    80.00 Ry     beta= 0.70
     Davidson diagonalization with overlap
     ethr =  1.66E-09,  avg # of iterations =  1.8
     Minimization algorithm failed to find Fermi energy: reverting to bisection
     Possible cause: smearing is larger than the electronic band-gap.

     total cpu time spent up to now is      155.2 secs

     total energy              =     -39.55223237 Ry
     estimated scf accuracy    <       0.00000001 Ry

     iteration # 10     ecut=    80.00 Ry     beta= 0.70
     Davidson diagonalization with overlap
     ethr =  8.56E-11,  avg # of iterations =  2.5
     Minimization algorithm failed to find Fermi energy: reverting to bisection
     Possible cause: smearing is larger than the electronic band-gap.

     total cpu time spent up to now is      155.9 secs

     total energy              =     -39.55223237 Ry
     estimated scf accuracy    <          2.2E-09 Ry

     iteration # 11     ecut=    80.00 Ry     beta= 0.70
     Davidson diagonalization with overlap
     ethr =  1.48E-11,  avg # of iterations =  1.8
     Minimization algorithm failed to find Fermi energy: reverting to bisection
     Possible cause: smearing is larger than the electronic band-gap.

     total cpu time spent up to now is      156.5 secs

     total energy              =     -39.55223237 Ry
     estimated scf accuracy    <          1.4E-10 Ry

     iteration # 12     ecut=    80.00 Ry     beta= 0.70
     Davidson diagonalization with overlap
     ethr =  9.45E-13,  avg # of iterations =  2.5
     Minimization algorithm failed to find Fermi energy: reverting to bisection
     Possible cause: smearing is larger than the electronic band-gap.

     total cpu time spent up to now is      157.2 secs

     End of self-consistent calculation

          k = 0.0000 0.0000 0.0000 (  3391 PWs)   bands (ev):

   -33.2315  -4.2990  -1.9039   1.5069   5.6060   9.7167  16.7627  18.7343
    24.2570  24.2570  24.8178  24.8179

          k =-0.7276-0.4201 0.0747 (  3375 PWs)   bands (ev):

   -33.1643  -2.3075   0.0699   3.3821   7.4380  11.0023  13.3737  14.9938
    17.9600  18.4624  19.4909  19.9354

          k = 1.4551 0.8401-0.1493 (  3342 PWs)   bands (ev):

   -33.0966   3.3629   3.6531   5.3576   6.3903   8.5274   9.6735  11.8886
    13.8564  15.4023  17.4036  17.8177

          k =-0.7276 0.4201 0.1493 (  3383 PWs)   bands (ev):

   -33.1643  -2.3071   0.0646   3.4134   7.3183  11.2168  13.3777  15.0169
    17.3350  18.5364  19.4705  20.3146

          k = 1.4551 1.6802-0.0747 (  3370 PWs)   bands (ev):

   -33.0967   1.6041   3.8978   6.9529   9.2141   9.4646  10.4798  11.2342
    12.1112  14.0063  14.8457  16.3316

          k = 0.7276 1.2602 0.0000 (  3373 PWs)   bands (ev):

   -33.0967   1.5994   3.9334   6.8250   9.2286   9.4151  10.8161  11.3043
    12.0648  13.8666  15.0079  15.5234

          k = 1.4551-0.8401-0.2987 (  3370 PWs)   bands (ev):

   -33.0966   3.3616   3.6703   5.3112   6.3274   9.0879   9.3673  11.7752
    12.9550  16.4973  17.7863  18.7273

          k =-0.0000-0.0000 0.2240 (  3403 PWs)   bands (ev):

   -33.2315  -4.2999  -1.9070   1.5544   5.3933  10.2700  15.1732  20.6712
    24.2489  24.2489  24.8163  24.8163

          k = 2.1827 1.2602 0.0000 (  3377 PWs)   bands (ev):

   -33.1643  -2.3059   0.0499   3.5040   7.0170  11.8845  13.5031  14.7014
    16.3779  18.3139  19.4853  21.4665

          k = 1.4551 0.8401 0.0747 (  3350 PWs)   bands (ev):

   -33.0966   3.3625   3.6612   5.3366   6.3524   8.7735   9.5412  11.8837
    13.2668  16.0740  17.8017  17.8200

          k = 2.1827-1.2602-0.2240 (  3370 PWs)   bands (ev):

   -33.1643  -2.3055   0.0447   3.5386   6.9171  12.1358  13.5690  14.6233
    15.9969  18.3778  19.4653  21.5926

          k = 1.4551-1.6802-0.1493 (  3368 PWs)   bands (ev):

   -33.0967   1.6088   3.8635   7.0911   9.1993   9.5602  10.0896  11.2332
    12.1333  13.9388  15.0493  17.0351

          k = 0.0000 0.0000-0.4480 (  3402 PWs)   bands (ev):

   -33.2315  -4.3008  -1.9100   1.6042   5.2006  10.9829  13.9853  22.7778
    24.2411  24.2412  24.6596  24.8140

     the Fermi energy is    12.3388 ev

!    total energy              =     -39.55223237 Ry
     estimated scf accuracy    <          1.2E-11 Ry
     smearing contrib. (-TS)   =       0.00250673 Ry
     internal energy E=F+TS    =     -39.55473910 Ry

     The total energy is F=E-TS. E is the sum of the following terms:
     one-electron contribution =       9.57123349 Ry
     hartree contribution      =       3.45863075 Ry
     xc contribution           =     -13.54889016 Ry
     ewald contribution        =     -39.03571318 Ry

     convergence has been achieved in  12 iterations

     Forces acting on atoms (cartesian axes, Ry/au):

     atom    1 type  1   force =    -0.00000000   -0.00000000   -0.00016338
     atom    2 type  1   force =     0.00000000    0.00000000   -0.00003211
     atom    3 type  1   force =    -0.00000000   -0.00000000    0.00021563
     atom    4 type  2   force =     0.00000000    0.00000000   -0.00002014
     The non-local contrib.  to forces
     atom    1 type  1   force =    -0.00000000   -0.00000000   -0.03028138
     atom    2 type  1   force =    -0.00000000    0.00000000    0.04875570
     atom    3 type  1   force =     0.00000000    0.00000000   -0.01257180
     atom    4 type  2   force =    -0.00000000    0.00000000   -0.01354093
     The ionic contribution  to forces
     atom    1 type  1   force =     0.00000000   -0.00000000    0.27857109
     atom    2 type  1   force =     0.00000000    0.00000000   -1.20918050
     atom    3 type  1   force =     0.00000000    0.00000000    1.75424474
     atom    4 type  2   force =    -0.00000000   -0.00000000   -0.82363533
     The local contribution  to forces
     atom    1 type  1   force =     0.00000000    0.00000000   -0.25045316
     atom    2 type  1   force =     0.00000000   -0.00000000    1.16047772
     atom    3 type  1   force =    -0.00000000   -0.00000000   -1.73855254
     atom    4 type  2   force =    -0.00000000    0.00000000    0.83715703
     The core correction contribution to forces
     atom    1 type  1   force =    -0.00000000    0.00000000    0.00200084
     atom    2 type  1   force =     0.00000000   -0.00000000   -0.00007825
     atom    3 type  1   force =    -0.00000000   -0.00000000   -0.00291057
     atom    4 type  2   force =     0.00000000    0.00000000    0.00000000
     The Hubbard contrib.    to forces
     atom    1 type  1   force =     0.00000000    0.00000000    0.00000000
     atom    2 type  1   force =     0.00000000    0.00000000    0.00000000
     atom    3 type  1   force =     0.00000000    0.00000000    0.00000000
     atom    4 type  2   force =     0.00000000    0.00000000    0.00000000
     The SCF correction term to forces
     atom    1 type  1   force =    -0.00000000   -0.00000000   -0.00000027
     atom    2 type  1   force =     0.00000000    0.00000000   -0.00000629
     atom    3 type  1   force =    -0.00000000    0.00000000    0.00000628
     atom    4 type  2   force =     0.00000000    0.00000000   -0.00000041

     Total force =     0.000273     Total SCF correction =     0.000009


     Computing stress (Cartesian axis) and pressure

          total   stress  (Ry/bohr**3)                   (kbar)     P=      499.97
   0.00339702   0.00000000  -0.00000000          499.72        0.00       -0.00
   0.00000000   0.00339702   0.00000000            0.00      499.72        0.00
   0.00000000   0.00000000   0.00340208            0.00        0.00      500.46


     Writing all to output data dir ./output/SiLi.save/

     init_run     :      1.78s CPU      2.15s WALL (       2 calls)
     electrons    :    116.24s CPU    128.09s WALL (      23 calls)
     update_pot   :      7.64s CPU      7.78s WALL (      21 calls)
     forces       :      4.80s CPU      4.94s WALL (      23 calls)
     stress       :     13.19s CPU     14.23s WALL (      23 calls)

     Called by init_run:
     wfcinit      :      0.45s CPU      0.56s WALL (       2 calls)
     potinit      :      0.37s CPU      0.45s WALL (       2 calls)
     hinit0       :      0.91s CPU      1.06s WALL (       2 calls)

     Called by electrons:
     c_bands      :     92.70s CPU    101.81s WALL (     225 calls)
     sum_band     :     16.13s CPU     17.66s WALL (     225 calls)
     v_of_rho     :      7.66s CPU      8.60s WALL (     246 calls)
     mix_rho      :      0.29s CPU      0.43s WALL (     225 calls)

     Called by c_bands:
     init_us_2    :      0.96s CPU      1.11s WALL (    6474 calls)
     init_us_2:cp :      0.95s CPU      1.11s WALL (    6474 calls)
     cegterg      :     90.09s CPU     97.74s WALL (    2925 calls)

     Called by *egterg:
     cdiaghg      :      1.92s CPU      2.07s WALL (   11578 calls)
     h_psi        :     86.05s CPU     93.48s WALL (   11903 calls)
     g_psi        :      0.11s CPU      0.12s WALL (    8952 calls)

     Called by h_psi:
     h_psi:calbec :      1.75s CPU      1.89s WALL (   11903 calls)
     vloc_psi     :     83.03s CPU     90.24s WALL (   11903 calls)
     add_vuspsi   :      1.16s CPU      1.23s WALL (   11903 calls)

     General routines
     calbec       :      2.11s CPU      2.26s WALL (   13398 calls)
     fft          :      3.12s CPU      4.37s WALL (    3035 calls)
     ffts         :      0.14s CPU      0.18s WALL (     225 calls)
     fftw         :     84.91s CPU     92.27s WALL (  227060 calls)

     Parallel routines

     PWSCF        :   2m23.98s CPU   2m37.99s WALL


   This run was terminated on:  11:55: 6  29Dec2024            

=------------------------------------------------------------------------------=
   JOB DONE.
=------------------------------------------------------------------------------=
