
     Program PWSCF v.7.2 starts on 29Dec2024 at 13: 4:54 

     This program is part of the open-source Quantum ESPRESSO suite
     for quantum simulation of materials; please cite
         "P. Giannozzi et al., J. Phys.:Condens. Matter 21 395502 (2009);
         "P. Giannozzi et al., J. Phys.:Condens. Matter 29 465901 (2017);
         "P. Giannozzi et al., J. Chem. Phys. 152 154105 (2020);
          URL http://www.quantum-espresso.org", 
     in publications or presentations arising from this work. More details at
     http://www.quantum-espresso.org/quote

     Parallel version (MPI & OpenMP), running on       8 processor cores
     Number of MPI processes:                 8
     Threads/MPI process:                     1

     MPI processes distributed on     1 nodes
     482170 MiB available memory on the printing compute node when the environment starts

     Waiting for input...
     Reading input from standard input

     Current dimensions of program PWSCF are:
     Max number of different atomic species (ntypx) = 10
     Max number of k-points (npk) =  40000
     Max angular momentum in pseudopotentials (lmaxx) =  4

     R & G space division:  proc/nbgrp/npool/nimage =       8
     Subspace diagonalization in iterative solution of the eigenvalue problem:
     a serial algorithm will be used


     Parallelization info
     --------------------
     sticks:   dense  smooth     PW     G-vecs:    dense   smooth      PW
     Min         160     160     47                 2324     2324     385
     Max         161     161     48                 2325     2325     388
     Sum        1285    1285    379                18597    18597    3089

     Using Slab Decomposition



     bravais-lattice index     =            4
     lattice parameter (alat)  =       7.6468  a.u.
     unit-cell volume          =     191.8014 (a.u.)^3
     number of atoms/cell      =            4
     number of atomic types    =            2
     number of electrons       =        13.00
     number of Kohn-Sham states=           11
     kinetic-energy cutoff     =      80.0000  Ry
     charge density cutoff     =     320.0000  Ry
     scf convergence threshold =      1.0E-08
     mixing beta               =       0.7000
     number of iterations used =            8  plain     mixing
     energy convergence thresh.=      1.0E-04
     force convergence thresh. =      1.0E-03
     press convergence thresh. =      1.0E+00
     Exchange-correlation= PBE
                           (   1   4   3   4   0   0   0)
     nstep                     =           50


     celldm(1)=   7.646756  celldm(2)=   0.000000  celldm(3)=   0.495324
     celldm(4)=   0.000000  celldm(5)=   0.000000  celldm(6)=   0.000000

     crystal axes: (cart. coord. in units of alat)
               a(1) = (   1.000000   0.000000   0.000000 )  
               a(2) = (  -0.500000   0.866025   0.000000 )  
               a(3) = (   0.000000   0.000000   0.495324 )  

     reciprocal axes: (cart. coord. in units 2 pi/alat)
               b(1) = (  1.000000  0.577350 -0.000000 )  
               b(2) = (  0.000000  1.154701  0.000000 )  
               b(3) = (  0.000000 -0.000000  2.018880 )  


     PseudoPot. # 1 for Si read from file:
     ../pseudo/Si_ONCV_PBE_sr.upf
     MD5 check sum: e543d271109d17c80368dfa7c482276d
     Pseudo is Norm-conserving + core correction, Zval =  4.0
     Generated using ONCVPSP code by D. R. Hamann
     Using radial grid of 1510 points,  6 beta functions with: 
                l(1) =   0
                l(2) =   0
                l(3) =   1
                l(4) =   1
                l(5) =   2
                l(6) =   2

     PseudoPot. # 2 for Li read from file:
     ../pseudo/Li_ONCV_PBE_sr.upf
     MD5 check sum: 50ff420e78310ffa21704f3361e624a4
     Pseudo is Norm-conserving, Zval =  3.0
     Generated using ONCVPSP code by D. R. Hamann
     Using radial grid of 1944 points,  4 beta functions with: 
                l(1) =   0
                l(2) =   0
                l(3) =   1
                l(4) =   1

     atomic species   valence    mass     pseudopotential
        Si             4.00    28.08550     Si( 1.00)
        Li             3.00     6.94100     Li( 1.00)

     24 Sym. Ops., with inversion, found



   Cartesian axes

     site n.     atom                  positions (alat units)
         1           Si  tau(   1) = (   0.0000000   0.0000000   0.0000000  )
         2           Li  tau(   2) = (  -0.2500000   0.4330127   0.2476621  )
         3           Li  tau(   3) = (   0.5000000   0.0000000   0.2476621  )
         4           Li  tau(   4) = (   0.2500000   0.4330127   0.2476621  )

     number of k points=    30  Marzari-Vanderbilt smearing, width (Ry)=  0.0200
                       cart. coord. in units 2pi/alat
        k(    1) = (   0.0000000   0.0000000   0.0000000), wk =   0.0072727
        k(    2) = (   0.0000000   0.0000000   0.1835345), wk =   0.0145455
        k(    3) = (   0.0000000   0.0000000   0.3670690), wk =   0.0145455
        k(    4) = (   0.0000000   0.0000000   0.5506036), wk =   0.0145455
        k(    5) = (   0.0000000   0.0000000   0.7341381), wk =   0.0145455
        k(    6) = (   0.0000000   0.0000000   0.9176726), wk =   0.0145455
        k(    7) = (   0.0000000   0.2309401   0.0000000), wk =   0.0436364
        k(    8) = (   0.0000000   0.2309401   0.1835345), wk =   0.0872727
        k(    9) = (   0.0000000   0.2309401   0.3670690), wk =   0.0872727
        k(   10) = (   0.0000000   0.2309401   0.5506036), wk =   0.0872727
        k(   11) = (   0.0000000   0.2309401   0.7341381), wk =   0.0872727
        k(   12) = (   0.0000000   0.2309401   0.9176726), wk =   0.0872727
        k(   13) = (   0.0000000   0.4618802   0.0000000), wk =   0.0436364
        k(   14) = (   0.0000000   0.4618802   0.1835345), wk =   0.0872727
        k(   15) = (   0.0000000   0.4618802   0.3670690), wk =   0.0872727
        k(   16) = (   0.0000000   0.4618802   0.5506036), wk =   0.0872727
        k(   17) = (   0.0000000   0.4618802   0.7341381), wk =   0.0872727
        k(   18) = (   0.0000000   0.4618802   0.9176726), wk =   0.0872727
        k(   19) = (   0.2000000   0.3464102   0.0000000), wk =   0.0436364
        k(   20) = (   0.2000000   0.3464102   0.1835345), wk =   0.0872727
        k(   21) = (   0.2000000   0.3464102   0.3670690), wk =   0.0872727
        k(   22) = (   0.2000000   0.3464102   0.5506036), wk =   0.0872727
        k(   23) = (   0.2000000   0.3464102   0.7341381), wk =   0.0872727
        k(   24) = (   0.2000000   0.3464102   0.9176726), wk =   0.0872727
        k(   25) = (   0.2000000   0.5773503   0.0000000), wk =   0.0436364
        k(   26) = (   0.2000000   0.5773503   0.1835345), wk =   0.0872727
        k(   27) = (   0.2000000   0.5773503   0.3670690), wk =   0.0872727
        k(   28) = (   0.2000000   0.5773503   0.5506036), wk =   0.0872727
        k(   29) = (   0.2000000   0.5773503   0.7341381), wk =   0.0872727
        k(   30) = (   0.2000000   0.5773503   0.9176726), wk =   0.0872727

     Dense  grid:    18597 G-vectors     FFT dimensions: (  45,  45,  24)

     Estimated max dynamical RAM per process >      14.86 MB

     Estimated total dynamical RAM >     118.85 MB

     Initial potential from superposition of free atoms

     starting charge      12.9857, renormalised to      13.0000
     Starting wfcs are   10 randomized atomic wfcs +    1 random wfcs

     total cpu time spent up to now is        0.6 secs

     Self-consistent Calculation

     iteration #  1     ecut=    80.00 Ry     beta= 0.70
     Davidson diagonalization with overlap
     ethr =  1.00E-02,  avg # of iterations =  6.1

     Threshold (ethr) on eigenvalues was too large:
     Diagonalizing with lowered threshold

     Davidson diagonalization with overlap
     ethr =  1.19E-04,  avg # of iterations =  3.2

     total cpu time spent up to now is        1.1 secs

     total energy              =     -51.31054244 Ry
     estimated scf accuracy    <       0.01532225 Ry

     iteration #  2     ecut=    80.00 Ry     beta= 0.70
     Davidson diagonalization with overlap
     ethr =  1.18E-04,  avg # of iterations =  1.1

     total cpu time spent up to now is        1.3 secs

     total energy              =     -51.31108274 Ry
     estimated scf accuracy    <       0.00201807 Ry

     iteration #  3     ecut=    80.00 Ry     beta= 0.70
     Davidson diagonalization with overlap
     ethr =  1.55E-05,  avg # of iterations =  2.2

     total cpu time spent up to now is        1.6 secs

     total energy              =     -51.31139968 Ry
     estimated scf accuracy    <       0.00053377 Ry

     iteration #  4     ecut=    80.00 Ry     beta= 0.70
     Davidson diagonalization with overlap
     ethr =  4.11E-06,  avg # of iterations =  2.2

     total cpu time spent up to now is        1.8 secs

     total energy              =     -51.31149256 Ry
     estimated scf accuracy    <       0.00000174 Ry

     iteration #  5     ecut=    80.00 Ry     beta= 0.70
     Davidson diagonalization with overlap
     ethr =  1.34E-08,  avg # of iterations =  2.3

     total cpu time spent up to now is        2.0 secs

     total energy              =     -51.31149297 Ry
     estimated scf accuracy    <       0.00000003 Ry

     iteration #  6     ecut=    80.00 Ry     beta= 0.70
     Davidson diagonalization with overlap
     ethr =  2.58E-10,  avg # of iterations =  2.7

     total cpu time spent up to now is        2.2 secs

     End of self-consistent calculation

          k = 0.0000 0.0000 0.0000 (  2339 PWs)   bands (ev):

   -35.9321 -35.3823 -35.3823  -1.8633   5.2854   5.2854   9.1189  11.7617
    15.7588  15.7588  26.0856

          k = 0.0000 0.0000 0.1835 (  2309 PWs)   bands (ev):

   -35.8996 -35.3574 -35.3574  -1.6162   5.5669   5.5669   9.4205  11.6812
    15.8300  15.8300  24.0884

          k = 0.0000 0.0000 0.3671 (  2303 PWs)   bands (ev):

   -35.8117 -35.2901 -35.2901  -0.8839   6.4112   6.4112  10.3219  11.2933
    15.9960  15.9960  21.2133

          k = 0.0000 0.0000 0.5506 (  2297 PWs)   bands (ev):

   -35.6953 -35.2012 -35.2012   0.3064   7.8166   7.8166  10.2185  11.8089
    16.1382  16.1382  19.2496

          k = 0.0000 0.0000 0.7341 (  2291 PWs)   bands (ev):

   -35.5868 -35.1187 -35.1187   1.9112   8.3355   9.7759   9.7759  13.8286
    16.1646  16.1646  18.5622

          k = 0.0000 0.0000 0.9177 (  2320 PWs)   bands (ev):

   -35.5217 -35.0692 -35.0692   3.8658   6.0831  12.2196  12.2196  15.6607
    15.6607  16.1207  16.1221

          k = 0.0000 0.2309 0.0000 (  2333 PWs)   bands (ev):

   -35.8863 -35.4293 -35.3832  -1.9467   5.0870   5.4409   8.8887  12.7161
    15.5159  16.9307  23.2984

          k = 0.0000 0.2309 0.1835 (  2318 PWs)   bands (ev):

   -35.8544 -35.4037 -35.3582  -1.6885   5.3185   5.7135   9.1617  12.6915
    15.6658  17.0426  22.6986

          k = 0.0000 0.2309 0.3671 (  2303 PWs)   bands (ev):

   -35.7683 -35.3347 -35.2909  -0.9236   5.9965   6.5299   9.9631  12.4609
    16.0542  17.3003  20.7911

          k = 0.0000 0.2309 0.5506 (  2322 PWs)   bands (ev):

   -35.6542 -35.2434 -35.2019   0.3185   7.0248   7.8843  11.0495  11.8080
    16.4653  17.4467  19.0100

          k = 0.0000 0.2309 0.7341 (  2318 PWs)   bands (ev):

   -35.5480 -35.1586 -35.1193   1.9858   7.6794   9.7615  10.4549  13.0919
    16.3945  16.7565  17.9491

          k = 0.0000 0.2309 0.9177 (  2308 PWs)   bands (ev):

   -35.4842 -35.1079 -35.0698   3.9837   6.1987  11.5255  12.1139  14.0646
    14.7197  15.4452  17.1551

          k = 0.0000 0.4619 0.0000 (  2321 PWs)   bands (ev):

   -35.7787 -35.5387 -35.3845  -2.0793   4.8127   5.7108   8.6503  14.9311
    15.0905  17.9566  21.9067

          k = 0.0000 0.4619 0.1835 (  2332 PWs)   bands (ev):

   -35.7484 -35.5115 -35.3595  -1.8046   4.9897   5.9662   8.8822  15.0404
    15.3723  18.0409  21.6940

          k = 0.0000 0.4619 0.3671 (  2331 PWs)   bands (ev):

   -35.6665 -35.4383 -35.2921  -0.9897   5.5085   6.7296   9.5453  15.0730
    16.1987  18.0900  20.9585

          k = 0.0000 0.4619 0.5506 (  2318 PWs)   bands (ev):

   -35.5580 -35.3415 -35.2030   0.3354   6.3187   7.9912  10.4335  14.0391
    17.4303  18.0648  19.4484

          k = 0.0000 0.4619 0.7341 (  2311 PWs)   bands (ev):

   -35.4570 -35.2515 -35.1203   2.1032   7.2320   9.7262  10.1698  13.3908
    16.3090  17.2613  19.2472

          k = 0.0000 0.4619 0.9177 (  2304 PWs)   bands (ev):

   -35.3965 -35.1975 -35.0707   4.0689   7.1010   9.0785  11.8304  14.4182
    14.7415  14.8063  17.7834

          k = 0.2000 0.3464 0.0000 (  2327 PWs)   bands (ev):

   -35.8059 -35.5105 -35.3850  -2.0542   4.9488   5.4689   9.0664  13.0722
    15.9828  18.9161  21.0786

          k = 0.2000 0.3464 0.1835 (  2321 PWs)   bands (ev):

   -35.7751 -35.4838 -35.3599  -1.7826   5.1413   5.7105   9.3348  13.2108
    16.0972  19.0844  20.8930

          k = 0.2000 0.3464 0.3671 (  2328 PWs)   bands (ev):

   -35.6921 -35.4118 -35.2925  -0.9770   5.7035   6.4278  10.1333  13.4219
    16.3145  19.4290  20.0616

          k = 0.2000 0.3464 0.5506 (  2319 PWs)   bands (ev):

   -35.5822 -35.3165 -35.2032   0.3320   6.5654   7.5938  11.4328  12.7725
    16.6072  18.7387  19.0950

          k = 0.2000 0.3464 0.7341 (  2307 PWs)   bands (ev):

   -35.4799 -35.2280 -35.1204   2.0796   7.3869   9.1343  11.0169  13.1134
    16.4812  17.3154  17.4209

          k = 0.2000 0.3464 0.9177 (  2313 PWs)   bands (ev):

   -35.4184 -35.1749 -35.0708   4.0602   6.7440  10.4563  10.7412  14.0350
    14.4645  16.5374  18.1829

          k = 0.2000 0.5774 0.0000 (  2341 PWs)   bands (ev):

   -35.7138 -35.6028 -35.3863  -2.1198   4.9007   5.3970   9.5979  12.4191
    17.3154  19.0218  22.3339

          k = 0.2000 0.5774 0.1835 (  2332 PWs)   bands (ev):

   -35.6844 -35.5749 -35.3612  -1.8403   5.0780   5.6133   9.8579  12.7019
    17.1928  19.2957  22.4598

          k = 0.2000 0.5774 0.3671 (  2336 PWs)   bands (ev):

   -35.6049 -35.4994 -35.2936  -1.0106   5.5998   6.2526  10.6211  13.5419
    16.3960  20.0800  22.5884

          k = 0.2000 0.5774 0.5506 (  2319 PWs)   bands (ev):

   -35.4997 -35.3994 -35.2042   0.3389   6.4268   7.2773  11.7495  14.3916
    14.8886  19.4189  20.0612

          k = 0.2000 0.5774 0.7341 (  2305 PWs)   bands (ev):

   -35.4019 -35.3066 -35.1212   2.1336   7.4498   8.5398  11.0462  13.9401
    15.9061  17.3068  17.6637

          k = 0.2000 0.5774 0.9177 (  2306 PWs)   bands (ev):

   -35.3432 -35.2509 -35.0715   4.0606   8.2067   8.3270  10.2335  14.4058
    14.6215  16.7805  19.0708

     the Fermi energy is    10.4858 ev

!    total energy              =     -51.31149298 Ry
     estimated scf accuracy    <          3.3E-10 Ry
     smearing contrib. (-TS)   =      -0.00007974 Ry
     internal energy E=F+TS    =     -51.31141324 Ry

     The total energy is F=E-TS. E is the sum of the following terms:
     one-electron contribution =     -11.58487420 Ry
     hartree contribution      =       8.11068545 Ry
     xc contribution           =     -14.12225496 Ry
     ewald contribution        =     -33.71496952 Ry

     convergence has been achieved in   6 iterations

     Forces acting on atoms (cartesian axes, Ry/au):

     atom    1 type  1   force =     0.00000000    0.00000000   -0.00000000
     atom    2 type  2   force =     0.00000000    0.00000000   -0.00000000
     atom    3 type  2   force =     0.00000000    0.00000000    0.00000000
     atom    4 type  2   force =    -0.00000000   -0.00000000    0.00000000
     The non-local contrib.  to forces
     atom    1 type  1   force =     0.00000000    0.00000000   -0.00000000
     atom    2 type  2   force =    -0.00000000    0.00000000    0.00000000
     atom    3 type  2   force =     0.00000000    0.00000000    0.00000000
     atom    4 type  2   force =     0.00000000    0.00000000    0.00000000
     The ionic contribution  to forces
     atom    1 type  1   force =    -0.00000000   -0.00000000   -0.00000000
     atom    2 type  2   force =    -0.00000000    0.00000000   -0.00000000
     atom    3 type  2   force =     0.00000000    0.00000000   -0.00000000
     atom    4 type  2   force =     0.00000000    0.00000000   -0.00000000
     The local contribution  to forces
     atom    1 type  1   force =    -0.00000000   -0.00000000    0.00000000
     atom    2 type  2   force =    -0.00000000    0.00000000    0.00000000
     atom    3 type  2   force =     0.00000000   -0.00000000    0.00000000
     atom    4 type  2   force =     0.00000000    0.00000000    0.00000000
     The core correction contribution to forces
     atom    1 type  1   force =     0.00000000    0.00000000   -0.00000000
     atom    2 type  2   force =     0.00000000    0.00000000    0.00000000
     atom    3 type  2   force =     0.00000000    0.00000000    0.00000000
     atom    4 type  2   force =     0.00000000    0.00000000    0.00000000
     The Hubbard contrib.    to forces
     atom    1 type  1   force =     0.00000000    0.00000000    0.00000000
     atom    2 type  2   force =     0.00000000    0.00000000    0.00000000
     atom    3 type  2   force =     0.00000000    0.00000000    0.00000000
     atom    4 type  2   force =     0.00000000    0.00000000    0.00000000
     The SCF correction term to forces
     atom    1 type  1   force =    -0.00000000   -0.00000000   -0.00000000
     atom    2 type  2   force =     0.00000000   -0.00000000    0.00000000
     atom    3 type  2   force =    -0.00000000    0.00000000    0.00000000
     atom    4 type  2   force =     0.00000000   -0.00000000    0.00000000

     Total force =     0.000000     Total SCF correction =     0.000000


     Computing stress (Cartesian axis) and pressure

          total   stress  (Ry/bohr**3)                   (kbar)     P=     1020.29
   0.00603071  -0.00000000   0.00000000          887.15       -0.00        0.00
  -0.00000000   0.00603071   0.00000000           -0.00      887.15        0.00
   0.00000000   0.00000000   0.00874600            0.00        0.00     1286.58


     BFGS Geometry Optimization
     Energy error            =      0.0E+00 Ry
     Gradient error          =      1.7E-32 Ry/Bohr
     Cell gradient error     =      7.9E+02 kbar

     number of scf cycles    =   1
     number of bfgs steps    =   0

     enthalpy           new  =     -50.6595732228 Ry

     new trust radius        =       0.3702639700 bohr
ibrav =      4
 celldm(1) =      8.14987078
 celldm(3) =      0.52687214
Input lattice vectors:
     1.06579460    -0.00000000     0.00000000
    -0.53289730     0.92300520     0.00000000
     0.00000000     0.00000000     0.56153748
New lattice vectors in INITIAL alat:
     1.06579460     0.00000000     0.00000000
    -0.53289730     0.92300520     0.00000000
     0.00000000     0.00000000     0.56153748
New lattice vectors in NEW alat (for information only):
     1.00000000     0.00000000     0.00000000
    -0.50000000     0.86602540     0.00000000
     0.00000000     0.00000000     0.52687214
Discrepancy in bohr =     0.000000    0.000000    0.000000
     new conv_thr            =       0.0000000100 Ry

     new unit-cell volume =    246.99493 a.u.^3 (    36.60087 Ang^3 )
     density =      2.21892 g/cm^3

CELL_PARAMETERS (alat=  7.64675557)
   1.065794597   0.000000000   0.000000000
  -0.532897299   0.923005196   0.000000000
   0.000000000   0.000000000   0.561537483

ATOMIC_POSITIONS (crystal)
Si            0.0000000000        0.0000000000       -0.0000000000
Li            0.0000000000        0.5000000000        0.5000000000
Li            0.5000000000        0.0000000000        0.5000000000
Li            0.5000000000        0.5000000000        0.5000000000



     Writing config-only to output data dir ./output/SiLi.save/
     NEW-OLD atomic charge density approx. for the potential
     extrapolated charge   15.90179, renormalised to   13.00000

     total cpu time spent up to now is        3.0 secs

     Self-consistent Calculation

     iteration #  1     ecut=    80.00 Ry     beta= 0.70
     Davidson diagonalization with overlap
     ethr =  1.00E-06,  avg # of iterations =  8.8

     total cpu time spent up to now is        3.6 secs

     total energy              =     -51.46699491 Ry
     estimated scf accuracy    <       0.03165643 Ry

     iteration #  2     ecut=    80.00 Ry     beta= 0.70
     Davidson diagonalization with overlap
     ethr =  2.44E-04,  avg # of iterations =  2.9

     total cpu time spent up to now is        3.9 secs

     total energy              =     -51.56648429 Ry
     estimated scf accuracy    <       0.06790343 Ry

     iteration #  3     ecut=    80.00 Ry     beta= 0.70
     Davidson diagonalization with overlap
     ethr =  2.44E-04,  avg # of iterations =  1.9

     total cpu time spent up to now is        4.2 secs

     total energy              =     -51.57137476 Ry
     estimated scf accuracy    <       0.00905472 Ry

     iteration #  4     ecut=    80.00 Ry     beta= 0.70
     Davidson diagonalization with overlap
     ethr =  6.97E-05,  avg # of iterations =  1.0

     total cpu time spent up to now is        4.5 secs

     total energy              =     -51.56735374 Ry
     estimated scf accuracy    <       0.00646186 Ry

     iteration #  5     ecut=    80.00 Ry     beta= 0.70
     Davidson diagonalization with overlap
     ethr =  4.97E-05,  avg # of iterations =  1.9

     total cpu time spent up to now is        4.7 secs

     total energy              =     -51.56814370 Ry
     estimated scf accuracy    <       0.00001067 Ry

     iteration #  6     ecut=    80.00 Ry     beta= 0.70
     Davidson diagonalization with overlap
     ethr =  8.21E-08,  avg # of iterations =  3.5

     total cpu time spent up to now is        5.1 secs

     total energy              =     -51.56814697 Ry
     estimated scf accuracy    <       0.00001650 Ry

     iteration #  7     ecut=    80.00 Ry     beta= 0.70
     Davidson diagonalization with overlap
     ethr =  8.21E-08,  avg # of iterations =  1.7

     total cpu time spent up to now is        5.3 secs

     total energy              =     -51.56814833 Ry
     estimated scf accuracy    <       0.00000032 Ry

     iteration #  8     ecut=    80.00 Ry     beta= 0.70
     Davidson diagonalization with overlap
     ethr =  2.43E-09,  avg # of iterations =  2.1

     total cpu time spent up to now is        5.7 secs

     End of self-consistent calculation

          k = 0.0000 0.0000 0.0000 (  2339 PWs)   bands (ev):

   -38.3681 -38.0583 -38.0583  -3.1944   3.9053   3.9053   7.1473   8.5700
    12.5252  12.5252  21.5498

          k = 0.0000 0.0000 0.1619 (  2309 PWs)   bands (ev):

   -38.3561 -38.0494 -38.0494  -2.9931   4.1290   4.1290   7.3783   8.5429
    12.5746  12.5746  17.8813

          k = 0.0000 0.0000 0.3238 (  2303 PWs)   bands (ev):

   -38.3247 -38.0248 -38.0248  -2.3936   4.8003   4.8003   8.0673   8.3147
    12.6970  12.6970  15.0984

          k = 0.0000 0.0000 0.4857 (  2297 PWs)   bands (ev):

   -38.2829 -37.9932 -37.9932  -1.4095   5.9189   5.9189   7.4206   9.1971
    12.8267  12.8267  13.4149

          k = 0.0000 0.0000 0.6476 (  2291 PWs)   bands (ev):

   -38.2448 -37.9636 -37.9636  -0.0669   5.6800   7.4843   7.4843  10.7058
    12.9050  12.9050  13.0526

          k = 0.0000 0.0000 0.8095 (  2320 PWs)   bands (ev):

   -38.2219 -37.9465 -37.9465   1.5627   3.6787   9.4942   9.4942  11.9517
    11.9517  12.2693  12.9282

          k = 0.0000 0.2167 0.0000 (  2333 PWs)   bands (ev):

   -38.3420 -38.0846 -38.0589  -3.1801   3.4010   3.9761   6.8185   9.6660
    12.5977  13.7927  19.4442

          k = 0.0000 0.2167 0.1619 (  2318 PWs)   bands (ev):

   -38.3305 -38.0755 -38.0498  -2.9720   3.5841   4.1925   7.0266   9.6804
    12.6991  13.8588  17.6835

          k = 0.0000 0.2167 0.3238 (  2303 PWs)   bands (ev):

   -38.2998 -38.0504 -38.0252  -2.3524   4.1190   4.8402   7.6338   9.5609
    12.9609  13.9788  15.1159

          k = 0.0000 0.2167 0.4857 (  2322 PWs)   bands (ev):

   -38.2591 -38.0179 -37.9936  -1.3352   4.9177   5.9145   8.3124   9.0391
    13.2337  13.5466  14.0102

          k = 0.0000 0.2167 0.6476 (  2318 PWs)   bands (ev):

   -38.2214 -37.9877 -37.9642   0.0539   5.2631   7.4009   7.5293  10.1074
    12.9022  13.0927  13.5339

          k = 0.0000 0.2167 0.8095 (  2308 PWs)   bands (ev):

   -38.1988 -37.9698 -37.9466   1.7631   3.7208   8.3002   9.2326  11.0998
    11.5574  11.7440  13.1239

          k = 0.0000 0.4334 0.0000 (  2321 PWs)   bands (ev):

   -38.2816 -38.1457 -38.0593  -3.1555   2.7805   4.0936   6.4520  11.9843
    12.7391  15.1012  18.0500

          k = 0.0000 0.4334 0.1619 (  2332 PWs)   bands (ev):

   -38.2707 -38.1360 -38.0502  -2.9360   2.9293   4.2968   6.6315  12.0787
    12.9515  15.0395  17.6440

          k = 0.0000 0.4334 0.3238 (  2331 PWs)   bands (ev):

   -38.2415 -38.1097 -38.0259  -2.2815   3.3666   4.9040   7.1450  11.9882
    13.5671  14.3549  16.7651

          k = 0.0000 0.4334 0.4857 (  2318 PWs)   bands (ev):

   -38.2025 -38.0750 -37.9940  -1.2047   4.0526   5.9047   7.7955  10.4413
    14.2437  14.4142  15.0283

          k = 0.0000 0.4334 0.6476 (  2311 PWs)   bands (ev):

   -38.1666 -38.0430 -37.9645   0.2677   4.8221   7.0150   7.2676   9.9376
    12.6578  13.7491  14.8191

          k = 0.0000 0.4334 0.8095 (  2304 PWs)   bands (ev):

   -38.1453 -38.0240 -37.9470   2.0515   4.2813   6.0963   8.8222  11.0475
    11.2300  11.7399  13.5086

          k = 0.1877 0.3250 0.0000 (  2327 PWs)   bands (ev):

   -38.2967 -38.1302 -38.0595  -3.1603   3.0156   3.7619   7.0296  10.3086
    13.3400  15.7633  17.3906

          k = 0.1877 0.3250 0.1619 (  2321 PWs)   bands (ev):

   -38.2856 -38.1206 -38.0503  -2.9431   3.1738   3.9525   7.2426  10.4090
    13.4236  15.8456  16.8838

          k = 0.1877 0.3250 0.3238 (  2328 PWs)   bands (ev):

   -38.2560 -38.0947 -38.0259  -2.2956   3.6368   4.5188   7.8787  10.5141
    13.3260  15.4340  15.8983

          k = 0.1877 0.3250 0.4857 (  2319 PWs)   bands (ev):

   -38.2167 -38.0606 -37.9940  -1.2314   4.3475   5.4391   8.9256   9.5401
    12.9304  14.6952  15.1397

          k = 0.1877 0.3250 0.6476 (  2307 PWs)   bands (ev):

   -38.1803 -38.0292 -37.9644   0.2229   4.9902   6.6497   7.5855  10.3378
    12.8266  13.3871  13.5077

          k = 0.1877 0.3250 0.8095 (  2313 PWs)   bands (ev):

   -38.1586 -38.0104 -37.9472   1.9993   4.0430   7.1169   7.8747  11.2375
    11.2709  12.5665  14.1676

          k = 0.1877 0.5417 0.0000 (  2341 PWs)   bands (ev):

   -38.2450 -38.1821 -38.0601  -3.1474   2.8479   3.5319   7.5083  10.1633
    14.3319  15.9787  18.8434

          k = 0.1877 0.5417 0.1619 (  2332 PWs)   bands (ev):

   -38.2344 -38.1719 -38.0508  -2.9243   2.9972   3.7056   7.7139  10.3852
    14.1152  16.1968  18.7009

          k = 0.1877 0.5417 0.3238 (  2336 PWs)   bands (ev):

   -38.2060 -38.1449 -38.0264  -2.2588   3.4370   4.2193   8.3173  11.0481
    12.8672  16.8398  17.6456

          k = 0.1877 0.5417 0.4857 (  2319 PWs)   bands (ev):

   -38.1683 -38.1091 -37.9943  -1.1633   4.1366   5.0427   9.1277  10.5688
    12.1352  15.0989  15.6759

          k = 0.1877 0.5417 0.6476 (  2305 PWs)   bands (ev):

   -38.1335 -38.0760 -37.9648   0.3333   5.0041   6.0281   7.4804  10.9321
    12.6660  13.3401  13.8006

          k = 0.1877 0.5417 0.8095 (  2306 PWs)   bands (ev):

   -38.1129 -38.0565 -37.9474   2.1055   4.8510   5.7464   7.2703  11.2714
    11.4440  12.8592  14.8256

     the Fermi energy is     7.6928 ev

!    total energy              =     -51.56814840 Ry
     estimated scf accuracy    <          2.3E-10 Ry
     smearing contrib. (-TS)   =       0.00029474 Ry
     internal energy E=F+TS    =     -51.56844314 Ry

     The total energy is F=E-TS. E is the sum of the following terms:
     one-electron contribution =     -15.55940011 Ry
     hartree contribution      =       8.73691412 Ry
     xc contribution           =     -13.75562142 Ry
     ewald contribution        =     -30.99033573 Ry

     convergence has been achieved in   8 iterations

     Forces acting on atoms (cartesian axes, Ry/au):

     atom    1 type  1   force =     0.00000000   -0.00000000    0.00000000
     atom    2 type  2   force =     0.00000000   -0.00000000   -0.00000000
     atom    3 type  2   force =     0.00000000   -0.00000000    0.00000000
     atom    4 type  2   force =     0.00000000   -0.00000000   -0.00000000
     The non-local contrib.  to forces
     atom    1 type  1   force =     0.00000000    0.00000000    0.00000000
     atom    2 type  2   force =     0.00000000   -0.00000000   -0.00000000
     atom    3 type  2   force =     0.00000000    0.00000000    0.00000000
     atom    4 type  2   force =     0.00000000    0.00000000   -0.00000000
     The ionic contribution  to forces
     atom    1 type  1   force =    -0.00000000   -0.00000000   -0.00000000
     atom    2 type  2   force =    -0.00000000    0.00000000    0.00000000
     atom    3 type  2   force =     0.00000000   -0.00000000    0.00000000
     atom    4 type  2   force =     0.00000000    0.00000000    0.00000000
     The local contribution  to forces
     atom    1 type  1   force =    -0.00000000   -0.00000000   -0.00000000
     atom    2 type  2   force =    -0.00000000    0.00000000    0.00000000
     atom    3 type  2   force =     0.00000000   -0.00000000    0.00000000
     atom    4 type  2   force =     0.00000000    0.00000000    0.00000000
     The core correction contribution to forces
     atom    1 type  1   force =     0.00000000    0.00000000    0.00000000
     atom    2 type  2   force =     0.00000000    0.00000000    0.00000000
     atom    3 type  2   force =     0.00000000    0.00000000    0.00000000
     atom    4 type  2   force =     0.00000000    0.00000000    0.00000000
     The Hubbard contrib.    to forces
     atom    1 type  1   force =     0.00000000    0.00000000    0.00000000
     atom    2 type  2   force =     0.00000000    0.00000000    0.00000000
     atom    3 type  2   force =     0.00000000    0.00000000    0.00000000
     atom    4 type  2   force =     0.00000000    0.00000000    0.00000000
     The SCF correction term to forces
     atom    1 type  1   force =     0.00000000    0.00000000   -0.00000000
     atom    2 type  2   force =    -0.00000000    0.00000000   -0.00000000
     atom    3 type  2   force =    -0.00000000   -0.00000000    0.00000000
     atom    4 type  2   force =    -0.00000000    0.00000000   -0.00000000

     Total force =     0.000000     Total SCF correction =     0.000000


     Computing stress (Cartesian axis) and pressure

          total   stress  (Ry/bohr**3)                   (kbar)     P=      400.82
   0.00266124  -0.00000000   0.00000000          391.48       -0.00        0.00
  -0.00000000   0.00266124   0.00000000           -0.00      391.48        0.00
   0.00000000   0.00000000   0.00285161            0.00        0.00      419.49

     Energy error            =      6.9E-02 Ry
     Gradient error          =      1.4E-31 Ry/Bohr
     Cell gradient error     =      1.1E+02 kbar

     number of scf cycles    =   2
     number of bfgs steps    =   1

     enthalpy           old  =     -50.6595732228 Ry
     enthalpy           new  =     -50.7286296980 Ry

     CASE: enthalpy          _new < enthalpy          _old

     new trust radius        =       0.0537845055 bohr
ibrav =      4
 celldm(1) =      8.01041584
 celldm(3) =      0.53034913
Input lattice vectors:
     1.04755746    -0.00000000     0.00000000
    -0.52377873     0.90721137     0.00000000
     0.00000000     0.00000000     0.55557119
New lattice vectors in INITIAL alat:
     1.04755746     0.00000000     0.00000000
    -0.52377873     0.90721137     0.00000000
     0.00000000     0.00000000     0.55557119
New lattice vectors in NEW alat (for information only):
     1.00000000     0.00000000     0.00000000
    -0.50000000     0.86602540     0.00000000
     0.00000000     0.00000000     0.53034913
Discrepancy in bohr =     0.000000    0.000000    0.000000
     new conv_thr            =            1.0E-10 Ry

     new unit-cell volume =    236.07918 a.u.^3 (    34.98332 Ang^3 )
     density =      2.32152 g/cm^3

CELL_PARAMETERS (alat=  7.64675557)
   1.047557459   0.000000000   0.000000000
  -0.523778730   0.907211372   0.000000000
   0.000000000   0.000000000   0.555571189

ATOMIC_POSITIONS (crystal)
Si            0.0000000000       -0.0000000000        0.0000000000
Li            0.0000000000        0.5000000000        0.5000000000
Li            0.5000000000       -0.0000000000        0.5000000000
Li            0.5000000000        0.5000000000        0.5000000000



     Writing config-only to output data dir ./output/SiLi.save/
     NEW-OLD atomic charge density approx. for the potential
     extrapolated charge   12.39957, renormalised to   13.00000

     total cpu time spent up to now is        6.4 secs

     Self-consistent Calculation

     iteration #  1     ecut=    80.00 Ry     beta= 0.70
     Davidson diagonalization with overlap
     ethr =  1.00E-06,  avg # of iterations =  5.9

     total cpu time spent up to now is        6.9 secs

     total energy              =     -51.53149561 Ry
     estimated scf accuracy    <       0.00147181 Ry

     iteration #  2     ecut=    80.00 Ry     beta= 0.70
     Davidson diagonalization with overlap
     ethr =  1.13E-05,  avg # of iterations =  2.5

     total cpu time spent up to now is        7.2 secs

     total energy              =     -51.53556065 Ry
     estimated scf accuracy    <       0.00236510 Ry

     iteration #  3     ecut=    80.00 Ry     beta= 0.70
     Davidson diagonalization with overlap
     ethr =  1.13E-05,  avg # of iterations =  1.8

     total cpu time spent up to now is        7.5 secs

     total energy              =     -51.53574459 Ry
     estimated scf accuracy    <       0.00024332 Ry

     iteration #  4     ecut=    80.00 Ry     beta= 0.70
     Davidson diagonalization with overlap
     ethr =  1.87E-06,  avg # of iterations =  1.0

     total cpu time spent up to now is        7.8 secs

     total energy              =     -51.53567495 Ry
     estimated scf accuracy    <       0.00012414 Ry

     iteration #  5     ecut=    80.00 Ry     beta= 0.70
     Davidson diagonalization with overlap
     ethr =  9.55E-07,  avg # of iterations =  1.4

     total cpu time spent up to now is        8.1 secs

     total energy              =     -51.53569182 Ry
     estimated scf accuracy    <       0.00000010 Ry

     iteration #  6     ecut=    80.00 Ry     beta= 0.70
     Davidson diagonalization with overlap
     ethr =  7.56E-10,  avg # of iterations =  3.8

     total cpu time spent up to now is        8.4 secs

     total energy              =     -51.53569213 Ry
     estimated scf accuracy    <       0.00000002 Ry

     iteration #  7     ecut=    80.00 Ry     beta= 0.70
     Davidson diagonalization with overlap
     ethr =  1.47E-10,  avg # of iterations =  1.7

     total cpu time spent up to now is        8.7 secs

     total energy              =     -51.53569213 Ry
     estimated scf accuracy    <          1.5E-09 Ry

     iteration #  8     ecut=    80.00 Ry     beta= 0.70
     Davidson diagonalization with overlap
     ethr =  1.19E-11,  avg # of iterations =  2.0

     total cpu time spent up to now is        9.0 secs

     total energy              =     -51.53569213 Ry
     estimated scf accuracy    <          2.9E-09 Ry

     iteration #  9     ecut=    80.00 Ry     beta= 0.70
     Davidson diagonalization with overlap
     ethr =  1.19E-11,  avg # of iterations =  2.0

     total cpu time spent up to now is        9.3 secs

     End of self-consistent calculation

          k = 0.0000 0.0000 0.0000 (  2339 PWs)   bands (ev):

   -37.9652 -37.6070 -37.6070  -2.9084   4.2419   4.2419   7.5498   9.1811
    13.1506  13.1506  22.3221

          k = 0.0000 0.0000 0.1636 (  2309 PWs)   bands (ev):

   -37.9519 -37.5972 -37.5972  -2.7056   4.4698   4.4698   7.7858   9.1286
    13.1947  13.1947  18.6009

          k = 0.0000 0.0000 0.3273 (  2303 PWs)   bands (ev):

   -37.9169 -37.5704 -37.5704  -2.1023   5.1538   5.1538   8.4894   8.8157
    13.3002  13.3002  15.8694

          k = 0.0000 0.0000 0.4909 (  2297 PWs)   bands (ev):

   -37.8704 -37.5356 -37.5356  -1.1130   6.2935   6.2935   7.8057   9.6428
    13.4023  13.4023  14.2681

          k = 0.0000 0.0000 0.6545 (  2291 PWs)   bands (ev):

   -37.8277 -37.5032 -37.5032   0.2342   6.0125   7.8883   7.8883  11.1824
    13.4496  13.4496  13.9284

          k = 0.0000 0.0000 0.8182 (  2320 PWs)   bands (ev):

   -37.8022 -37.4843 -37.4843   1.8619   4.0065   9.9327   9.9327  12.4547
    12.4547  12.7753  13.4520

          k = 0.0000 0.2205 0.0000 (  2333 PWs)   bands (ev):

   -37.9351 -37.6374 -37.6076  -2.9023   3.7525   4.3242   7.2280  10.2911
    13.2000  14.4347  20.2664

          k = 0.0000 0.2205 0.1636 (  2318 PWs)   bands (ev):

   -37.9223 -37.6274 -37.5977  -2.6921   3.9371   4.5444   7.4401  10.2829
    13.2996  14.4949  18.4055

          k = 0.0000 0.2205 0.3273 (  2303 PWs)   bands (ev):

   -37.8880 -37.5999 -37.5708  -2.0662   4.4750   5.2037   8.0587  10.0829
    13.5535  14.5950  15.8785

          k = 0.0000 0.2205 0.4909 (  2322 PWs)   bands (ev):

   -37.8427 -37.5641 -37.5361  -1.0400   5.2703   6.2972   8.7376   9.4837
    13.8036  14.3412  14.6118

          k = 0.0000 0.2205 0.6545 (  2318 PWs)   bands (ev):

   -37.8007 -37.5310 -37.5037   0.3587   5.5770   7.8112   7.9767  10.5777
    13.4722  13.6043  14.2154

          k = 0.0000 0.2205 0.8182 (  2308 PWs)   bands (ev):

   -37.7756 -37.5112 -37.4845   2.0743   4.0364   8.7726   9.6853  11.5391
    12.0034  12.2835  13.6903

          k = 0.0000 0.4409 0.0000 (  2321 PWs)   bands (ev):

   -37.8652 -37.7082 -37.6082  -2.8920   3.1456   4.4613   6.8714  12.6537
    13.2973  15.7991  18.8368

          k = 0.0000 0.4409 0.1636 (  2332 PWs)   bands (ev):

   -37.8531 -37.6974 -37.5982  -2.6690   3.2927   4.6676   7.0528  12.7342
    13.5139  15.7144  18.3850

          k = 0.0000 0.4409 0.3273 (  2331 PWs)   bands (ev):

   -37.8206 -37.6684 -37.5715  -2.0044   3.7244   5.2838   7.5696  12.5556
    14.1412  15.0459  17.4404

          k = 0.0000 0.4409 0.4909 (  2318 PWs)   bands (ev):

   -37.7774 -37.6302 -37.5366  -0.9124   4.3986   6.2998   8.2101  10.9531
    14.9436  14.9938  15.6181

          k = 0.0000 0.4409 0.6545 (  2311 PWs)   bands (ev):

   -37.7376 -37.5949 -37.5042   0.5777   5.1427   7.4268   7.6849  10.4625
    13.1618  14.2454  15.4888

          k = 0.0000 0.4409 0.8182 (  2304 PWs)   bands (ev):

   -37.7139 -37.5739 -37.4850   2.3705   4.6270   6.4683   9.2735  11.5673
    11.7509  12.1844  14.0850

          k = 0.1909 0.3307 0.0000 (  2327 PWs)   bands (ev):

   -37.8827 -37.6902 -37.6084  -2.8939   3.3783   4.1258   7.4470  10.9055
    13.9649  16.4488  18.2015

          k = 0.1909 0.3307 0.1636 (  2321 PWs)   bands (ev):

   -37.8705 -37.6796 -37.5984  -2.6735   3.5356   4.3186   7.6638  10.9996
    14.0310  16.5253  17.6353

          k = 0.1909 0.3307 0.3273 (  2328 PWs)   bands (ev):

   -37.8374 -37.6511 -37.5716  -2.0167   3.9951   4.8911   8.3107  11.0621
    13.8917  16.1879  16.5450

          k = 0.1909 0.3307 0.4909 (  2319 PWs)   bands (ev):

   -37.7938 -37.6135 -37.5366  -0.9385   4.6955   5.8207   9.3746  10.0043
    13.5896  15.2995  15.7023

          k = 0.1909 0.3307 0.6545 (  2307 PWs)   bands (ev):

   -37.7534 -37.5788 -37.5042   0.5318   5.3059   7.0415   8.0578  10.8026
    13.3348  13.9017  14.1858

          k = 0.1909 0.3307 0.8182 (  2313 PWs)   bands (ev):

   -37.7293 -37.5582 -37.4851   2.3183   4.3691   7.5655   8.2722  11.7009
    11.7236  13.1250  14.8484

          k = 0.1909 0.5511 0.0000 (  2341 PWs)   bands (ev):

   -37.8229 -37.7502 -37.6090  -2.8883   3.2163   3.9025   7.9501  10.6885
    15.0342  16.7183  19.6478

          k = 0.1909 0.5511 0.1636 (  2332 PWs)   bands (ev):

   -37.8112 -37.7390 -37.5989  -2.6614   3.3639   4.0769   8.1591  10.9151
    14.7723  16.9407  19.4864

          k = 0.1909 0.5511 0.3273 (  2336 PWs)   bands (ev):

   -37.7797 -37.7091 -37.5722  -1.9848   3.7985   4.5922   8.7715  11.5915
    13.4199  17.5922  18.5270

          k = 0.1909 0.5511 0.4909 (  2319 PWs)   bands (ev):

   -37.7379 -37.6696 -37.5371  -0.8723   4.4881   5.4165   9.5836  11.0884
    12.6974  15.6345  16.2253

          k = 0.1909 0.5511 0.6545 (  2305 PWs)   bands (ev):

   -37.6993 -37.6331 -37.5046   0.6438   5.3383   6.3945   7.9427  11.4414
    13.1588  13.8595  14.4220

          k = 0.1909 0.5511 0.8182 (  2306 PWs)   bands (ev):

   -37.6764 -37.6114 -37.4855   2.4205   5.2779   6.0572   7.6618  11.7798
    11.9086  13.4452  15.4434

     the Fermi energy is     8.1334 ev

!    total energy              =     -51.53569213 Ry
     estimated scf accuracy    <          7.9E-12 Ry
     smearing contrib. (-TS)   =       0.00007378 Ry
     internal energy E=F+TS    =     -51.53576591 Ry

     The total energy is F=E-TS. E is the sum of the following terms:
     one-electron contribution =     -14.89260069 Ry
     hartree contribution      =       8.63053175 Ry
     xc contribution           =     -13.81557241 Ry
     ewald contribution        =     -31.45812456 Ry

     convergence has been achieved in   9 iterations

     Forces acting on atoms (cartesian axes, Ry/au):

     atom    1 type  1   force =     0.00000000    0.00000000    0.00000000
     atom    2 type  2   force =     0.00000000   -0.00000000   -0.00000000
     atom    3 type  2   force =     0.00000000    0.00000000    0.00000000
     atom    4 type  2   force =     0.00000000    0.00000000    0.00000000
     The non-local contrib.  to forces
     atom    1 type  1   force =     0.00000000   -0.00000000   -0.00000000
     atom    2 type  2   force =     0.00000000    0.00000000   -0.00000000
     atom    3 type  2   force =     0.00000000    0.00000000   -0.00000000
     atom    4 type  2   force =     0.00000000    0.00000000    0.00000000
     The ionic contribution  to forces
     atom    1 type  1   force =    -0.00000000   -0.00000000   -0.00000000
     atom    2 type  2   force =     0.00000000   -0.00000000   -0.00000000
     atom    3 type  2   force =    -0.00000000   -0.00000000   -0.00000000
     atom    4 type  2   force =     0.00000000   -0.00000000   -0.00000000
     The local contribution  to forces
     atom    1 type  1   force =    -0.00000000   -0.00000000   -0.00000000
     atom    2 type  2   force =    -0.00000000    0.00000000    0.00000000
     atom    3 type  2   force =     0.00000000   -0.00000000    0.00000000
     atom    4 type  2   force =     0.00000000    0.00000000    0.00000000
     The core correction contribution to forces
     atom    1 type  1   force =     0.00000000   -0.00000000    0.00000000
     atom    2 type  2   force =     0.00000000    0.00000000    0.00000000
     atom    3 type  2   force =     0.00000000    0.00000000    0.00000000
     atom    4 type  2   force =     0.00000000    0.00000000    0.00000000
     The Hubbard contrib.    to forces
     atom    1 type  1   force =     0.00000000    0.00000000    0.00000000
     atom    2 type  2   force =     0.00000000    0.00000000    0.00000000
     atom    3 type  2   force =     0.00000000    0.00000000    0.00000000
     atom    4 type  2   force =     0.00000000    0.00000000    0.00000000
     The SCF correction term to forces
     atom    1 type  1   force =    -0.00000000    0.00000000    0.00000000
     atom    2 type  2   force =     0.00000000    0.00000000    0.00000000
     atom    3 type  2   force =    -0.00000000    0.00000000    0.00000000
     atom    4 type  2   force =    -0.00000000   -0.00000000    0.00000000

     Total force =     0.000000     Total SCF correction =     0.000000


     Computing stress (Cartesian axis) and pressure

          total   stress  (Ry/bohr**3)                   (kbar)     P=      480.15
   0.00323483  -0.00000000  -0.00000000          475.86       -0.00       -0.00
  -0.00000000   0.00323483  -0.00000000           -0.00      475.86       -0.00
   0.00000000   0.00000000   0.00332224            0.00        0.00      488.72

     Energy error            =      4.6E-03 Ry
     Gradient error          =      2.9E-31 Ry/Bohr
     Cell gradient error     =      2.4E+01 kbar

     number of scf cycles    =   3
     number of bfgs steps    =   2

     enthalpy           old  =     -50.7286296980 Ry
     enthalpy           new  =     -50.7332753236 Ry

     CASE: enthalpy          _new < enthalpy          _old

     new trust radius        =       0.0149291112 bohr
ibrav =      4
 celldm(1) =      7.97149966
 celldm(3) =      0.53211031
Input lattice vectors:
     1.04246822    -0.00000000     0.00000000
    -0.52123411     0.90280396     0.00000000
    -0.00000000    -0.00000000     0.55470809
New lattice vectors in INITIAL alat:
     1.04246822     0.00000000     0.00000000
    -0.52123411     0.90280396     0.00000000
     0.00000000     0.00000000     0.55470809
New lattice vectors in NEW alat (for information only):
     1.00000000     0.00000000     0.00000000
    -0.50000000     0.86602540     0.00000000
     0.00000000     0.00000000     0.53211031
Discrepancy in bohr =     0.000000    0.000000    0.000000
     new conv_thr            =            1.0E-10 Ry

     new unit-cell volume =    233.42771 a.u.^3 (    34.59042 Ang^3 )
     density =      2.34789 g/cm^3

CELL_PARAMETERS (alat=  7.64675557)
   1.042468219   0.000000000   0.000000000
  -0.521234109   0.902803960   0.000000000
   0.000000000   0.000000000   0.554708091

ATOMIC_POSITIONS (crystal)
Si            0.0000000000       -0.0000000000        0.0000000000
Li            0.0000000000        0.5000000000        0.5000000000
Li            0.5000000000       -0.0000000000        0.5000000000
Li            0.5000000000        0.5000000000        0.5000000000



     Writing config-only to output data dir ./output/SiLi.save/
     NEW-OLD atomic charge density approx. for the potential
     extrapolated charge   12.85250, renormalised to   13.00000

     total cpu time spent up to now is       10.0 secs

     Self-consistent Calculation

     iteration #  1     ecut=    80.00 Ry     beta= 0.70
     Davidson diagonalization with overlap
     ethr =  1.00E-06,  avg # of iterations =  3.6

     total cpu time spent up to now is       10.4 secs

     total energy              =     -51.52663178 Ry
     estimated scf accuracy    <       0.00007401 Ry

     iteration #  2     ecut=    80.00 Ry     beta= 0.70
     Davidson diagonalization with overlap
     ethr =  5.69E-07,  avg # of iterations =  2.4

     total cpu time spent up to now is       10.7 secs

     total energy              =     -51.52687240 Ry
     estimated scf accuracy    <       0.00012730 Ry

     iteration #  3     ecut=    80.00 Ry     beta= 0.70
     Davidson diagonalization with overlap
     ethr =  5.69E-07,  avg # of iterations =  1.8

     total cpu time spent up to now is       11.0 secs

     total energy              =     -51.52688115 Ry
     estimated scf accuracy    <       0.00001543 Ry

     iteration #  4     ecut=    80.00 Ry     beta= 0.70
     Davidson diagonalization with overlap
     ethr =  1.19E-07,  avg # of iterations =  1.0

     total cpu time spent up to now is       11.3 secs

     total energy              =     -51.52687648 Ry
     estimated scf accuracy    <       0.00000847 Ry

     iteration #  5     ecut=    80.00 Ry     beta= 0.70
     Davidson diagonalization with overlap
     ethr =  6.51E-08,  avg # of iterations =  1.2

     total cpu time spent up to now is       11.5 secs

     total energy              =     -51.52687743 Ry
     estimated scf accuracy    <       0.00000005 Ry

     iteration #  6     ecut=    80.00 Ry     beta= 0.70
     Davidson diagonalization with overlap
     ethr =  3.78E-10,  avg # of iterations =  2.9

     total cpu time spent up to now is       11.9 secs

     total energy              =     -51.52687745 Ry
     estimated scf accuracy    <          5.4E-10 Ry

     iteration #  7     ecut=    80.00 Ry     beta= 0.70
     Davidson diagonalization with overlap
     ethr =  4.12E-12,  avg # of iterations =  2.8

     total cpu time spent up to now is       12.2 secs

     total energy              =     -51.52687745 Ry
     estimated scf accuracy    <          3.2E-10 Ry

     iteration #  8     ecut=    80.00 Ry     beta= 0.70
     Davidson diagonalization with overlap
     ethr =  2.45E-12,  avg # of iterations =  2.0

     total cpu time spent up to now is       12.4 secs

     total energy              =     -51.52687745 Ry
     estimated scf accuracy    <          1.5E-10 Ry

     iteration #  9     ecut=    80.00 Ry     beta= 0.70
     Davidson diagonalization with overlap
     ethr =  1.19E-12,  avg # of iterations =  1.5

     total cpu time spent up to now is       12.8 secs

     End of self-consistent calculation

          k = 0.0000 0.0000 0.0000 (  2339 PWs)   bands (ev):

   -37.8675 -37.4948 -37.4948  -2.8244   4.3398   4.3398   7.6591   9.3469
    13.3197  13.3197  22.5179

          k = 0.0000 0.0000 0.1639 (  2309 PWs)   bands (ev):

   -37.8540 -37.4849 -37.4849  -2.6219   4.5684   4.5684   7.8956   9.2860
    13.3615  13.3615  18.7513

          k = 0.0000 0.0000 0.3278 (  2303 PWs)   bands (ev):

   -37.8183 -37.4577 -37.4577  -2.0195   5.2539   5.2539   8.6010   8.9454
    13.4604  13.4604  16.0461

          k = 0.0000 0.0000 0.4917 (  2297 PWs)   bands (ev):

   -37.7709 -37.4225 -37.4225  -1.0321   6.3964   6.3964   7.8985   9.7572
    13.5526  13.5526  14.4793

          k = 0.0000 0.0000 0.6555 (  2291 PWs)   bands (ev):

   -37.7274 -37.3897 -37.3897   0.3117   6.0902   7.9949   7.9949  11.2996
    13.5896  13.5896  14.1530

          k = 0.0000 0.0000 0.8194 (  2320 PWs)   bands (ev):

   -37.7014 -37.3704 -37.3704   1.9314   4.0884  10.0428  10.0428  12.5770
    12.5770  12.8926  13.5855

          k = 0.0000 0.2215 0.0000 (  2333 PWs)   bands (ev):

   -37.8363 -37.5265 -37.4954  -2.8202   3.8513   4.4250   7.3385  10.4642
    13.3653  14.6103  20.4912

          k = 0.0000 0.2215 0.1639 (  2318 PWs)   bands (ev):

   -37.8233 -37.5163 -37.4854  -2.6099   4.0356   4.6456   7.5510  10.4482
    13.4636  14.6677  18.5681

          k = 0.0000 0.2215 0.3278 (  2303 PWs)   bands (ev):

   -37.7883 -37.4885 -37.4582  -1.9843   4.5721   5.3063   8.1706  10.2212
    13.7127  14.7581  16.0568

          k = 0.0000 0.2215 0.4917 (  2322 PWs)   bands (ev):

   -37.7421 -37.4522 -37.4229  -0.9587   5.3623   6.4020   8.8440   9.5967
    13.9527  14.5325  14.7716

          k = 0.0000 0.2215 0.6555 (  2318 PWs)   bands (ev):

   -37.6993 -37.4186 -37.3902   0.4383   5.6511   7.9191   8.0886  10.6951
    13.6052  13.7317  14.3903

          k = 0.0000 0.2215 0.8194 (  2308 PWs)   bands (ev):

   -37.6737 -37.3985 -37.3707   2.1496   4.1121   8.8883   9.7987  11.6469
    12.1124  12.4151  13.8252

          k = 0.0000 0.4431 0.0000 (  2321 PWs)   bands (ev):

   -37.7636 -37.6002 -37.4961  -2.8128   3.2448   4.5670   6.9840  12.8428
    13.4557  15.9984  19.0506

          k = 0.0000 0.4431 0.1639 (  2332 PWs)   bands (ev):

   -37.7512 -37.5893 -37.4860  -2.5895   3.3907   4.7735   7.1652  12.9177
    13.6727  15.9018  18.5769

          k = 0.0000 0.4431 0.3278 (  2331 PWs)   bands (ev):

   -37.7181 -37.5598 -37.4589  -1.9240   3.8188   5.3903   7.6809  12.7042
    14.3008  15.2256  17.6060

          k = 0.0000 0.4431 0.4917 (  2318 PWs)   bands (ev):

   -37.6742 -37.5210 -37.4235  -0.8307   4.4865   6.4073   8.3143  11.0747
    15.1222  15.1487  15.7605

          k = 0.0000 0.4431 0.6555 (  2311 PWs)   bands (ev):

   -37.6336 -37.4851 -37.3907   0.6607   5.2190   7.5222   7.7939  10.5931
    13.2806  14.3645  15.6523

          k = 0.0000 0.4431 0.8194 (  2304 PWs)   bands (ev):

   -37.6095 -37.4638 -37.3712   2.4533   4.7047   6.5548   9.3854  11.6955
    11.8795  12.2945  14.2202

          k = 0.1919 0.3323 0.0000 (  2327 PWs)   bands (ev):

   -37.7818 -37.5814 -37.4963  -2.8142   3.4778   4.2286   7.5615  11.0713
    14.1431  16.6386  18.4260

          k = 0.1919 0.3323 0.1639 (  2321 PWs)   bands (ev):

   -37.7693 -37.5707 -37.4861  -2.5935   3.6342   4.4213   7.7787  11.1628
    14.2020  16.7115  17.8298

          k = 0.1919 0.3323 0.3278 (  2328 PWs)   bands (ev):

   -37.7356 -37.5417 -37.4590  -1.9360   4.0907   4.9935   8.4269  11.2085
    14.0398  16.3780  16.7138

          k = 0.1919 0.3323 0.4917 (  2319 PWs)   bands (ev):

   -37.6912 -37.5036 -37.4236  -0.8569   4.7846   5.9223   9.4927  10.1161
    13.7587  15.4476  15.8357

          k = 0.1919 0.3323 0.6555 (  2307 PWs)   bands (ev):

   -37.6501 -37.4684 -37.3907   0.6140   5.3808   7.1412   8.1709  10.9217
    13.4549  14.0210  14.3617

          k = 0.1919 0.3323 0.8194 (  2313 PWs)   bands (ev):

   -37.6255 -37.4474 -37.3713   2.4000   4.4430   7.6733   8.3675  11.8084
    11.8432  13.2592  15.0238

          k = 0.1919 0.5538 0.0000 (  2341 PWs)   bands (ev):

   -37.7195 -37.6439 -37.4970  -2.8102   3.3162   4.0055   8.0724  10.8368
    15.2329  16.9298  19.8731

          k = 0.1919 0.5538 0.1639 (  2332 PWs)   bands (ev):

   -37.7076 -37.6325 -37.4868  -2.5828   3.4627   4.1794   8.2817  11.0641
    14.9528  17.1529  19.6939

          k = 0.1919 0.5538 0.3278 (  2336 PWs)   bands (ev):

   -37.6755 -37.6021 -37.4597  -1.9049   3.8940   4.6931   8.8948  11.7425
    13.5557  17.8045  18.7365

          k = 0.1919 0.5538 0.4917 (  2319 PWs)   bands (ev):

   -37.6331 -37.5620 -37.4240  -0.7905   4.5777   5.5143   9.7015  11.2114
    12.8508  15.7529  16.3485

          k = 0.1919 0.5538 0.6555 (  2305 PWs)   bands (ev):

   -37.5938 -37.5249 -37.3912   0.7275   5.4187   6.4848   8.0505  11.5729
    13.2774  13.9801  14.5823

          k = 0.1919 0.5538 0.8194 (  2306 PWs)   bands (ev):

   -37.5705 -37.5029 -37.3717   2.5033   5.3764   6.1269   7.7550  11.9048
    12.0243  13.5904  15.5946

     the Fermi energy is     8.2454 ev

!    total energy              =     -51.52687745 Ry
     estimated scf accuracy    <          4.8E-14 Ry
     smearing contrib. (-TS)   =       0.00003415 Ry
     internal energy E=F+TS    =     -51.52691160 Ry

     The total energy is F=E-TS. E is the sum of the following terms:
     one-electron contribution =     -14.72579400 Ry
     hartree contribution      =       8.60484797 Ry
     xc contribution           =     -13.83072878 Ry
     ewald contribution        =     -31.57523679 Ry

     convergence has been achieved in   9 iterations

     Forces acting on atoms (cartesian axes, Ry/au):

     atom    1 type  1   force =     0.00000000    0.00000000   -0.00000000
     atom    2 type  2   force =     0.00000000    0.00000000    0.00000000
     atom    3 type  2   force =     0.00000000    0.00000000    0.00000000
     atom    4 type  2   force =    -0.00000000   -0.00000000   -0.00000000
     The non-local contrib.  to forces
     atom    1 type  1   force =     0.00000000    0.00000000   -0.00000000
     atom    2 type  2   force =     0.00000000   -0.00000000   -0.00000000
     atom    3 type  2   force =     0.00000000    0.00000000    0.00000000
     atom    4 type  2   force =     0.00000000    0.00000000   -0.00000000
     The ionic contribution  to forces
     atom    1 type  1   force =    -0.00000000   -0.00000000   -0.00000000
     atom    2 type  2   force =     0.00000000   -0.00000000   -0.00000000
     atom    3 type  2   force =    -0.00000000   -0.00000000   -0.00000000
     atom    4 type  2   force =    -0.00000000   -0.00000000   -0.00000000
     The local contribution  to forces
     atom    1 type  1   force =    -0.00000000   -0.00000000    0.00000000
     atom    2 type  2   force =    -0.00000000    0.00000000    0.00000000
     atom    3 type  2   force =     0.00000000   -0.00000000    0.00000000
     atom    4 type  2   force =     0.00000000    0.00000000    0.00000000
     The core correction contribution to forces
     atom    1 type  1   force =     0.00000000    0.00000000    0.00000000
     atom    2 type  2   force =     0.00000000    0.00000000    0.00000000
     atom    3 type  2   force =     0.00000000    0.00000000    0.00000000
     atom    4 type  2   force =     0.00000000    0.00000000    0.00000000
     The Hubbard contrib.    to forces
     atom    1 type  1   force =     0.00000000    0.00000000    0.00000000
     atom    2 type  2   force =     0.00000000    0.00000000    0.00000000
     atom    3 type  2   force =     0.00000000    0.00000000    0.00000000
     atom    4 type  2   force =     0.00000000    0.00000000    0.00000000
     The SCF correction term to forces
     atom    1 type  1   force =     0.00000000    0.00000000    0.00000000
     atom    2 type  2   force =    -0.00000000   -0.00000000    0.00000000
     atom    3 type  2   force =     0.00000000   -0.00000000    0.00000000
     atom    4 type  2   force =     0.00000000   -0.00000000    0.00000000

     Total force =     0.000000     Total SCF correction =     0.000000


     Computing stress (Cartesian axis) and pressure

          total   stress  (Ry/bohr**3)                   (kbar)     P=      501.50
   0.00339888   0.00000000   0.00000000          499.99        0.00        0.00
   0.00000000   0.00339888   0.00000000            0.00      499.99        0.00
   0.00000000  -0.00000000   0.00342954            0.00       -0.00      504.50

     Energy error            =      2.0E-04 Ry
     Gradient error          =      4.7E-31 Ry/Bohr
     Cell gradient error     =      4.5E+00 kbar

     number of scf cycles    =   4
     number of bfgs steps    =   3

     enthalpy           old  =     -50.7332753236 Ry
     enthalpy           new  =     -50.7334728002 Ry

     CASE: enthalpy          _new < enthalpy          _old

     new trust radius        =       0.0021224373 bohr
ibrav =      4
 celldm(1) =      7.97082483
 celldm(3) =      0.53252499
Input lattice vectors:
     1.04237997     0.00000000     0.00000000
    -0.52118998     0.90272753    -0.00000000
    -0.00000000    -0.00000000     0.55509339
New lattice vectors in INITIAL alat:
     1.04237997     0.00000000     0.00000000
    -0.52118998     0.90272753     0.00000000
     0.00000000     0.00000000     0.55509339
New lattice vectors in NEW alat (for information only):
     1.00000000     0.00000000     0.00000000
    -0.50000000     0.86602540     0.00000000
     0.00000000     0.00000000     0.53252499
Discrepancy in bohr =     0.000000    0.000000    0.000000
     new conv_thr            =            1.0E-10 Ry

     new unit-cell volume =    233.55030 a.u.^3 (    34.60858 Ang^3 )
     density =      2.34666 g/cm^3

CELL_PARAMETERS (alat=  7.64675557)
   1.042379968   0.000000000   0.000000000
  -0.521189984   0.902727533   0.000000000
   0.000000000   0.000000000   0.555093386

ATOMIC_POSITIONS (crystal)
Si            0.0000000000        0.0000000000       -0.0000000000
Li            0.0000000000        0.5000000000        0.5000000000
Li            0.5000000000        0.0000000000        0.5000000000
Li            0.5000000000        0.5000000000        0.5000000000



     Writing config-only to output data dir ./output/SiLi.save/
     NEW-OLD atomic charge density approx. for the potential
     extrapolated charge   13.00682, renormalised to   13.00000

     total cpu time spent up to now is       13.5 secs

     Self-consistent Calculation

     iteration #  1     ecut=    80.00 Ry     beta= 0.70
     Davidson diagonalization with overlap
     ethr =  1.00E-06,  avg # of iterations =  2.0

     Threshold (ethr) on eigenvalues was too large:
     Diagonalizing with lowered threshold

     Davidson diagonalization with overlap
     ethr =  6.14E-09,  avg # of iterations =  2.3

     total cpu time spent up to now is       14.0 secs

     total energy              =     -51.52729697 Ry
     estimated scf accuracy    <       0.00000082 Ry

     iteration #  2     ecut=    80.00 Ry     beta= 0.70
     Davidson diagonalization with overlap
     ethr =  6.28E-09,  avg # of iterations =  2.0

     total cpu time spent up to now is       14.3 secs

     total energy              =     -51.52729770 Ry
     estimated scf accuracy    <       0.00000122 Ry

     iteration #  3     ecut=    80.00 Ry     beta= 0.70
     Davidson diagonalization with overlap
     ethr =  6.28E-09,  avg # of iterations =  1.9

     total cpu time spent up to now is       14.6 secs

     total energy              =     -51.52729786 Ry
     estimated scf accuracy    <       0.00000004 Ry

     iteration #  4     ecut=    80.00 Ry     beta= 0.70
     Davidson diagonalization with overlap
     ethr =  3.07E-10,  avg # of iterations =  1.2

     total cpu time spent up to now is       14.9 secs

     total energy              =     -51.52729785 Ry
     estimated scf accuracy    <       0.00000001 Ry

     iteration #  5     ecut=    80.00 Ry     beta= 0.70
     Davidson diagonalization with overlap
     ethr =  1.05E-10,  avg # of iterations =  1.8

     total cpu time spent up to now is       15.1 secs

     End of self-consistent calculation

          k = 0.0000 0.0000 0.0000 (  2339 PWs)   bands (ev):

   -37.8740 -37.5012 -37.5012  -2.8231   4.3416   4.3416   7.6575   9.3448
    13.3168  13.3168  22.5072

          k = 0.0000 0.0000 0.1638 (  2309 PWs)   bands (ev):

   -37.8606 -37.4913 -37.4913  -2.6209   4.5698   4.5698   7.8937   9.2834
    13.3583  13.3583  18.7254

          k = 0.0000 0.0000 0.3275 (  2303 PWs)   bands (ev):

   -37.8250 -37.4643 -37.4643  -2.0195   5.2544   5.2544   8.5980   8.9410
    13.4564  13.4564  16.0255

          k = 0.0000 0.0000 0.4913 (  2297 PWs)   bands (ev):

   -37.7779 -37.4293 -37.4293  -1.0336   6.3954   6.3954   7.8914   9.7522
    13.5476  13.5476  14.4649

          k = 0.0000 0.0000 0.6551 (  2291 PWs)   bands (ev):

   -37.7346 -37.3967 -37.3967   0.3080   6.0824   7.9917   7.9917  11.2918
    13.5837  13.5837  14.1422

          k = 0.0000 0.0000 0.8189 (  2320 PWs)   bands (ev):

   -37.7087 -37.3775 -37.3775   1.9243   4.0833  10.0370  10.0370  12.5673
    12.5673  12.8807  13.5794

          k = 0.0000 0.2216 0.0000 (  2333 PWs)   bands (ev):

   -37.8428 -37.5329 -37.5018  -2.8185   3.8512   4.4265   7.3366  10.4636
    13.3639  14.6086  20.4895

          k = 0.0000 0.2216 0.1638 (  2318 PWs)   bands (ev):

   -37.8298 -37.5227 -37.4918  -2.6085   4.0351   4.6468   7.5488  10.4472
    13.4617  14.6654  18.5480

          k = 0.0000 0.2216 0.3275 (  2303 PWs)   bands (ev):

   -37.7950 -37.4951 -37.4648  -1.9839   4.5706   5.3065   8.1673  10.2180
    13.7097  14.7537  16.0385

          k = 0.0000 0.2216 0.4913 (  2322 PWs)   bands (ev):

   -37.7491 -37.4590 -37.4297  -0.9598   5.3590   6.4007   8.8378   9.5911
    13.9479  14.5219  14.7626

          k = 0.0000 0.2216 0.6551 (  2318 PWs)   bands (ev):

   -37.7066 -37.4256 -37.3972   0.4351   5.6442   7.9156   8.0819  10.6882
    13.5946  13.7241  14.3809

          k = 0.0000 0.2216 0.8189 (  2308 PWs)   bands (ev):

   -37.6811 -37.4056 -37.3778   2.1436   4.1057   8.8800   9.7922  11.6394
    12.1044  12.4056  13.8138

          k = 0.0000 0.4431 0.0000 (  2321 PWs)   bands (ev):

   -37.7700 -37.6066 -37.5024  -2.8105   3.2426   4.5680   6.9816  12.8440
    13.4571  16.0011  19.0481

          k = 0.0000 0.4431 0.1638 (  2332 PWs)   bands (ev):

   -37.7577 -37.5957 -37.4924  -2.5875   3.3883   4.7742   7.1625  12.9184
    13.6737  15.9017  18.5696

          k = 0.0000 0.4431 0.3275 (  2331 PWs)   bands (ev):

   -37.7248 -37.5664 -37.4655  -1.9229   3.8155   5.3901   7.6773  12.6998
    14.3005  15.2184  17.5959

          k = 0.0000 0.4431 0.4913 (  2318 PWs)   bands (ev):

   -37.6811 -37.5278 -37.4303  -0.8309   4.4818   6.4056   8.3086  11.0639
    15.1166  15.1454  15.7465

          k = 0.0000 0.4431 0.6551 (  2311 PWs)   bands (ev):

   -37.6408 -37.4922 -37.3977   0.6586   5.2122   7.5125   7.7900  10.5850
    13.2693  14.3548  15.6413

          k = 0.0000 0.4431 0.8189 (  2304 PWs)   bands (ev):

   -37.6168 -37.4710 -37.3783   2.4500   4.6956   6.5456   9.3782  11.6872
    11.8704  12.2874  14.2072

          k = 0.1919 0.3323 0.0000 (  2327 PWs)   bands (ev):

   -37.7882 -37.5878 -37.5026  -2.8120   3.4762   4.2287   7.5605  11.0712
    14.1452  16.6379  18.4256

          k = 0.1919 0.3323 0.1638 (  2321 PWs)   bands (ev):

   -37.7758 -37.5772 -37.4926  -2.5915   3.6324   4.4211   7.7774  11.1623
    14.2030  16.7098  17.8221

          k = 0.1919 0.3323 0.3275 (  2328 PWs)   bands (ev):

   -37.7423 -37.5483 -37.4656  -1.9350   4.0880   4.9923   8.4247  11.2056
    14.0348  16.3676  16.7082

          k = 0.1919 0.3323 0.4913 (  2319 PWs)   bands (ev):

   -37.6981 -37.5104 -37.4304  -0.8573   4.7803   5.9195   9.4891  10.1071
    13.7519  15.4377  15.8240

          k = 0.1919 0.3323 0.6551 (  2307 PWs)   bands (ev):

   -37.6572 -37.4754 -37.3977   0.6117   5.3740   7.1361   8.1612  10.9166
    13.4441  14.0086  14.3550

          k = 0.1919 0.3323 0.8189 (  2313 PWs)   bands (ev):

   -37.6329 -37.4546 -37.3784   2.3961   4.4345   7.6640   8.3596  11.8021
    11.8349  13.2481  15.0168

          k = 0.1919 0.5539 0.0000 (  2341 PWs)   bands (ev):

   -37.7260 -37.6503 -37.5033  -2.8076   3.3140   4.0047   8.0718  10.8378
    15.2351  16.9324  19.8738

          k = 0.1919 0.5539 0.1638 (  2332 PWs)   bands (ev):

   -37.7141 -37.6390 -37.4932  -2.5806   3.4603   4.1783   8.2809  11.0648
    14.9521  17.1552  19.6879

          k = 0.1919 0.5539 0.3275 (  2336 PWs)   bands (ev):

   -37.6822 -37.6088 -37.4663  -1.9036   3.8907   4.6910   8.8931  11.7423
    13.5464  17.8060  18.7240

          k = 0.1919 0.5539 0.4913 (  2319 PWs)   bands (ev):

   -37.6400 -37.5688 -37.4308  -0.7905   4.5729   5.5106   9.6969  11.2002
    12.8492  15.7370  16.3334

          k = 0.1919 0.5539 0.6551 (  2305 PWs)   bands (ev):

   -37.6010 -37.5320 -37.3981   0.7258   5.4119   6.4785   8.0396  11.5678
    13.2675  13.9675  14.5758

          k = 0.1919 0.5539 0.8189 (  2306 PWs)   bands (ev):

   -37.5778 -37.5101 -37.3788   2.5006   5.3661   6.1182   7.7465  11.8960
    12.0171  13.5811  15.5839

     the Fermi energy is     8.2397 ev

!    total energy              =     -51.52729786 Ry
     estimated scf accuracy    <          1.4E-11 Ry
     smearing contrib. (-TS)   =       0.00004822 Ry
     internal energy E=F+TS    =     -51.52734608 Ry

     The total energy is F=E-TS. E is the sum of the following terms:
     one-electron contribution =     -14.73447508 Ry
     hartree contribution      =       8.60644712 Ry
     xc contribution           =     -13.82998970 Ry
     ewald contribution        =     -31.56932843 Ry

     convergence has been achieved in   5 iterations

     Forces acting on atoms (cartesian axes, Ry/au):

     atom    1 type  1   force =     0.00000000    0.00000000   -0.00000000
     atom    2 type  2   force =     0.00000000    0.00000000   -0.00000000
     atom    3 type  2   force =    -0.00000000   -0.00000000   -0.00000000
     atom    4 type  2   force =     0.00000000   -0.00000000   -0.00000000
     The non-local contrib.  to forces
     atom    1 type  1   force =     0.00000000   -0.00000000    0.00000000
     atom    2 type  2   force =     0.00000000    0.00000000    0.00000000
     atom    3 type  2   force =     0.00000000   -0.00000000   -0.00000000
     atom    4 type  2   force =     0.00000000    0.00000000    0.00000000
     The ionic contribution  to forces
     atom    1 type  1   force =    -0.00000000   -0.00000000   -0.00000000
     atom    2 type  2   force =     0.00000000   -0.00000000   -0.00000000
     atom    3 type  2   force =    -0.00000000   -0.00000000   -0.00000000
     atom    4 type  2   force =    -0.00000000   -0.00000000   -0.00000000
     The local contribution  to forces
     atom    1 type  1   force =    -0.00000000   -0.00000000    0.00000000
     atom    2 type  2   force =    -0.00000000    0.00000000    0.00000000
     atom    3 type  2   force =     0.00000000   -0.00000000    0.00000000
     atom    4 type  2   force =     0.00000000    0.00000000    0.00000000
     The core correction contribution to forces
     atom    1 type  1   force =     0.00000000   -0.00000000   -0.00000000
     atom    2 type  2   force =     0.00000000    0.00000000    0.00000000
     atom    3 type  2   force =     0.00000000    0.00000000    0.00000000
     atom    4 type  2   force =     0.00000000    0.00000000    0.00000000
     The Hubbard contrib.    to forces
     atom    1 type  1   force =     0.00000000    0.00000000    0.00000000
     atom    2 type  2   force =     0.00000000    0.00000000    0.00000000
     atom    3 type  2   force =     0.00000000    0.00000000    0.00000000
     atom    4 type  2   force =     0.00000000    0.00000000    0.00000000
     The SCF correction term to forces
     atom    1 type  1   force =     0.00000000    0.00000000   -0.00000000
     atom    2 type  2   force =    -0.00000000    0.00000000   -0.00000000
     atom    3 type  2   force =     0.00000000    0.00000000   -0.00000000
     atom    4 type  2   force =     0.00000000    0.00000000   -0.00000000

     Total force =     0.000000     Total SCF correction =     0.000000


     Computing stress (Cartesian axis) and pressure

          total   stress  (Ry/bohr**3)                   (kbar)     P=      500.49
   0.00339655   0.00000000   0.00000000          499.65        0.00        0.00
   0.00000000   0.00339655   0.00000000            0.00      499.65        0.00
   0.00000000   0.00000000   0.00341375            0.00        0.00      502.18

     Energy error            =      3.7E-06 Ry
     Gradient error          =      5.8E-31 Ry/Bohr
     Cell gradient error     =      2.2E+00 kbar

     number of scf cycles    =   5
     number of bfgs steps    =   4

     enthalpy           old  =     -50.7334728002 Ry
     enthalpy           new  =     -50.7334765308 Ry

     CASE: enthalpy          _new < enthalpy          _old

     new trust radius        =       0.0022823385 bohr
ibrav =      4
 celldm(1) =      7.96893953
 celldm(3) =      0.53304872
Input lattice vectors:
     1.04213342     0.00000000    -0.00000000
    -0.52106671     0.90251401     0.00000000
     0.00000000     0.00000000     0.55550789
New lattice vectors in INITIAL alat:
     1.04213342     0.00000000     0.00000000
    -0.52106671     0.90251401     0.00000000
     0.00000000     0.00000000     0.55550789
New lattice vectors in NEW alat (for information only):
     1.00000000     0.00000000     0.00000000
    -0.50000000     0.86602540     0.00000000
     0.00000000     0.00000000     0.53304872
Discrepancy in bohr =     0.000000    0.000000    0.000000
     new conv_thr            =            1.0E-10 Ry

     new unit-cell volume =    233.61414 a.u.^3 (    34.61804 Ang^3 )
     density =      2.34602 g/cm^3

CELL_PARAMETERS (alat=  7.64675557)
   1.042133419   0.000000000   0.000000000
  -0.521066709   0.902514015   0.000000000
   0.000000000   0.000000000   0.555507887

ATOMIC_POSITIONS (crystal)
Si            0.0000000000        0.0000000000       -0.0000000000
Li            0.0000000000        0.5000000000        0.5000000000
Li            0.5000000000       -0.0000000000        0.5000000000
Li            0.5000000000        0.5000000000        0.5000000000



     Writing config-only to output data dir ./output/SiLi.save/
     NEW-OLD atomic charge density approx. for the potential
     extrapolated charge   13.00355, renormalised to   13.00000

     total cpu time spent up to now is       15.8 secs

     Self-consistent Calculation

     iteration #  1     ecut=    80.00 Ry     beta= 0.70
     Davidson diagonalization with overlap
     ethr =  1.00E-06,  avg # of iterations =  2.0

     Threshold (ethr) on eigenvalues was too large:
     Diagonalizing with lowered threshold

     Davidson diagonalization with overlap
     ethr =  5.66E-09,  avg # of iterations =  2.1

     total cpu time spent up to now is       16.4 secs

     total energy              =     -51.52751584 Ry
     estimated scf accuracy    <       0.00000070 Ry

     iteration #  2     ecut=    80.00 Ry     beta= 0.70
     Davidson diagonalization with overlap
     ethr =  5.38E-09,  avg # of iterations =  2.0

     total cpu time spent up to now is       16.7 secs

     total energy              =     -51.52751616 Ry
     estimated scf accuracy    <       0.00000086 Ry

     iteration #  3     ecut=    80.00 Ry     beta= 0.70
     Davidson diagonalization with overlap
     ethr =  5.38E-09,  avg # of iterations =  1.9

     total cpu time spent up to now is       17.0 secs

     total energy              =     -51.52751629 Ry
     estimated scf accuracy    <       0.00000001 Ry

     iteration #  4     ecut=    80.00 Ry     beta= 0.70
     Davidson diagonalization with overlap
     ethr =  8.19E-11,  avg # of iterations =  1.8

     total cpu time spent up to now is       17.3 secs

     total energy              =     -51.52751629 Ry
     estimated scf accuracy    <          1.2E-09 Ry

     iteration #  5     ecut=    80.00 Ry     beta= 0.70
     Davidson diagonalization with overlap
     ethr =  9.49E-12,  avg # of iterations =  2.1

     total cpu time spent up to now is       17.6 secs

     End of self-consistent calculation

          k = 0.0000 0.0000 0.0000 (  2339 PWs)   bands (ev):

   -37.8786 -37.5052 -37.5052  -2.8192   4.3464   4.3464   7.6590   9.3471
    13.3184  13.3184  22.5007

          k = 0.0000 0.0000 0.1637 (  2309 PWs)   bands (ev):

   -37.8653 -37.4955 -37.4955  -2.6174   4.5743   4.5743   7.8947   9.2849
    13.3595  13.3595  18.7001

          k = 0.0000 0.0000 0.3273 (  2303 PWs)   bands (ev):

   -37.8299 -37.4686 -37.4686  -2.0171   5.2579   5.2579   8.5977   8.9397
    13.4564  13.4564  16.0072

          k = 0.0000 0.0000 0.4910 (  2297 PWs)   bands (ev):

   -37.7831 -37.4338 -37.4338  -1.0330   6.3972   6.3972   7.8859   9.7498
    13.5461  13.5461  14.4545

          k = 0.0000 0.0000 0.6546 (  2291 PWs)   bands (ev):

   -37.7400 -37.4014 -37.4014   0.3061   6.0758   7.9912   7.9912  11.2862
    13.5811  13.5811  14.1365

          k = 0.0000 0.0000 0.8183 (  2320 PWs)   bands (ev):

   -37.7143 -37.3824 -37.3824   1.9182   4.0798  10.0335  10.0335  12.5598
    12.5598  12.8705  13.5763

          k = 0.0000 0.2216 0.0000 (  2333 PWs)   bands (ev):

   -37.8473 -37.5370 -37.5059  -2.8142   3.8539   4.4311   7.3376  10.4680
    13.3670  14.6116  20.4939

          k = 0.0000 0.2216 0.1637 (  2318 PWs)   bands (ev):

   -37.8344 -37.5269 -37.4959  -2.6046   4.0374   4.6511   7.5494  10.4507
    13.4644  14.6677  18.5295

          k = 0.0000 0.2216 0.3273 (  2303 PWs)   bands (ev):

   -37.7999 -37.4994 -37.4691  -1.9810   4.5717   5.3098   8.1667  10.2183
    13.7108  14.7534  16.0227

          k = 0.0000 0.2216 0.4910 (  2322 PWs)   bands (ev):

   -37.7542 -37.4636 -37.4343  -0.9587   5.3578   6.4022   8.8337   9.5879
    13.9467  14.5153  14.7572

          k = 0.0000 0.2216 0.6546 (  2318 PWs)   bands (ev):

   -37.7119 -37.4304 -37.4019   0.4338   5.6385   7.9147   8.0774  10.6838
    13.5863  13.7192  14.3754

          k = 0.0000 0.2216 0.8183 (  2308 PWs)   bands (ev):

   -37.6866 -37.4106 -37.3826   2.1390   4.1007   8.8740   9.7880  11.6340
    12.0983  12.3986  13.8048

          k = 0.0000 0.4432 0.0000 (  2321 PWs)   bands (ev):

   -37.7745 -37.6108 -37.5065  -2.8055   3.2430   4.5723   6.9822  12.8509
    13.4633  16.0100  19.0513

          k = 0.0000 0.4432 0.1637 (  2332 PWs)   bands (ev):

   -37.7623 -37.6000 -37.4965  -2.5829   3.3884   4.7781   7.1627  12.9244
    13.6794  15.9069  18.5667

          k = 0.0000 0.4432 0.3273 (  2331 PWs)   bands (ev):

   -37.7295 -37.5709 -37.4698  -1.9193   3.8145   5.3930   7.6763  12.6991
    14.3049  15.2155  17.5891

          k = 0.0000 0.4432 0.4910 (  2318 PWs)   bands (ev):

   -37.6861 -37.5325 -37.4348  -0.8289   4.4789   6.4067   8.3050  11.0551
    15.1152  15.1462  15.7349

          k = 0.0000 0.4432 0.6546 (  2311 PWs)   bands (ev):

   -37.6460 -37.4971 -37.4024   0.6586   5.2066   7.5041   7.7886  10.5796
    13.2598  14.3472  15.6334

          k = 0.0000 0.4432 0.8183 (  2304 PWs)   bands (ev):

   -37.6222 -37.4761 -37.3832   2.4485   4.6874   6.5376   9.3732  11.6814
    11.8638  12.2825  14.1964

          k = 0.1919 0.3324 0.0000 (  2327 PWs)   bands (ev):

   -37.7927 -37.5920 -37.5067  -2.8071   3.4774   4.2317   7.5626  11.0759
    14.1527  16.6427  18.4317

          k = 0.1919 0.3324 0.1637 (  2321 PWs)   bands (ev):

   -37.7804 -37.5814 -37.4967  -2.5871   3.6332   4.4237   7.7791  11.1664
    14.2091  16.7133  17.8188

          k = 0.1919 0.3324 0.3273 (  2328 PWs)   bands (ev):

   -37.7471 -37.5528 -37.4699  -1.9316   4.0876   4.9938   8.4255  11.2065
    14.0332  16.3613  16.7067

          k = 0.1919 0.3324 0.4910 (  2319 PWs)   bands (ev):

   -37.7031 -37.5151 -37.4349  -0.8555   4.7780   5.9192   9.4885  10.1000
    13.7490  15.4306  15.8145

          k = 0.1919 0.3324 0.6546 (  2307 PWs)   bands (ev):

   -37.6625 -37.4803 -37.4024   0.6114   5.3684   7.1331   8.1534  10.9142
    13.4352  13.9979  14.3526

          k = 0.1919 0.3324 0.8183 (  2313 PWs)   bands (ev):

   -37.6382 -37.4596 -37.3833   2.3940   4.4270   7.6565   8.3534  11.7980
    11.8288  13.2394  15.0138

          k = 0.1919 0.5540 0.0000 (  2341 PWs)   bands (ev):

   -37.7304 -37.6546 -37.5074  -2.8025   3.3144   4.0067   8.0747  10.8432
    15.2432  16.9414  19.8810

          k = 0.1919 0.5540 0.1637 (  2332 PWs)   bands (ev):

   -37.7186 -37.6433 -37.4973  -2.5757   3.4603   4.1799   8.2834  11.0699
    14.9565  17.1639  19.6869

          k = 0.1919 0.5540 0.3273 (  2336 PWs)   bands (ev):

   -37.6869 -37.6133 -37.4706  -1.8997   3.8896   4.6916   8.8947  11.7465
    13.5398  17.8138  18.7157

          k = 0.1919 0.5540 0.4910 (  2319 PWs)   bands (ev):

   -37.6449 -37.5736 -37.4354  -0.7882   4.5700   5.5093   9.6949  11.1910
    12.8519  15.7224  16.3197

          k = 0.1919 0.5540 0.6546 (  2305 PWs)   bands (ev):

   -37.6061 -37.5370 -37.4029   0.7262   5.4066   6.4740   8.0304  11.5658
    13.2597  13.9566  14.5732

          k = 0.1919 0.5540 0.8183 (  2306 PWs)   bands (ev):

   -37.5830 -37.5152 -37.3837   2.4999   5.3572   6.1104   7.7396  11.8895
    12.0123  13.5748  15.5761

     the Fermi energy is     8.2365 ev

!    total energy              =     -51.52751630 Ry
     estimated scf accuracy    <          4.0E-12 Ry
     smearing contrib. (-TS)   =       0.00006391 Ry
     internal energy E=F+TS    =     -51.52758020 Ry

     The total energy is F=E-TS. E is the sum of the following terms:
     one-electron contribution =     -14.73957401 Ry
     hartree contribution      =       8.60753749 Ry
     xc contribution           =     -13.82958481 Ry
     ewald contribution        =     -31.56595887 Ry

     convergence has been achieved in   5 iterations

     Forces acting on atoms (cartesian axes, Ry/au):

     atom    1 type  1   force =     0.00000000    0.00000000    0.00000000
     atom    2 type  2   force =    -0.00000000   -0.00000000   -0.00000000
     atom    3 type  2   force =     0.00000000    0.00000000   -0.00000000
     atom    4 type  2   force =     0.00000000   -0.00000000    0.00000000
     The non-local contrib.  to forces
     atom    1 type  1   force =     0.00000000    0.00000000    0.00000000
     atom    2 type  2   force =    -0.00000000   -0.00000000   -0.00000000
     atom    3 type  2   force =     0.00000000    0.00000000    0.00000000
     atom    4 type  2   force =    -0.00000000   -0.00000000    0.00000000
     The ionic contribution  to forces
[...]
   0.000000000   0.000000000   0.555507887

ATOMIC_POSITIONS (crystal)
Si            0.0000000000        0.0000000000       -0.0000000000
Li            0.0000000000        0.5000000000        0.5000000000
Li            0.5000000000       -0.0000000000        0.5000000000
Li            0.5000000000        0.5000000000        0.5000000000
End final coordinates



     Writing config-only to output data dir ./output/SiLi.save/

     Final scf calculation at the relaxed structure.
     The G-vectors are recalculated for the final unit cell
     Results may differ from those at the preceding step.

     Parallelization info
     --------------------
     sticks:   dense  smooth     PW     G-vecs:    dense   smooth      PW
     Min         173     173     52                 2823     2823     464
     Max         175     175     53                 2826     2826     467
     Sum        1393    1393    421                22597    22597    3721

     Using Slab Decomposition



     bravais-lattice index     =            4
     lattice parameter (alat)  =       7.6468  a.u.
     unit-cell volume          =     233.6141 (a.u.)^3
     number of atoms/cell      =            4
     number of atomic types    =            2
     number of electrons       =        13.00
     number of Kohn-Sham states=           11
     kinetic-energy cutoff     =      80.0000  Ry
     charge density cutoff     =     320.0000  Ry
     scf convergence threshold =      1.0E-10
     mixing beta               =       0.7000
     number of iterations used =            8  plain     mixing
     press convergence thresh. =      1.0E+00
     Exchange-correlation= PBE
                           (   1   4   3   4   0   0   0)

     celldm(1)=   7.646756  celldm(2)=   0.000000  celldm(3)=   0.495324
     celldm(4)=   0.000000  celldm(5)=   0.000000  celldm(6)=   0.000000

     crystal axes: (cart. coord. in units of alat)
               a(1) = (   1.042133   0.000000   0.000000 )  
               a(2) = (  -0.521067   0.902514   0.000000 )  
               a(3) = (   0.000000   0.000000   0.555508 )  

     reciprocal axes: (cart. coord. in units 2 pi/alat)
               b(1) = (  0.959570  0.554008 -0.000000 )  
               b(2) = (  0.000000  1.108016  0.000000 )  
               b(3) = (  0.000000 -0.000000  1.800154 )  


     PseudoPot. # 1 for Si read from file:
     ../pseudo/Si_ONCV_PBE_sr.upf
     MD5 check sum: e543d271109d17c80368dfa7c482276d
     Pseudo is Norm-conserving + core correction, Zval =  4.0
     Generated using ONCVPSP code by D. R. Hamann
     Using radial grid of 1510 points,  6 beta functions with: 
                l(1) =   0
                l(2) =   0
                l(3) =   1
                l(4) =   1
                l(5) =   2
                l(6) =   2

     PseudoPot. # 2 for Li read from file:
     ../pseudo/Li_ONCV_PBE_sr.upf
     MD5 check sum: 50ff420e78310ffa21704f3361e624a4
     Pseudo is Norm-conserving, Zval =  3.0
     Generated using ONCVPSP code by D. R. Hamann
     Using radial grid of 1944 points,  4 beta functions with: 
                l(1) =   0
                l(2) =   0
                l(3) =   1
                l(4) =   1

     atomic species   valence    mass     pseudopotential
        Si             4.00    28.08550     Si( 1.00)
        Li             3.00     6.94100     Li( 1.00)

     24 Sym. Ops., with inversion, found



   Cartesian axes

     site n.     atom                  positions (alat units)
         1           Si  tau(   1) = (   0.0000000   0.0000000  -0.0000000  )
         2           Li  tau(   2) = (  -0.2605334   0.4512570   0.2777539  )
         3           Li  tau(   3) = (   0.5210667  -0.0000000   0.2777539  )
         4           Li  tau(   4) = (   0.2605334   0.4512570   0.2777539  )

     number of k points=    30  Marzari-Vanderbilt smearing, width (Ry)=  0.0200
                       cart. coord. in units 2pi/alat
        k(    1) = (   0.0000000   0.0000000   0.0000000), wk =   0.0072727
        k(    2) = (   0.0000000   0.0000000   0.1636504), wk =   0.0145455
        k(    3) = (   0.0000000   0.0000000   0.3273008), wk =   0.0145455
        k(    4) = (   0.0000000   0.0000000   0.4909512), wk =   0.0145455
        k(    5) = (   0.0000000   0.0000000   0.6546016), wk =   0.0145455
        k(    6) = (   0.0000000   0.0000000   0.8182520), wk =   0.0145455
        k(    7) = (   0.0000000   0.2216032   0.0000000), wk =   0.0436364
        k(    8) = (   0.0000000   0.2216032   0.1636504), wk =   0.0872727
        k(    9) = (   0.0000000   0.2216032   0.3273008), wk =   0.0872727
        k(   10) = (   0.0000000   0.2216032   0.4909512), wk =   0.0872727
        k(   11) = (   0.0000000   0.2216032   0.6546016), wk =   0.0872727
        k(   12) = (   0.0000000   0.2216032   0.8182520), wk =   0.0872727
        k(   13) = (   0.0000000   0.4432064   0.0000000), wk =   0.0436364
        k(   14) = (   0.0000000   0.4432064   0.1636504), wk =   0.0872727
        k(   15) = (   0.0000000   0.4432064   0.3273008), wk =   0.0872727
        k(   16) = (   0.0000000   0.4432064   0.4909512), wk =   0.0872727
        k(   17) = (   0.0000000   0.4432064   0.6546016), wk =   0.0872727
        k(   18) = (   0.0000000   0.4432064   0.8182520), wk =   0.0872727
        k(   19) = (   0.1919140   0.3324048   0.0000000), wk =   0.0436364
        k(   20) = (   0.1919140   0.3324048   0.1636504), wk =   0.0872727
        k(   21) = (   0.1919140   0.3324048   0.3273008), wk =   0.0872727
        k(   22) = (   0.1919140   0.3324048   0.4909512), wk =   0.0872727
        k(   23) = (   0.1919140   0.3324048   0.6546016), wk =   0.0872727
        k(   24) = (   0.1919140   0.3324048   0.8182520), wk =   0.0872727
        k(   25) = (   0.1919140   0.5540080   0.0000000), wk =   0.0436364
        k(   26) = (   0.1919140   0.5540080   0.1636504), wk =   0.0872727
        k(   27) = (   0.1919140   0.5540080   0.3273008), wk =   0.0872727
        k(   28) = (   0.1919140   0.5540080   0.4909512), wk =   0.0872727
        k(   29) = (   0.1919140   0.5540080   0.6546016), wk =   0.0872727
        k(   30) = (   0.1919140   0.5540080   0.8182520), wk =   0.0872727

     Dense  grid:    22597 G-vectors     FFT dimensions: (  45,  45,  25)

     Estimated max dynamical RAM per process >      15.66 MB

     Estimated total dynamical RAM >     125.32 MB

     Initial potential from superposition of free atoms

     starting charge      12.9857, renormalised to      13.0000
     Starting wfcs are   10 randomized atomic wfcs +    1 random wfcs

     total cpu time spent up to now is       18.5 secs

     Self-consistent Calculation

     iteration #  1     ecut=    80.00 Ry     beta= 0.70
     Davidson diagonalization with overlap
     c_bands:  1 eigenvalues not converged
     c_bands:  1 eigenvalues not converged
     ethr =  1.00E-06,  avg # of iterations = 15.7

     total cpu time spent up to now is       19.4 secs

     total energy              =     -51.52655126 Ry
     estimated scf accuracy    <       0.01506535 Ry

     iteration #  2     ecut=    80.00 Ry     beta= 0.70
     Davidson diagonalization with overlap
     ethr =  1.16E-04,  avg # of iterations =  1.4

     total cpu time spent up to now is       19.7 secs

     total energy              =     -51.52681323 Ry
     estimated scf accuracy    <       0.00366458 Ry

     iteration #  3     ecut=    80.00 Ry     beta= 0.70
     Davidson diagonalization with overlap
     ethr =  2.82E-05,  avg # of iterations =  2.0

     total cpu time spent up to now is       20.1 secs

     total energy              =     -51.52765616 Ry
     estimated scf accuracy    <       0.00122579 Ry

     iteration #  4     ecut=    80.00 Ry     beta= 0.70
     Davidson diagonalization with overlap
     ethr =  9.43E-06,  avg # of iterations =  1.2

     total cpu time spent up to now is       20.3 secs

     total energy              =     -51.52784004 Ry
     estimated scf accuracy    <       0.00000260 Ry

     iteration #  5     ecut=    80.00 Ry     beta= 0.70
     Davidson diagonalization with overlap
     ethr =  2.00E-08,  avg # of iterations =  3.3

     total cpu time spent up to now is       20.7 secs

     total energy              =     -51.52784199 Ry
     estimated scf accuracy    <       0.00000072 Ry

     iteration #  6     ecut=    80.00 Ry     beta= 0.70
     Davidson diagonalization with overlap
     ethr =  5.55E-09,  avg # of iterations =  1.3

     total cpu time spent up to now is       21.0 secs

     total energy              =     -51.52784205 Ry
     estimated scf accuracy    <       0.00000003 Ry

     iteration #  7     ecut=    80.00 Ry     beta= 0.70
     Davidson diagonalization with overlap
     ethr =  2.62E-10,  avg # of iterations =  2.1

     total cpu time spent up to now is       21.3 secs

     total energy              =     -51.52784206 Ry
     estimated scf accuracy    <          7.8E-10 Ry

     iteration #  8     ecut=    80.00 Ry     beta= 0.70
     Davidson diagonalization with overlap
     ethr =  6.01E-12,  avg # of iterations =  2.4

     total cpu time spent up to now is       21.6 secs

     End of self-consistent calculation

          k = 0.0000 0.0000 0.0000 (  2809 PWs)   bands (ev):

   -37.8765 -37.5034 -37.5034  -2.8194   4.3462   4.3462   7.6589   9.3467
    13.3178  13.3178  21.4345

          k = 0.0000 0.0000 0.1637 (  2838 PWs)   bands (ev):

   -37.8634 -37.4935 -37.4935  -2.6177   4.5741   4.5741   7.8946   9.2844
    13.3589  13.3589  18.6997

          k = 0.0000 0.0000 0.3273 (  2814 PWs)   bands (ev):

   -37.8279 -37.4669 -37.4669  -2.0173   5.2578   5.2578   8.5976   8.9394
    13.4558  13.4558  16.0068

          k = 0.0000 0.0000 0.4910 (  2826 PWs)   bands (ev):

   -37.7813 -37.4319 -37.4319  -1.0333   6.3970   6.3970   7.8856   9.7497
    13.5456  13.5456  14.4539

          k = 0.0000 0.0000 0.6546 (  2826 PWs)   bands (ev):

   -37.7381 -37.3996 -37.3996   0.3058   6.0755   7.9910   7.9910  11.2861
    13.5807  13.5807  14.1360

          k = 0.0000 0.0000 0.8183 (  2820 PWs)   bands (ev):

   -37.7124 -37.3803 -37.3803   1.9179   4.0795  10.0334  10.0334  12.5596
    12.5596  12.8705  13.5758

          k = 0.0000 0.2216 0.0000 (  2818 PWs)   bands (ev):

   -37.8454 -37.5351 -37.5038  -2.8144   3.8536   4.4309   7.3374  10.4676
    13.3666  14.6112  20.4937

          k = 0.0000 0.2216 0.1637 (  2812 PWs)   bands (ev):

   -37.8325 -37.5249 -37.4939  -2.6049   4.0372   4.6509   7.5492  10.4503
    13.4640  14.6673  18.5292

          k = 0.0000 0.2216 0.3273 (  2813 PWs)   bands (ev):

   -37.7978 -37.4976 -37.4673  -1.9812   4.5715   5.3096   8.1665  10.2180
    13.7104  14.7531  16.0224

          k = 0.0000 0.2216 0.4910 (  2836 PWs)   bands (ev):

   -37.7522 -37.4616 -37.4323  -0.9590   5.3575   6.4021   8.8335   9.5878
    13.9463  14.5149  14.7569

          k = 0.0000 0.2216 0.6546 (  2850 PWs)   bands (ev):

   -37.7100 -37.4284 -37.3999   0.4336   5.6383   7.9146   8.0772  10.6836
    13.5860  13.7189  14.3750

          k = 0.0000 0.2216 0.8183 (  2845 PWs)   bands (ev):

   -37.6848 -37.4086 -37.3807   2.1387   4.1004   8.8737   9.7878  11.6337
    12.0982  12.3984  13.8046

          k = 0.0000 0.4432 0.0000 (  2794 PWs)   bands (ev):

   -37.7725 -37.6088 -37.5045  -2.8057   3.2427   4.5721   6.9819  12.8506
    13.4631  16.0098  19.0510

          k = 0.0000 0.4432 0.1637 (  2816 PWs)   bands (ev):

   -37.7603 -37.5980 -37.4946  -2.5831   3.3880   4.7779   7.1625  12.9241
    13.6793  15.9068  18.5664

          k = 0.0000 0.4432 0.3273 (  2824 PWs)   bands (ev):

   -37.7274 -37.5689 -37.4679  -1.9195   3.8142   5.3928   7.6761  12.6988
    14.3047  15.2153  17.5889

          k = 0.0000 0.4432 0.4910 (  2819 PWs)   bands (ev):

   -37.6842 -37.5306 -37.4329  -0.8292   4.4786   6.4065   8.3048  11.0549
    15.1150  15.1460  15.7346

          k = 0.0000 0.4432 0.6546 (  2836 PWs)   bands (ev):

   -37.6442 -37.4952 -37.4005   0.6584   5.2063   7.5039   7.7884  10.5793
    13.2594  14.3469  15.6331

          k = 0.0000 0.4432 0.8183 (  2833 PWs)   bands (ev):

   -37.6203 -37.4741 -37.3812   2.4483   4.6872   6.5374   9.3729  11.6810
    11.8634  12.2823  14.1961

          k = 0.1919 0.3324 0.0000 (  2811 PWs)   bands (ev):

   -37.7908 -37.5901 -37.5047  -2.8074   3.4771   4.2315   7.5624  11.0756
    14.1525  16.6424  18.4313

          k = 0.1919 0.3324 0.1637 (  2804 PWs)   bands (ev):

   -37.7784 -37.5794 -37.4947  -2.5873   3.6329   4.4235   7.7790  11.1660
    14.2089  16.7131  17.8185

          k = 0.1919 0.3324 0.3273 (  2816 PWs)   bands (ev):

   -37.7451 -37.5508 -37.4681  -1.9318   4.0873   4.9936   8.4254  11.2062
    14.0330  16.3610  16.7065

          k = 0.1919 0.3324 0.4910 (  2815 PWs)   bands (ev):

   -37.7012 -37.5131 -37.4330  -0.8557   4.7777   5.9189   9.4883  10.0997
    13.7487  15.4303  15.8142

          k = 0.1919 0.3324 0.6546 (  2831 PWs)   bands (ev):

   -37.6606 -37.4784 -37.4006   0.6112   5.3682   7.1329   8.1531  10.9140
    13.4348  13.9976  14.3522

          k = 0.1919 0.3324 0.8183 (  2833 PWs)   bands (ev):

   -37.6364 -37.4576 -37.3812   2.3938   4.4268   7.6563   8.3531  11.7978
    11.8284  13.2393  15.0134

          k = 0.1919 0.5540 0.0000 (  2806 PWs)   bands (ev):

   -37.7284 -37.6526 -37.5053  -2.8027   3.3141   4.0065   8.0746  10.8431
    15.2429  16.9413  19.8808

          k = 0.1919 0.5540 0.1637 (  2813 PWs)   bands (ev):

   -37.7166 -37.6414 -37.4954  -2.5759   3.4599   4.1796   8.2832  11.0697
    14.9562  17.1638  19.6868

          k = 0.1919 0.5540 0.3273 (  2824 PWs)   bands (ev):

   -37.6848 -37.6113 -37.4686  -1.8999   3.8893   4.6913   8.8945  11.7463
    13.5395  17.8136  18.5481

          k = 0.1919 0.5540 0.4910 (  2834 PWs)   bands (ev):

   -37.6429 -37.5717 -37.4335  -0.7884   4.5697   5.5090   9.6947  11.1908
    12.8518  15.7220  16.3194

          k = 0.1919 0.5540 0.6546 (  2825 PWs)   bands (ev):

   -37.6042 -37.5351 -37.4010   0.7260   5.4063   6.4738   8.0302  11.5656
    13.2592  13.9562  14.5730

          k = 0.1919 0.5540 0.8183 (  2816 PWs)   bands (ev):

   -37.5811 -37.5133 -37.3817   2.4996   5.3569   6.1101   7.7393  11.8891
    12.0120  13.5745  15.5758

     the Fermi energy is     8.2363 ev

!    total energy              =     -51.52784206 Ry
     estimated scf accuracy    <          6.0E-11 Ry
     smearing contrib. (-TS)   =       0.00006372 Ry
     internal energy E=F+TS    =     -51.52790578 Ry

     The total energy is F=E-TS. E is the sum of the following terms:
     one-electron contribution =     -14.74060335 Ry
     hartree contribution      =       8.60866248 Ry
     xc contribution           =     -13.83000604 Ry
     ewald contribution        =     -31.56595887 Ry

     convergence has been achieved in   8 iterations

     Forces acting on atoms (cartesian axes, Ry/au):

     atom    1 type  1   force =     0.00000000    0.00000000    0.00000000
     atom    2 type  2   force =    -0.00000000   -0.00000000   -0.00000000
     atom    3 type  2   force =     0.00000000    0.00000000   -0.00000000
     atom    4 type  2   force =     0.00000000    0.00000000    0.00000000
     The non-local contrib.  to forces
     atom    1 type  1   force =    -0.00000000   -0.00000000    0.00000000
     atom    2 type  2   force =     0.00000000    0.00000000   -0.00000000
     atom    3 type  2   force =    -0.00000000    0.00000000    0.00000000
     atom    4 type  2   force =     0.00000000    0.00000000    0.00000000
     The ionic contribution  to forces
     atom    1 type  1   force =    -0.00000000   -0.00000000   -0.00000000
     atom    2 type  2   force =    -0.00000000    0.00000000   -0.00000000
     atom    3 type  2   force =     0.00000000   -0.00000000   -0.00000000
     atom    4 type  2   force =     0.00000000    0.00000000   -0.00000000
     The local contribution  to forces
     atom    1 type  1   force =     0.00000000   -0.00000000   -0.00000000
     atom    2 type  2   force =    -0.00000000    0.00000000    0.00000000
     atom    3 type  2   force =     0.00000000   -0.00000000    0.00000000
     atom    4 type  2   force =    -0.00000000    0.00000000    0.00000000
     The core correction contribution to forces
     atom    1 type  1   force =     0.00000000    0.00000000    0.00000000
     atom    2 type  2   force =     0.00000000    0.00000000    0.00000000
     atom    3 type  2   force =     0.00000000    0.00000000    0.00000000
     atom    4 type  2   force =     0.00000000    0.00000000    0.00000000
     The Hubbard contrib.    to forces
     atom    1 type  1   force =     0.00000000    0.00000000    0.00000000
     atom    2 type  2   force =     0.00000000    0.00000000    0.00000000
     atom    3 type  2   force =     0.00000000    0.00000000    0.00000000
     atom    4 type  2   force =     0.00000000    0.00000000    0.00000000
     The SCF correction term to forces
     atom    1 type  1   force =     0.00000000    0.00000000   -0.00000000
     atom    2 type  2   force =    -0.00000000    0.00000000   -0.00000000
     atom    3 type  2   force =    -0.00000000   -0.00000000   -0.00000000
     atom    4 type  2   force =     0.00000000   -0.00000000   -0.00000000

     Total force =     0.000000     Total SCF correction =     0.000000


     Computing stress (Cartesian axis) and pressure

          total   stress  (Ry/bohr**3)                   (kbar)     P=      502.71
   0.00340886  -0.00000000   0.00000000          501.46       -0.00        0.00
  -0.00000000   0.00340886   0.00000000           -0.00      501.46        0.00
   0.00000000   0.00000000   0.00343427            0.00        0.00      505.20


     Writing all to output data dir ./output/SiLi.save/

     init_run     :      0.58s CPU      0.68s WALL (       2 calls)
     electrons    :     11.41s CPU     16.69s WALL (       7 calls)
     update_pot   :      0.93s CPU      0.96s WALL (       5 calls)
     forces       :      0.80s CPU      0.84s WALL (       7 calls)
     stress       :      2.51s CPU      2.64s WALL (       7 calls)

     Called by init_run:
     wfcinit      :      0.14s CPU      0.15s WALL (       2 calls)
     potinit      :      0.19s CPU      0.23s WALL (       2 calls)
     hinit0       :      0.23s CPU      0.27s WALL (       2 calls)

     Called by electrons:
     c_bands      :      9.76s CPU     14.49s WALL (      53 calls)
     sum_band     :      1.43s CPU      1.49s WALL (      53 calls)
     v_of_rho     :      0.21s CPU      0.48s WALL (      57 calls)
     mix_rho      :      0.02s CPU      0.03s WALL (      53 calls)

     Called by c_bands:
     init_us_2    :      0.28s CPU      0.31s WALL (    3660 calls)
     init_us_2:cp :      0.27s CPU      0.30s WALL (    3660 calls)
     cegterg      :      9.11s CPU      9.58s WALL (    1590 calls)

     Called by *egterg:
     cdiaghg      :      0.73s CPU      0.76s WALL (    5482 calls)
     h_psi        :      7.65s CPU      8.06s WALL (    5782 calls)
     g_psi        :      0.03s CPU      0.03s WALL (    4132 calls)

     Called by h_psi:
     h_psi:calbec :      0.44s CPU      0.46s WALL (    5782 calls)
     vloc_psi     :      6.92s CPU      7.29s WALL (    5782 calls)
     add_vuspsi   :      0.27s CPU      0.28s WALL (    5782 calls)

     General routines
     calbec       :      0.55s CPU      0.58s WALL (    6832 calls)
     fft          :      0.23s CPU      0.58s WALL (     746 calls)
     ffts         :      0.01s CPU      0.01s WALL (      53 calls)
     fftw         :      7.34s CPU      7.70s WALL (  110244 calls)

     Parallel routines

     PWSCF        :     16.45s CPU     22.39s WALL


   This run was terminated on:  13: 5:16  29Dec2024            

=------------------------------------------------------------------------------=
   JOB DONE.
=------------------------------------------------------------------------------=
