
     Program PWSCF v.7.2 starts on 29Dec2024 at 13:16:57 

     This program is part of the open-source Quantum ESPRESSO suite
     for quantum simulation of materials; please cite
         "P. Giannozzi et al., J. Phys.:Condens. Matter 21 395502 (2009);
         "P. Giannozzi et al., J. Phys.:Condens. Matter 29 465901 (2017);
         "P. Giannozzi et al., J. Chem. Phys. 152 154105 (2020);
          URL http://www.quantum-espresso.org", 
     in publications or presentations arising from this work. More details at
     http://www.quantum-espresso.org/quote

     Parallel version (MPI & OpenMP), running on       8 processor cores
     Number of MPI processes:                 8
     Threads/MPI process:                     1

     MPI processes distributed on     1 nodes
     482277 MiB available memory on the printing compute node when the environment starts

     Waiting for input...
     Reading input from standard input

     Current dimensions of program PWSCF are:
     Max number of different atomic species (ntypx) = 10
     Max number of k-points (npk) =  40000
     Max angular momentum in pseudopotentials (lmaxx) =  4

     R & G space division:  proc/nbgrp/npool/nimage =       8
     Subspace diagonalization in iterative solution of the eigenvalue problem:
     a serial algorithm will be used


     Parallelization info
     --------------------
     sticks:   dense  smooth     PW     G-vecs:    dense   smooth      PW
     Min         149     149     44                 3233     3233     518
     Max         151     151     46                 3234     3234     519
     Sum        1201    1201    361                25869    25869    4145

     Using Slab Decomposition



     bravais-lattice index     =            4
     lattice parameter (alat)  =       7.3908  a.u.
     unit-cell volume          =     268.2699 (a.u.)^3
     number of atoms/cell      =            8
     number of atomic types    =            2
     number of electrons       =        30.00
     number of Kohn-Sham states=           19
     kinetic-energy cutoff     =      80.0000  Ry
     charge density cutoff     =     320.0000  Ry
     scf convergence threshold =      1.0E-08
     mixing beta               =       0.7000
     number of iterations used =            8  plain     mixing
     energy convergence thresh.=      1.0E-04
     force convergence thresh. =      1.0E-03
     press convergence thresh. =      1.0E+00
     Exchange-correlation= PBE
                           (   1   4   3   4   0   0   0)
     nstep                     =           50


     celldm(1)=   7.390783  celldm(2)=   0.000000  celldm(3)=   0.767308
     celldm(4)=   0.000000  celldm(5)=   0.000000  celldm(6)=   0.000000

     crystal axes: (cart. coord. in units of alat)
               a(1) = (   1.000000   0.000000   0.000000 )  
               a(2) = (  -0.500000   0.866025   0.000000 )  
               a(3) = (   0.000000   0.000000   0.767308 )  

     reciprocal axes: (cart. coord. in units 2 pi/alat)
               b(1) = (  1.000000  0.577350 -0.000000 )  
               b(2) = (  0.000000  1.154701  0.000000 )  
               b(3) = (  0.000000 -0.000000  1.303257 )  


     PseudoPot. # 1 for Si read from file:
     ../pseudo/Si_ONCV_PBE_sr.upf
     MD5 check sum: e543d271109d17c80368dfa7c482276d
     Pseudo is Norm-conserving + core correction, Zval =  4.0
     Generated using ONCVPSP code by D. R. Hamann
     Using radial grid of 1510 points,  6 beta functions with: 
                l(1) =   0
                l(2) =   0
                l(3) =   1
                l(4) =   1
                l(5) =   2
                l(6) =   2

     PseudoPot. # 2 for Li read from file:
     ../pseudo/Li_ONCV_PBE_sr.upf
     MD5 check sum: 50ff420e78310ffa21704f3361e624a4
     Pseudo is Norm-conserving, Zval =  3.0
     Generated using ONCVPSP code by D. R. Hamann
     Using radial grid of 1944 points,  4 beta functions with: 
                l(1) =   0
                l(2) =   0
                l(3) =   1
                l(4) =   1

     atomic species   valence    mass     pseudopotential
        Si             4.00    28.08550     Si( 1.00)
        Li             3.00     6.94100     Li( 1.00)

     24 Sym. Ops., with inversion, found (12 have fractional translation)



   Cartesian axes

     site n.     atom                  positions (alat units)
         1           Si  tau(   1) = (  -0.2409155   0.7164429   0.5754813  )
         2           Si  tau(   2) = (   0.7409155   0.1495825   0.1918271  )
         3           Si  tau(   3) = (   0.2590845   0.1495825   0.1918271  )
         4           Si  tau(   4) = (   0.2409155   0.7164429   0.5754813  )
         5           Si  tau(   5) = (   0.0000000   0.2991650   0.5754813  )
         6           Si  tau(   6) = (   0.5000000   0.5668604   0.1918271  )
         7           Li  tau(   7) = (  -0.0000000   0.5773503   0.1918271  )
         8           Li  tau(   8) = (   0.5000000   0.2886751   0.5754813  )

     number of k points=    20  Marzari-Vanderbilt smearing, width (Ry)=  0.0200
                       cart. coord. in units 2pi/alat
        k(    1) = (   0.0000000   0.0000000   0.0000000), wk =   0.0133333
        k(    2) = (   0.0000000   0.0000000   0.2172095), wk =   0.0266667
        k(    3) = (   0.0000000   0.0000000   0.4344190), wk =   0.0266667
        k(    4) = (   0.0000000   0.0000000  -0.6516285), wk =   0.0133333
        k(    5) = (   0.0000000   0.2309401   0.0000000), wk =   0.0800000
        k(    6) = (   0.0000000   0.2309401   0.2172095), wk =   0.1600000
        k(    7) = (   0.0000000   0.2309401   0.4344190), wk =   0.1600000
        k(    8) = (   0.0000000   0.2309401  -0.6516285), wk =   0.0800000
        k(    9) = (   0.0000000   0.4618802   0.0000000), wk =   0.0800000
        k(   10) = (   0.0000000   0.4618802   0.2172095), wk =   0.1600000
        k(   11) = (   0.0000000   0.4618802   0.4344190), wk =   0.1600000
        k(   12) = (   0.0000000   0.4618802  -0.6516285), wk =   0.0800000
        k(   13) = (   0.2000000   0.3464102   0.0000000), wk =   0.0800000
        k(   14) = (   0.2000000   0.3464102   0.2172095), wk =   0.1600000
        k(   15) = (   0.2000000   0.3464102   0.4344190), wk =   0.1600000
        k(   16) = (   0.2000000   0.3464102  -0.6516285), wk =   0.0800000
        k(   17) = (   0.2000000   0.5773503   0.0000000), wk =   0.0800000
        k(   18) = (   0.2000000   0.5773503   0.2172095), wk =   0.1600000
        k(   19) = (   0.2000000   0.5773503   0.4344190), wk =   0.1600000
        k(   20) = (   0.2000000   0.5773503  -0.6516285), wk =   0.0800000

     Dense  grid:    25869 G-vectors     FFT dimensions: (  45,  45,  36)

     Estimated max dynamical RAM per process >      17.43 MB

     Estimated total dynamical RAM >     139.45 MB

     Initial potential from superposition of free atoms

     starting charge      29.9872, renormalised to      30.0000
     Starting wfcs are   28 randomized atomic wfcs

     total cpu time spent up to now is        1.2 secs

     Self-consistent Calculation

     iteration #  1     ecut=    80.00 Ry     beta= 0.70
     Davidson diagonalization with overlap
     ethr =  1.00E-02,  avg # of iterations =  6.8

     Threshold (ethr) on eigenvalues was too large:
     Diagonalizing with lowered threshold

     Davidson diagonalization with overlap
     ethr =  4.78E-04,  avg # of iterations =  3.8

     total cpu time spent up to now is        2.5 secs

     total energy              =     -74.97593533 Ry
     estimated scf accuracy    <       0.14520628 Ry

     iteration #  2     ecut=    80.00 Ry     beta= 0.70
     Davidson diagonalization with overlap
     ethr =  4.84E-04,  avg # of iterations =  1.6

     total cpu time spent up to now is        3.3 secs

     total energy              =     -74.98231629 Ry
     estimated scf accuracy    <       0.00946827 Ry

     iteration #  3     ecut=    80.00 Ry     beta= 0.70
     Davidson diagonalization with overlap
     ethr =  3.16E-05,  avg # of iterations =  7.0

     total cpu time spent up to now is        3.9 secs

     total energy              =     -74.98352161 Ry
     estimated scf accuracy    <       0.00132270 Ry

     iteration #  4     ecut=    80.00 Ry     beta= 0.70
     Davidson diagonalization with overlap
     ethr =  4.41E-06,  avg # of iterations =  5.7

     total cpu time spent up to now is        4.6 secs

     total energy              =     -74.98386363 Ry
     estimated scf accuracy    <       0.00007025 Ry

     iteration #  5     ecut=    80.00 Ry     beta= 0.70
     Davidson diagonalization with overlap
     ethr =  2.34E-07,  avg # of iterations =  3.4

     total cpu time spent up to now is        5.1 secs

     total energy              =     -74.98387935 Ry
     estimated scf accuracy    <       0.00000037 Ry

     iteration #  6     ecut=    80.00 Ry     beta= 0.70
     Davidson diagonalization with overlap
     ethr =  1.23E-09,  avg # of iterations =  5.2

     total cpu time spent up to now is        5.8 secs

     total energy              =     -74.98388007 Ry
     estimated scf accuracy    <       0.00000014 Ry

     iteration #  7     ecut=    80.00 Ry     beta= 0.70
     Davidson diagonalization with overlap
     ethr =  4.66E-10,  avg # of iterations =  2.5

     total cpu time spent up to now is        6.3 secs

     total energy              =     -74.98388012 Ry
     estimated scf accuracy    <       0.00000002 Ry

     iteration #  8     ecut=    80.00 Ry     beta= 0.70
     Davidson diagonalization with overlap
     ethr =  6.31E-11,  avg # of iterations =  2.0

     total cpu time spent up to now is        6.7 secs

     End of self-consistent calculation

          k = 0.0000 0.0000 0.0000 (  3233 PWs)   bands (ev):

   -21.8647 -21.6759   4.5939  14.1078  14.1078  14.2003  14.8301  14.8301
    15.7541  17.2147  21.7445  25.0202  26.5975  26.5975  26.9344  26.9344
    27.3739  29.1687  29.3107

          k = 0.0000 0.0000 0.2172 (  3250 PWs)   bands (ev):

   -21.8450 -21.6816   4.9371  13.0787  14.3389  14.4806  14.4806  15.1943
    15.1943  18.0532  22.9387  24.3676  24.3676  24.3916  24.3916  25.6511
    25.8469  31.6724  31.7388

          k = 0.0000 0.0000 0.4344 (  3256 PWs)   bands (ev):

   -21.7963 -21.7021   5.9674  10.0814  14.7946  15.5384  15.5384  16.1671
    16.1671  16.9275  21.2677  21.2677  21.5965  21.5965  24.1290  24.6634
    29.1358  35.1379  35.1379

          k = 0.0000 0.0000-0.6516 (  3280 PWs)   bands (ev):

   -21.7421 -21.7421   7.6856   7.6856  15.6571  15.6571  16.7286  16.7286
    16.7286  16.7286  19.8813  19.8813  19.8813  19.8813  24.2519  24.2519
    34.5294  34.5294  37.9806

          k = 0.0000 0.2309 0.0000 (  3244 PWs)   bands (ev):

   -21.8464 -21.6895   4.8781  11.2695  12.6420  13.8419  16.1667  17.0805
    17.5062  19.0491  21.7341  22.4619  24.6136  25.1237  27.0515  27.2493
    28.2579  29.0413  29.2461

          k = 0.0000 0.2309 0.2172 (  3250 PWs)   bands (ev):

   -21.8288 -21.6930   5.2289  11.5094  13.0384  13.2218  14.6560  17.3504
    17.8126  18.4980  22.0491  22.7688  23.1055  24.6564  26.4198  26.5989
    28.6584  29.6102  30.1549

          k = 0.0000 0.2309 0.4344 (  3267 PWs)   bands (ev):

   -21.7860 -21.7077   6.2752  10.3072  12.6294  14.1991  14.8604  16.4888
    17.5233  17.5604  20.5904  21.8096  22.9268  23.7146  25.0004  26.3114
    29.2552  32.0048  32.7686

          k = 0.0000 0.2309-0.6516 (  3248 PWs)   bands (ev):

   -21.7398 -21.7398   7.9957   7.9957  13.9445  13.9445  15.9858  15.9858
    16.5293  16.5293  21.3952  21.3952  22.2415  22.2415  25.0085  25.0085
    34.2632  34.2633  34.4405

          k = 0.0000 0.4619 0.0000 (  3236 PWs)   bands (ev):

   -21.8054 -21.7225   5.5600   9.0530  11.7347  13.5288  17.3831  19.6110
    19.9931  20.2724  21.6704  22.0338  23.6407  23.8110  23.8284  24.3153
    28.3581  31.4069  32.5259

          k = 0.0000 0.4619 0.2172 (  3237 PWs)   bands (ev):

   -21.7929 -21.7211   5.9420   9.2864  12.1404  13.3256  15.2491  17.5018
    19.5034  19.9119  22.2358  22.7078  24.1585  24.6530  25.2849  25.5753
    29.2313  29.9883  30.8023

          k = 0.0000 0.4619 0.4344 (  3229 PWs)   bands (ev):

   -21.7638 -21.7223   7.0635   9.8340  11.7802  13.2607  13.3379  16.2202
    17.7198  17.9331  22.5776  23.1548  24.8808  25.7358  26.7363  28.8828
    29.3167  30.3122  31.7330

          k = 0.0000 0.4619-0.6516 (  3248 PWs)   bands (ev):

   -21.7360 -21.7360   8.7992   8.7992  11.7188  11.7188  15.2581  15.2581
    16.6908  16.6908  23.9402  23.9402  24.1116  24.1116  28.5489  28.5489
    30.1913  30.1913  32.3021

          k = 0.2000 0.3464 0.0000 (  3227 PWs)   bands (ev):

   -21.8154 -21.7141   5.3859   9.9001  10.7199  15.2980  16.9861  17.0927
    20.8883  20.9524  21.1567  21.6985  21.7168  23.5962  26.8518  27.2633
    27.7662  27.9987  31.9820

          k = 0.2000 0.3464 0.2172 (  3242 PWs)   bands (ev):

   -21.8016 -21.7139   5.7573  10.1844  10.9117  14.5732  15.5670  17.3207
    18.4787  18.9628  22.7521  23.2265  23.3101  24.5208  25.4933  28.0793
    28.4022  28.4808  31.5811

          k = 0.2000 0.3464 0.4344 (  3245 PWs)   bands (ev):

   -21.7691 -21.7185   6.8520  10.5838  11.0144  12.7050  15.3117  16.0163
    17.0304  18.1752  22.0540  22.6254  24.2833  24.9647  27.8761  28.3833
    29.4578  29.6557  31.8235

          k = 0.2000 0.3464-0.6516 (  3254 PWs)   bands (ev):

   -21.7368 -21.7368   8.5939   8.5939  12.2072  12.2072  14.7893  14.7893
    17.6647  17.6647  21.6018  21.6018  25.6213  25.6213  26.7993  26.7993
    30.9327  30.9327  33.9567

          k = 0.2000 0.5774 0.0000 (  3226 PWs)   bands (ev):

   -21.7820 -21.7436   5.8761   8.8944  10.1180  15.6064  18.2920  19.0909
    19.4147  19.9313  20.9845  21.6606  22.7020  22.8488  25.8569  27.4566
    28.7204  30.9014  31.5141

          k = 0.2000 0.5774 0.2172 (  3232 PWs)   bands (ev):

   -21.7724 -21.7392   6.2846   9.1168  10.3585  15.5817  15.6145  17.3665
    18.3251  19.9614  20.2120  24.7462  25.0953  25.1755  25.9781  26.1127
    29.0752  29.6591  30.4705

          k = 0.2000 0.5774 0.4344 (  3237 PWs)   bands (ev):

   -21.7515 -21.7323   7.4897   9.7090  10.8811  12.3960  14.4995  15.9382
    17.2937  19.4966  20.5424  23.4381  26.7674  27.6010  28.1617  28.7360
    29.2768  29.8613  31.0247

          k = 0.2000 0.5774-0.6516 (  3244 PWs)   bands (ev):

   -21.7349 -21.7349   9.3498   9.3498  10.8835  10.8835  14.3601  14.3601
    18.3752  18.3752  21.6040  21.6040  27.7097  27.7097  28.7805  28.7805
    31.2100  31.2100  31.3162

     the Fermi energy is    26.9188 ev

!    total energy              =     -74.98388012 Ry
     estimated scf accuracy    <          3.8E-11 Ry
     smearing contrib. (-TS)   =       0.00005216 Ry
     internal energy E=F+TS    =     -74.98393228 Ry

     The total energy is F=E-TS. E is the sum of the following terms:
     one-electron contribution =      52.55787635 Ry
     hartree contribution      =       5.44765713 Ry
     xc contribution           =     -31.61011228 Ry
     ewald contribution        =    -101.37935348 Ry

     convergence has been achieved in   8 iterations

     Forces acting on atoms (cartesian axes, Ry/au):

     atom    1 type  1   force =    -0.03927297    0.02267426   -0.00000000
     atom    2 type  1   force =     0.03927297   -0.02267426    0.00000000
     atom    3 type  1   force =    -0.03927297   -0.02267426   -0.00000000
     atom    4 type  1   force =     0.03927297    0.02267426    0.00000000
     atom    5 type  1   force =    -0.00000000   -0.04534852   -0.00000000
     atom    6 type  1   force =     0.00000000    0.04534852    0.00000000
     atom    7 type  2   force =     0.00000000    0.00000000    0.00000000
     atom    8 type  2   force =    -0.00000000   -0.00000000    0.00000000
     The non-local contrib.  to forces
     atom    1 type  1   force =    -0.05366497    0.03098349   -0.00000000
     atom    2 type  1   force =     0.05366497   -0.03098349    0.00000000
     atom    3 type  1   force =    -0.05366497   -0.03098349    0.00000000
     atom    4 type  1   force =     0.05366497    0.03098349    0.00000000
     atom    5 type  1   force =    -0.00000000   -0.06196697    0.00000000
     atom    6 type  1   force =    -0.00000000    0.06196697    0.00000000
     atom    7 type  2   force =     0.00000000    0.00000000    0.00000000
     atom    8 type  2   force =    -0.00000000   -0.00000000    0.00000000
     The ionic contribution  to forces
     atom    1 type  1   force =    -0.27414896    0.15827998   -0.00000000
     atom    2 type  1   force =     0.27414896   -0.15827998   -0.00000000
     atom    3 type  1   force =    -0.27414896   -0.15827986   -0.00000000
     atom    4 type  1   force =     0.27414896    0.15827986    0.00000000
     atom    5 type  1   force =     0.00000010   -0.31655989    0.00000000
     atom    6 type  1   force =    -0.00000010    0.31655989    0.00000000
     atom    7 type  2   force =     0.00000010   -0.00000006   -0.00000000
     atom    8 type  2   force =    -0.00000010    0.00000006   -0.00000000
     The local contribution  to forces
     atom    1 type  1   force =     0.28798385   -0.16626755   -0.00000000
     atom    2 type  1   force =    -0.28798385    0.16626755    0.00000000
     atom    3 type  1   force =     0.28798385    0.16626755   -0.00000000
     atom    4 type  1   force =    -0.28798385   -0.16626755   -0.00000000
     atom    5 type  1   force =    -0.00000000    0.33253511   -0.00000000
     atom    6 type  1   force =    -0.00000000   -0.33253511   -0.00000000
     atom    7 type  2   force =     0.00000069   -0.00000040    0.00000000
     atom    8 type  2   force =    -0.00000069    0.00000040    0.00000000
     The core correction contribution to forces
     atom    1 type  1   force =     0.00055544   -0.00032068   -0.00000000
     atom    2 type  1   force =    -0.00055544    0.00032068   -0.00000000
     atom    3 type  1   force =     0.00055544    0.00032068   -0.00000000
     atom    4 type  1   force =    -0.00055544   -0.00032068   -0.00000000
     atom    5 type  1   force =    -0.00000000    0.00064136   -0.00000000
     atom    6 type  1   force =    -0.00000000   -0.00064136   -0.00000000
     atom    7 type  2   force =     0.00000000    0.00000000    0.00000000
     atom    8 type  2   force =     0.00000000    0.00000000    0.00000000
     The Hubbard contrib.    to forces
     atom    1 type  1   force =     0.00000000    0.00000000    0.00000000
     atom    2 type  1   force =     0.00000000    0.00000000    0.00000000
     atom    3 type  1   force =     0.00000000    0.00000000    0.00000000
     atom    4 type  1   force =     0.00000000    0.00000000    0.00000000
     atom    5 type  1   force =     0.00000000    0.00000000    0.00000000
     atom    6 type  1   force =     0.00000000    0.00000000    0.00000000
     atom    7 type  2   force =     0.00000000    0.00000000    0.00000000
     atom    8 type  2   force =     0.00000000    0.00000000    0.00000000
     The SCF correction term to forces
     atom    1 type  1   force =     0.00000164   -0.00000095    0.00000000
     atom    2 type  1   force =    -0.00000164    0.00000095    0.00000000
     atom    3 type  1   force =     0.00000164    0.00000095   -0.00000000
     atom    4 type  1   force =    -0.00000164   -0.00000095    0.00000000
     atom    5 type  1   force =    -0.00000000    0.00000189    0.00000000
     atom    6 type  1   force =     0.00000000   -0.00000189    0.00000000
     atom    7 type  2   force =    -0.00000000    0.00000000    0.00000000
     atom    8 type  2   force =     0.00000000   -0.00000000    0.00000000

     Total force =     0.111081     Total SCF correction =     0.000005


     Computing stress (Cartesian axis) and pressure

          total   stress  (Ry/bohr**3)                   (kbar)     P=     6545.15
   0.04319937   0.00000000   0.00000000         6354.85        0.00        0.00
   0.00000000   0.04319937  -0.00000000            0.00     6354.85       -0.00
   0.00000000  -0.00000000   0.04708044            0.00       -0.00     6925.77


     BFGS Geometry Optimization
     Energy error            =      0.0E+00 Ry
     Gradient error          =      4.5E-02 Ry/Bohr
     Cell gradient error     =      6.4E+03 kbar

     number of scf cycles    =   1
     number of bfgs steps    =   0

     enthalpy           new  =     -74.0720491531 Ry

     new trust radius        =       0.5000000000 bohr
ibrav =      4
 celldm(1) =      8.41864514
 celldm(3) =      0.77644376
Input lattice vectors:
     1.13907345     0.00000000     0.00000000
    -0.56953673     0.98646655    -0.00000000
     0.00000000    -0.00000000     0.88442648
New lattice vectors in INITIAL alat:
     1.13907345     0.00000000     0.00000000
    -0.56953673     0.98646655     0.00000000
     0.00000000     0.00000000     0.88442648
New lattice vectors in NEW alat (for information only):
     1.00000000     0.00000000     0.00000000
    -0.50000000     0.86602540     0.00000000
     0.00000000     0.00000000     0.77644376
Discrepancy in bohr =     0.000000    0.000000    0.000000
     new conv_thr            =       0.0000000100 Ry

     new unit-cell volume =    401.20584 a.u.^3 (    59.45257 Ang^3 )
     density =      5.09438 g/cm^3

CELL_PARAMETERS (alat=  7.39078337)
   1.139073453   0.000000000   0.000000000
  -0.569536726   0.986466547   0.000000000
   0.000000000   0.000000000   0.884426477

ATOMIC_POSITIONS (crystal)
Si            0.1722278596        0.8277721404        0.7500000000
Si            0.8277721404        0.1722278596        0.2500000000
Si            0.3444557191        0.1722278596        0.2500000000
Si            0.6555442809        0.8277721404        0.7500000000
Si            0.1722278596        0.3444557191        0.7500000000
Si            0.8277721404        0.6555442809        0.2500000000
Li            0.3333333300        0.6666666700        0.2500000000
Li            0.6666666700        0.3333333300        0.7500000000



     Writing config-only to output data dir ./output/SiLi.save/
     NEW-OLD atomic charge density approx. for the potential
     extrapolated charge   39.93599, renormalised to   30.00000

     total cpu time spent up to now is        8.3 secs

     Self-consistent Calculation

     iteration #  1     ecut=    80.00 Ry     beta= 0.70
     Davidson diagonalization with overlap
     c_bands:  1 eigenvalues not converged
     c_bands:  1 eigenvalues not converged
     c_bands:  1 eigenvalues not converged
     ethr =  1.00E-06,  avg # of iterations = 16.4

     total cpu time spent up to now is       10.1 secs

     total energy              =     -78.01546739 Ry
     estimated scf accuracy    <       0.08315134 Ry

     iteration #  2     ecut=    80.00 Ry     beta= 0.70
     Davidson diagonalization with overlap
     ethr =  2.77E-04,  avg # of iterations =  3.5

     total cpu time spent up to now is       10.7 secs

     total energy              =     -78.22124623 Ry
     estimated scf accuracy    <       0.14948829 Ry

     iteration #  3     ecut=    80.00 Ry     beta= 0.70
     Davidson diagonalization with overlap
     ethr =  2.77E-04,  avg # of iterations =  2.0

     total cpu time spent up to now is       11.1 secs

     total energy              =     -78.22563773 Ry
     estimated scf accuracy    <       0.02596082 Ry

     iteration #  4     ecut=    80.00 Ry     beta= 0.70
     Davidson diagonalization with overlap
     ethr =  8.65E-05,  avg # of iterations =  1.3

     total cpu time spent up to now is       11.5 secs

     total energy              =     -78.21913800 Ry
     estimated scf accuracy    <       0.01069849 Ry

     iteration #  5     ecut=    80.00 Ry     beta= 0.70
     Davidson diagonalization with overlap
     ethr =  3.57E-05,  avg # of iterations =  2.8

     total cpu time spent up to now is       12.0 secs

     total energy              =     -78.22195096 Ry
     estimated scf accuracy    <       0.00053043 Ry

     iteration #  6     ecut=    80.00 Ry     beta= 0.70
     Davidson diagonalization with overlap
     ethr =  1.77E-06,  avg # of iterations =  4.1

     total cpu time spent up to now is       12.5 secs

     total energy              =     -78.22202668 Ry
     estimated scf accuracy    <       0.00003733 Ry

     iteration #  7     ecut=    80.00 Ry     beta= 0.70
     Davidson diagonalization with overlap
     ethr =  1.24E-07,  avg # of iterations =  3.0

     total cpu time spent up to now is       13.0 secs

     total energy              =     -78.22203501 Ry
     estimated scf accuracy    <       0.00000222 Ry

     iteration #  8     ecut=    80.00 Ry     beta= 0.70
     Davidson diagonalization with overlap
     ethr =  7.40E-09,  avg # of iterations =  3.9

     total cpu time spent up to now is       13.6 secs

     End of self-consistent calculation

          k = 0.0000 0.0000 0.0000 (  3233 PWs)   bands (ev):

   -28.4514 -28.4116  -0.2267   8.0816   8.0979   8.0979   8.3271   8.3271
     9.3029   9.3773  13.8142  17.3478  17.3478  18.4085  18.9512  18.9512
    19.3150  20.8310  21.2820

          k = 0.0000 0.0000 0.1884 (  3250 PWs)   bands (ev):

   -28.4482 -28.4131   0.0629   6.7873   8.2307   8.4038   8.4038   8.6309
     8.6309  10.5776  15.0560  15.6063  15.6063  16.3046  16.3046  18.1517
    18.2075  22.8295  23.3839

          k = 0.0000 0.0000 0.3769 (  3256 PWs)   bands (ev):

   -28.4384 -28.4181   0.9296   4.3434   8.6714   9.2864   9.2864   9.5050
     9.5050  10.1651  13.2439  13.2439  13.6171  13.6171  16.2592  17.0098
    20.1720  25.8145  25.8145

          k = 0.0000 0.0000-0.5653 (  3280 PWs)   bands (ev):

   -28.4273 -28.4273   2.3646   2.3646   9.3654   9.3654  10.3164  10.3164
    10.3164  10.3164  11.9402  11.9402  11.9402  11.9402  16.4461  16.4461
    24.5032  24.5032  27.6392

          k = 0.0000 0.2027 0.0000 (  3244 PWs)   bands (ev):

   -28.4480 -28.4149   0.0705   5.3491   6.7429   7.5353   9.7212  10.2447
    10.3646  11.6717  13.9172  14.9901  16.5783  17.2866  18.5344  19.0019
    19.5364  20.4109  20.7111

          k = 0.0000 0.2027 0.1884 (  3250 PWs)   bands (ev):

   -28.4448 -28.4159   0.3619   5.5670   6.9258   7.0591   8.3913  10.6275
    10.7395  11.6142  14.0044  14.5729  15.3330  16.4959  17.9143  18.9229
    20.2761  20.5628  20.7131

          k = 0.0000 0.2027 0.3769 (  3267 PWs)   bands (ev):

   -28.4363 -28.4199   1.2314   4.5729   6.5201   7.9957   8.4854  10.0355
    10.7515  10.9797  12.5622  13.8438  14.8186  15.4293  17.2715  18.2291
    20.3541  22.3163  22.9067

          k = 0.0000 0.2027-0.5653 (  3248 PWs)   bands (ev):

   -28.4265 -28.4265   2.6599   2.6599   7.6790   7.6790   9.4934   9.4934
    10.0429  10.0429  13.4325  13.4325  14.1557  14.1557  17.2921  17.2921
    23.8661  23.8661  24.4966

          k = 0.0000 0.4055 0.0000 (  3236 PWs)   bands (ev):

   -28.4397 -28.4222   0.8508   3.2596   6.0023   7.0514  10.7178  12.3121
    12.6475  13.1080  14.0017  14.1026  15.9553  16.2461  16.3529  16.4907
    19.1743  19.8396  23.0778

          k = 0.0000 0.4055 0.1884 (  3237 PWs)   bands (ev):

   -28.4374 -28.4220   1.1541   3.4951   6.3224   6.9435   8.7332  10.7325
    12.3119  12.9335  14.2414  15.1554  16.1745  16.4838  17.1283  17.7444
    19.8219  20.3339  21.7037

          k = 0.0000 0.4055 0.3769 (  3229 PWs)   bands (ev):

   -28.4314 -28.4227   2.0493   4.1037   5.7597   7.0392   7.2742   9.5271
    10.9026  11.0941  14.6145  15.7160  16.9822  17.3088  18.6343  19.3037
    20.3732  20.9249  21.9981

          k = 0.0000 0.4055-0.5653 (  3248 PWs)   bands (ev):

   -28.4260 -28.4260   3.4490   3.4490   5.6853   5.6853   8.8281   8.8281
     9.9641   9.9641  15.9428  15.9428  16.4207  16.4207  19.8963  19.8964
    20.2125  20.2125  22.1614

          k = 0.1756 0.3041 0.0000 (  3227 PWs)   bands (ev):

   -28.4417 -28.4201   0.6284   4.1257   4.8500   9.2461   9.6689  10.3982
    13.2323  13.5125  13.7271  14.1325  14.3937  16.0904  17.8934  18.9053
    19.0101  19.8483  21.1473

          k = 0.1756 0.3041 0.1884 (  3242 PWs)   bands (ev):

   -28.4391 -28.4206   0.9263   4.3873   5.0274   8.0944   9.4535  10.1298
    11.5944  11.9793  14.7909  15.0683  15.8990  16.3014  17.6763  18.8407
    19.4945  20.1800  21.9001

          k = 0.1756 0.3041 0.3769 (  3245 PWs)   bands (ev):

   -28.4326 -28.4221   1.8093   4.8518   5.1507   6.5285   8.7515   9.4663
    10.5739  11.1529  14.3609  14.7804  16.2481  16.8634  18.9898  19.5700
    20.4733  20.7648  22.1907

          k = 0.1756 0.3041-0.5653 (  3254 PWs)   bands (ev):

   -28.4262 -28.4262   3.2280   3.2280   6.2294   6.2294   8.1997   8.1997
    11.0982  11.0982  13.8801  13.8801  17.0926  17.0926  18.7914  18.7914
    20.8258  20.8258  24.1284

          k = 0.1756 0.5069 0.0000 (  3226 PWs)   bands (ev):

   -28.4347 -28.4266   1.2629   3.0642   4.2999   9.1680  11.4068  12.2393
    12.2669  12.2716  13.7942  13.9487  14.8740  15.1898  17.9512  18.9953
    19.7257  20.6221  21.6973

          k = 0.1756 0.5069 0.1884 (  3232 PWs)   bands (ev):

   -28.4330 -28.4260   1.5825   3.2898   4.5210   9.0338   9.0727  10.7469
    11.2315  12.8486  12.9519  16.5929  16.7955  17.0499  17.7127  18.2329
    20.0926  20.2486  20.8052

          k = 0.1756 0.5069 0.3769 (  3237 PWs)   bands (ev):

   -28.4288 -28.4251   2.5291   3.9141   5.0380   6.4245   7.9200   9.1826
    10.6938  12.4725  13.5139  15.8084  18.4828  18.4859  19.2137  19.4664
    20.1599  20.5982  21.4400

          k = 0.1756 0.5069-0.5653 (  3244 PWs)   bands (ev):

   -28.4258 -28.4258   3.9796   3.9796   5.0545   5.0545   7.7325   7.7325
    11.5729  11.5729  14.5202  14.5202  18.3547  18.3547  19.5824  19.5824
    21.6010  21.6010  22.5146

     the Fermi energy is    18.6088 ev

!    total energy              =     -78.22203586 Ry
     estimated scf accuracy    <          8.2E-09 Ry
     smearing contrib. (-TS)   =      -0.00028343 Ry
     internal energy E=F+TS    =     -78.22175243 Ry

     The total energy is F=E-TS. E is the sum of the following terms:
     one-electron contribution =      33.66182599 Ry
     hartree contribution      =       5.56421931 Ry
     xc contribution           =     -28.77506578 Ry
     ewald contribution        =     -88.67273195 Ry

     convergence has been achieved in   8 iterations

     Forces acting on atoms (cartesian axes, Ry/au):

     atom    1 type  1   force =    -0.03802270    0.02195241    0.00000000
     atom    2 type  1   force =     0.03802270   -0.02195241   -0.00000000
     atom    3 type  1   force =    -0.03802270   -0.02195241    0.00000000
     atom    4 type  1   force =     0.03802270    0.02195241    0.00000000
     atom    5 type  1   force =    -0.00000000   -0.04390483    0.00000000
     atom    6 type  1   force =     0.00000000    0.04390483   -0.00000000
     atom    7 type  2   force =     0.00000000    0.00000000   -0.00000000
     atom    8 type  2   force =     0.00000000    0.00000000    0.00000000
     The non-local contrib.  to forces
     atom    1 type  1   force =    -0.04310449    0.02488639    0.00000000
     atom    2 type  1   force =     0.04310449   -0.02488639    0.00000000
     atom    3 type  1   force =    -0.04310449   -0.02488639    0.00000000
     atom    4 type  1   force =     0.04310449    0.02488639    0.00000000
     atom    5 type  1   force =     0.00000000   -0.04977277    0.00000000
     atom    6 type  1   force =    -0.00000000    0.04977277   -0.00000000
     atom    7 type  2   force =    -0.00000000   -0.00000000    0.00000000
     atom    8 type  2   force =     0.00000000    0.00000000    0.00000000
     The ionic contribution  to forces
     atom    1 type  1   force =    -0.17459984    0.10080526   -0.00000000
     atom    2 type  1   force =     0.17459984   -0.10080526   -0.00000000
     atom    3 type  1   force =    -0.17459984   -0.10080518   -0.00000000
     atom    4 type  1   force =     0.17459984    0.10080518   -0.00000000
     atom    5 type  1   force =     0.00000008   -0.20161049   -0.00000000
     atom    6 type  1   force =    -0.00000008    0.20161049   -0.00000000
     atom    7 type  2   force =     0.00000008   -0.00000004   -0.00000000
     atom    8 type  2   force =    -0.00000008    0.00000004   -0.00000000
     The local contribution  to forces
     atom    1 type  1   force =     0.17791126   -0.10271712   -0.00000000
     atom    2 type  1   force =    -0.17791126    0.10271712   -0.00000000
     atom    3 type  1   force =     0.17791126    0.10271712   -0.00000000
     atom    4 type  1   force =    -0.17791126   -0.10271712   -0.00000000
     atom    5 type  1   force =     0.00000000    0.20543423   -0.00000000
     atom    6 type  1   force =    -0.00000000   -0.20543423   -0.00000000
     atom    7 type  2   force =     0.00000080   -0.00000046    0.00000000
     atom    8 type  2   force =    -0.00000080    0.00000046    0.00000000
     The core correction contribution to forces
     atom    1 type  1   force =     0.00182540   -0.00105390   -0.00000000
     atom    2 type  1   force =    -0.00182540    0.00105390   -0.00000000
     atom    3 type  1   force =     0.00182540    0.00105390   -0.00000000
     atom    4 type  1   force =    -0.00182540   -0.00105390   -0.00000000
     atom    5 type  1   force =    -0.00000000    0.00210779   -0.00000000
     atom    6 type  1   force =    -0.00000000   -0.00210779   -0.00000000
     atom    7 type  2   force =     0.00000000    0.00000000    0.00000000
     atom    8 type  2   force =     0.00000000    0.00000000    0.00000000
     The Hubbard contrib.    to forces
     atom    1 type  1   force =     0.00000000    0.00000000    0.00000000
     atom    2 type  1   force =     0.00000000    0.00000000    0.00000000
     atom    3 type  1   force =     0.00000000    0.00000000    0.00000000
     atom    4 type  1   force =     0.00000000    0.00000000    0.00000000
     atom    5 type  1   force =     0.00000000    0.00000000    0.00000000
     atom    6 type  1   force =     0.00000000    0.00000000    0.00000000
     atom    7 type  2   force =     0.00000000    0.00000000    0.00000000
     atom    8 type  2   force =     0.00000000    0.00000000    0.00000000
     The SCF correction term to forces
     atom    1 type  1   force =    -0.00005506    0.00003179   -0.00000000
     atom    2 type  1   force =     0.00005506   -0.00003179   -0.00000000
     atom    3 type  1   force =    -0.00005506   -0.00003179   -0.00000000
     atom    4 type  1   force =     0.00005506    0.00003179   -0.00000000
     atom    5 type  1   force =    -0.00000000   -0.00006358   -0.00000000
     atom    6 type  1   force =     0.00000000    0.00006358    0.00000000
     atom    7 type  2   force =    -0.00000000    0.00000000   -0.00000000
     atom    8 type  2   force =     0.00000000   -0.00000000   -0.00000000

     Total force =     0.107544     Total SCF correction =     0.000156


     Computing stress (Cartesian axis) and pressure

          total   stress  (Ry/bohr**3)                   (kbar)     P=     1768.69
   0.01161821  -0.00000000   0.00000000         1709.10       -0.00        0.00
  -0.00000000   0.01161821  -0.00000000           -0.00     1709.10       -0.00
   0.00000000  -0.00000000   0.01283341            0.00       -0.00     1887.86

     Energy error            =      2.8E+00 Ry
     Gradient error          =      4.4E-02 Ry/Bohr
     Cell gradient error     =      1.4E+03 kbar

     number of scf cycles    =   2
     number of bfgs steps    =   1

     enthalpy           old  =     -74.0720491531 Ry
     enthalpy           new  =     -76.8583649220 Ry

     CASE: enthalpy          _new < enthalpy          _old

     new trust radius        =       0.2311600627 bohr
ibrav =      4
 celldm(1) =      8.77426490
 celldm(3) =      0.78796195
Input lattice vectors:
     1.18719011    -0.00000000     0.00000000
    -0.59359505     1.02813679    -0.00000000
     0.00000000    -0.00000000     0.93546063
New lattice vectors in INITIAL alat:
     1.18719011     0.00000000     0.00000000
    -0.59359505     1.02813679     0.00000000
     0.00000000     0.00000000     0.93546063
New lattice vectors in NEW alat (for information only):
     1.00000000     0.00000000     0.00000000
    -0.50000000     0.86602540     0.00000000
     0.00000000     0.00000000     0.78796195
Discrepancy in bohr =     0.000000    0.000000    0.000000
     new conv_thr            =       0.0000000044 Ry

     new unit-cell volume =    460.96516 a.u.^3 (    68.30799 Ang^3 )
     density =      4.43395 g/cm^3

CELL_PARAMETERS (alat=  7.39078337)
   1.187190107   0.000000000   0.000000000
  -0.593595054   1.028136792   0.000000000
   0.000000000   0.000000000   0.935460631

ATOMIC_POSITIONS (crystal)
Si            0.1679936024        0.8320063976        0.7500000000
Si            0.8320063976        0.1679936024        0.2500000000
Si            0.3359872048        0.1679936024        0.2500000000
Si            0.6640127952        0.8320063976        0.7500000000
Si            0.1679936024        0.3359872048        0.7500000000
Si            0.8320063976        0.6640127952        0.2500000000
Li            0.3333333300        0.6666666700        0.2500000000
Li            0.6666666700        0.3333333300        0.7500000000



     Writing config-only to output data dir ./output/SiLi.save/
     NEW-OLD atomic charge density approx. for the potential
     extrapolated charge   33.88753, renormalised to   30.00000

     total cpu time spent up to now is       15.1 secs

     Self-consistent Calculation

     iteration #  1     ecut=    80.00 Ry     beta= 0.70
     Davidson diagonalization with overlap
     c_bands:  1 eigenvalues not converged
     c_bands:  1 eigenvalues not converged
     c_bands:  1 eigenvalues not converged
     c_bands:  1 eigenvalues not converged
     ethr =  1.00E-06,  avg # of iterations = 14.2

     total cpu time spent up to now is       16.6 secs

     total energy              =     -78.74517700 Ry
     estimated scf accuracy    <       0.02556794 Ry

     iteration #  2     ecut=    80.00 Ry     beta= 0.70
     Davidson diagonalization with overlap
     ethr =  8.52E-05,  avg # of iterations =  3.1

     total cpu time spent up to now is       17.1 secs

     total energy              =     -78.77789999 Ry
     estimated scf accuracy    <       0.03080128 Ry

     iteration #  3     ecut=    80.00 Ry     beta= 0.70
     Davidson diagonalization with overlap
     ethr =  8.52E-05,  avg # of iterations =  2.0

     total cpu time spent up to now is       17.5 secs

     total energy              =     -78.78137764 Ry
     estimated scf accuracy    <       0.00246466 Ry

     iteration #  4     ecut=    80.00 Ry     beta= 0.70
     Davidson diagonalization with overlap
     ethr =  8.22E-06,  avg # of iterations =  1.9

     total cpu time spent up to now is       17.9 secs

     total energy              =     -78.78049793 Ry
     estimated scf accuracy    <       0.00158457 Ry

     iteration #  5     ecut=    80.00 Ry     beta= 0.70
     Davidson diagonalization with overlap
     ethr =  5.28E-06,  avg # of iterations =  2.0

     total cpu time spent up to now is       18.3 secs

     total energy              =     -78.78069489 Ry
     estimated scf accuracy    <       0.00008596 Ry

     iteration #  6     ecut=    80.00 Ry     beta= 0.70
     Davidson diagonalization with overlap
     ethr =  2.87E-07,  avg # of iterations =  3.9

     total cpu time spent up to now is       18.8 secs

     total energy              =     -78.78072053 Ry
     estimated scf accuracy    <       0.00000453 Ry

     iteration #  7     ecut=    80.00 Ry     beta= 0.70
     Davidson diagonalization with overlap
     ethr =  1.51E-08,  avg # of iterations =  3.5

     total cpu time spent up to now is       19.4 secs

     total energy              =     -78.78071987 Ry
     estimated scf accuracy    <       0.00000373 Ry

     iteration #  8     ecut=    80.00 Ry     beta= 0.70
     Davidson diagonalization with overlap
     ethr =  1.24E-08,  avg # of iterations =  2.0

     total cpu time spent up to now is       19.8 secs

     total energy              =     -78.78072052 Ry
     estimated scf accuracy    <       0.00000009 Ry

     iteration #  9     ecut=    80.00 Ry     beta= 0.70
     Davidson diagonalization with overlap
     ethr =  3.10E-10,  avg # of iterations =  4.5

     total cpu time spent up to now is       20.5 secs

     total energy              =     -78.78072056 Ry
     estimated scf accuracy    <          6.9E-09 Ry

     iteration # 10     ecut=    80.00 Ry     beta= 0.70
     Davidson diagonalization with overlap
     ethr =  2.29E-11,  avg # of iterations =  2.9

     total cpu time spent up to now is       20.9 secs

     End of self-consistent calculation

          k = 0.0000 0.0000 0.0000 (  3233 PWs)   bands (ev):

   -30.5386 -30.5184  -1.5210   6.1307   6.1307   6.4493   6.9556   6.9556
     7.4809   7.5756  11.1993  14.5784  14.5784  16.2590  16.7721  16.7721
    17.4237  17.4676  17.8764

          k = 0.0000 0.0000 0.1782 (  3250 PWs)   bands (ev):

   -30.5387 -30.5196  -1.2505   5.0521   6.4117   6.4117   6.6007   7.2315
     7.2315   8.8148  12.4257  12.9456  12.9456  14.1231  14.1231  15.8969
    16.2903  19.8351  20.4254

          k = 0.0000 0.0000 0.3563 (  3256 PWs)   bands (ev):

   -30.5342 -30.5229  -0.4408   2.7510   7.0419   7.2361   7.2361   8.0222
     8.0222   8.4617  10.7584  10.7584  11.6531  11.6531  14.0386  15.1102
    17.2213  22.8708  22.8708

          k = 0.0000 0.0000-0.5345 (  3280 PWs)   bands (ev):

   -30.5290 -30.5290   0.8998   0.8998   7.7168   7.7168   8.4175   8.4175
     8.4175   8.4175   9.8936   9.8936   9.8936   9.8936  14.4278  14.4278
    21.1171  21.1171  24.1243

          k = 0.0000 0.1945 0.0000 (  3244 PWs)   bands (ev):

   -30.5372 -30.5207  -1.2499   3.8045   5.1252   6.0384   7.7893   8.4023
     8.6050   9.7119  11.3633  12.7042  14.0244  15.3096  15.9291  16.3414
    17.0144  17.8814  17.9604

          k = 0.0000 0.1945 0.1782 (  3250 PWs)   bands (ev):

   -30.5366 -30.5213  -0.9779   4.0200   5.2404   5.4119   6.7167   8.8521
     8.8638   9.7512  11.7553  12.1663  12.9166  14.0736  15.4536  16.7089
    17.8667  18.0482  18.1111

          k = 0.0000 0.1945 0.3563 (  3267 PWs)   bands (ev):

   -30.5330 -30.5250  -0.1653   2.9883   4.8561   6.2633   6.8424   8.2439
     8.9738   9.1505  10.3493  11.6709  12.6637  13.1573  14.9517  16.1624
    17.4422  19.5688  20.2438

          k = 0.0000 0.1945-0.5345 (  3248 PWs)   bands (ev):

   -30.5274 -30.5274   1.1735   1.1735   5.9659   5.9659   7.6404   7.6404
     8.3629   8.3629  11.3054  11.3054  11.9364  11.9364  15.2497  15.2497
    20.9517  20.9517  21.2234

          k = 0.0000 0.3891 0.0000 (  3236 PWs)   bands (ev):

   -30.5329 -30.5242  -0.5649   1.9162   4.4556   5.5582   8.6379  10.2331
    10.6716  11.1692  11.3926  12.0302  13.4990  14.1044  14.1381  14.5410
    16.6291  16.6383  19.6960

          k = 0.0000 0.3891 0.1782 (  3237 PWs)   bands (ev):

   -30.5324 -30.5239  -0.2843   2.1423   4.7449   5.4404   6.6818   8.8746
    10.4779  10.9416  12.0091  12.9677  13.7948  13.9901  14.7818  15.5357
    17.1900  17.5506  19.1311

          k = 0.0000 0.3891 0.3563 (  3229 PWs)   bands (ev):

   -30.5289 -30.5248   0.5491   2.7279   4.0170   5.3725   5.6066   7.7973
     8.9262   9.3631  12.4808  13.6021  14.8334  14.9888  16.3092  16.6339
    17.3171  18.2870  19.0778

          k = 0.0000 0.3891-0.5345 (  3248 PWs)   bands (ev):

   -30.5274 -30.5274   1.8864   1.8864   4.1200   4.1200   7.0192   7.0192
     8.2688   8.2688  13.7195  13.7195  14.3009  14.3009  17.4244  17.4244
    17.4516  17.4516  19.4345

          k = 0.1685 0.2918 0.0000 (  3227 PWs)   bands (ev):

   -30.5339 -30.5226  -0.7530   2.6631   3.4591   7.7056   7.8016   8.3804
    10.7492  11.5343  11.5381  11.8636  12.3639  13.9239  15.2783  16.3260
    16.5298  17.5634  18.3096

          k = 0.1685 0.2918 0.1782 (  3242 PWs)   bands (ev):

   -30.5330 -30.5238  -0.4759   2.9065   3.6371   6.1630   7.8912   8.1473
     9.6267  10.1042  12.5925  12.8350  13.6542  13.7415  15.3359  16.2846
    16.9062  17.6610  19.0821

          k = 0.1685 0.2918 0.3563 (  3245 PWs)   bands (ev):

   -30.5300 -30.5254   0.3484   3.3493   3.6167   4.7861   6.9100   7.7556
     8.8625   9.2626  12.2486  12.6352  13.8864  14.7921  16.4382  16.6914
    18.0266  18.2004  19.3500

          k = 0.1685 0.2918-0.5345 (  3254 PWs)   bands (ev):

   -30.5277 -30.5277   1.6903   1.6903   4.6242   4.6242   6.4601   6.4601
     9.3348   9.3348  11.7738  11.7738  14.7276  14.7276  16.5352  16.5352
    18.1395  18.1395  21.2482

          k = 0.1685 0.4863 0.0000 (  3226 PWs)   bands (ev):

   -30.5303 -30.5261  -0.2305   1.7728   2.9194   7.5068   9.1248  10.2535
    10.4448  10.4888  11.1474  11.7745  12.6455  13.0002  15.6788  16.5911
    17.0667  17.6941  19.0887

          k = 0.1685 0.4863 0.1782 (  3232 PWs)   bands (ev):

   -30.5297 -30.5263   0.0598   1.9932   3.1342   6.8791   7.3552   8.9927
     9.3520  10.9548  11.0055  13.7045  14.5331  14.6220  15.4062  15.9307
    17.4802  17.7139  18.0356

          k = 0.1685 0.4863 0.3563 (  3237 PWs)   bands (ev):

   -30.5277 -30.5266   0.9238   2.6061   3.6537   4.4382   6.2307   7.4088
     8.9376  10.5730  11.6575  13.6179  15.8174  16.1945  16.7035  16.8194
    17.5567  17.5927  18.7541

          k = 0.1685 0.4863-0.5345 (  3244 PWs)   bands (ev):

   -30.5270 -30.5270   2.3127   2.3127   3.6145   3.6145   6.0109   6.0109
     9.7525   9.7525  12.5979  12.5979  15.5812  15.5812  17.2117  17.2117
    18.7451  18.7451  20.0952

     the Fermi energy is    16.2364 ev

!    total energy              =     -78.78072057 Ry
     estimated scf accuracy    <          5.4E-10 Ry
     smearing contrib. (-TS)   =      -0.00134068 Ry
     internal energy E=F+TS    =     -78.77937988 Ry

     The total energy is F=E-TS. E is the sum of the following terms:
     one-electron contribution =      28.21278296 Ry
     hartree contribution      =       5.62481158 Ry
     xc contribution           =     -27.94166886 Ry
     ewald contribution        =     -84.67530556 Ry

     convergence has been achieved in  10 iterations

     Forces acting on atoms (cartesian axes, Ry/au):

     atom    1 type  1   force =     0.02147470   -0.01239843    0.00000000
     atom    2 type  1   force =    -0.02147470    0.01239843   -0.00000000
     atom    3 type  1   force =     0.02147470    0.01239843   -0.00000000
     atom    4 type  1   force =    -0.02147470   -0.01239843    0.00000000
     atom    5 type  1   force =     0.00000000    0.02479685    0.00000000
     atom    6 type  1   force =    -0.00000000   -0.02479685    0.00000000
     atom    7 type  2   force =     0.00000000    0.00000000    0.00000000
     atom    8 type  2   force =     0.00000000    0.00000000   -0.00000000
     The non-local contrib.  to forces
     atom    1 type  1   force =    -0.00223668    0.00129135   -0.00000000
     atom    2 type  1   force =     0.00223668   -0.00129135   -0.00000000
     atom    3 type  1   force =    -0.00223668   -0.00129135   -0.00000000
     atom    4 type  1   force =     0.00223668    0.00129135    0.00000000
     atom    5 type  1   force =     0.00000000   -0.00258269   -0.00000000
     atom    6 type  1   force =    -0.00000000    0.00258269    0.00000000
     atom    7 type  2   force =     0.00000000    0.00000000    0.00000000
     atom    8 type  2   force =     0.00000000    0.00000000    0.00000000
     The ionic contribution  to forces
     atom    1 type  1   force =     0.15551251   -0.08978519   -0.00000000
     atom    2 type  1   force =    -0.15551251    0.08978519   -0.00000000
     atom    3 type  1   force =     0.15551251    0.08978527   -0.00000000
     atom    4 type  1   force =    -0.15551251   -0.08978527   -0.00000000
     atom    5 type  1   force =     0.00000007    0.17957042   -0.00000000
     atom    6 type  1   force =    -0.00000007   -0.17957042   -0.00000000
     atom    7 type  2   force =     0.00000007   -0.00000004   -0.00000000
     atom    8 type  2   force =    -0.00000007    0.00000004   -0.00000000
     The local contribution  to forces
     atom    1 type  1   force =    -0.13035047    0.07525788   -0.00000000
     atom    2 type  1   force =     0.13035047   -0.07525788   -0.00000000
     atom    3 type  1   force =    -0.13035047   -0.07525788   -0.00000000
     atom    4 type  1   force =     0.13035047    0.07525788   -0.00000000
     atom    5 type  1   force =     0.00000000   -0.15051575   -0.00000000
     atom    6 type  1   force =    -0.00000000    0.15051575   -0.00000000
     atom    7 type  2   force =     0.00000083   -0.00000048    0.00000000
     atom    8 type  2   force =    -0.00000083    0.00000048    0.00000000
     The core correction contribution to forces
     atom    1 type  1   force =    -0.00146457    0.00084557    0.00000000
     atom    2 type  1   force =     0.00146457   -0.00084557    0.00000000
     atom    3 type  1   force =    -0.00146457   -0.00084557   -0.00000000
     atom    4 type  1   force =     0.00146457    0.00084557    0.00000000
     atom    5 type  1   force =     0.00000000   -0.00169114    0.00000000
     atom    6 type  1   force =    -0.00000000    0.00169114   -0.00000000
     atom    7 type  2   force =     0.00000000    0.00000000    0.00000000
     atom    8 type  2   force =     0.00000000    0.00000000    0.00000000
     The Hubbard contrib.    to forces
     atom    1 type  1   force =     0.00000000    0.00000000    0.00000000
     atom    2 type  1   force =     0.00000000    0.00000000    0.00000000
     atom    3 type  1   force =     0.00000000    0.00000000    0.00000000
     atom    4 type  1   force =     0.00000000    0.00000000    0.00000000
     atom    5 type  1   force =     0.00000000    0.00000000    0.00000000
     atom    6 type  1   force =     0.00000000    0.00000000    0.00000000
     atom    7 type  2   force =     0.00000000    0.00000000    0.00000000
     atom    8 type  2   force =     0.00000000    0.00000000    0.00000000
     The SCF correction term to forces
     atom    1 type  1   force =     0.00001389   -0.00000802    0.00000000
     atom    2 type  1   force =    -0.00001389    0.00000802   -0.00000000
     atom    3 type  1   force =     0.00001389    0.00000802   -0.00000000
     atom    4 type  1   force =    -0.00001389   -0.00000802   -0.00000000
     atom    5 type  1   force =    -0.00000000    0.00001603   -0.00000000
     atom    6 type  1   force =     0.00000000   -0.00001603    0.00000000
     atom    7 type  2   force =     0.00000000   -0.00000000    0.00000000
     atom    8 type  2   force =    -0.00000000    0.00000000    0.00000000

     Total force =     0.060740     Total SCF correction =     0.000039


     Computing stress (Cartesian axis) and pressure

          total   stress  (Ry/bohr**3)                   (kbar)     P=     1023.23
   0.00678621   0.00000000  -0.00000000          998.29        0.00       -0.00
   0.00000000   0.00678621   0.00000000            0.00      998.29        0.00
  -0.00000000   0.00000000   0.00729483           -0.00        0.00     1073.11

     Energy error            =      3.6E-01 Ry
     Gradient error          =      2.5E-02 Ry/Bohr
     Cell gradient error     =      5.7E+02 kbar

     number of scf cycles    =   3
     number of bfgs steps    =   2

     enthalpy           old  =     -76.8583649220 Ry
     enthalpy           new  =     -77.2139318247 Ry

     CASE: enthalpy          _new < enthalpy          _old

     new trust radius        =       0.1959296787 bohr
ibrav =      4
 celldm(1) =      9.08889782
 celldm(3) =      0.79539376
Input lattice vectors:
     1.22976109     0.00000000    -0.00000000
    -0.61488055     1.06500434     0.00000000
    -0.00000000     0.00000000     0.97814429
New lattice vectors in INITIAL alat:
     1.22976109     0.00000000     0.00000000
    -0.61488055     1.06500434     0.00000000
     0.00000000     0.00000000     0.97814429
New lattice vectors in NEW alat (for information only):
     1.00000000     0.00000000     0.00000000
    -0.50000000     0.86602540     0.00000000
     0.00000000     0.00000000     0.79539376
Discrepancy in bohr =     0.000000    0.000000    0.000000
     new conv_thr            =       0.0000000025 Ry

     new unit-cell volume =    517.18566 a.u.^3 (    76.63901 Ang^3 )
     density =      3.95196 g/cm^3

CELL_PARAMETERS (alat=  7.39078337)
   1.229761090   0.000000000   0.000000000
  -0.614880545   1.065004345   0.000000000
   0.000000000   0.000000000   0.978144295

ATOMIC_POSITIONS (crystal)
Si            0.1713156593        0.8286843407        0.7500000000
Si            0.8286843407        0.1713156593        0.2500000000
Si            0.3426313186        0.1713156593        0.2500000000
Si            0.6573686814        0.8286843407        0.7500000000
Si            0.1713156593        0.3426313186        0.7500000000
Si            0.8286843407        0.6573686814        0.2500000000
Li            0.3333333300        0.6666666700        0.2500000000
Li            0.6666666700        0.3333333300        0.7500000000



     Writing config-only to output data dir ./output/SiLi.save/
     NEW-OLD atomic charge density approx. for the potential
     extrapolated charge   33.25975, renormalised to   30.00000

     total cpu time spent up to now is       22.4 secs

     Self-consistent Calculation

     iteration #  1     ecut=    80.00 Ry     beta= 0.70
     Davidson diagonalization with overlap
     c_bands:  1 eigenvalues not converged
     ethr =  1.00E-06,  avg # of iterations = 13.6

     total cpu time spent up to now is       23.8 secs

     total energy              =     -79.06322330 Ry
     estimated scf accuracy    <       0.01693010 Ry

     iteration #  2     ecut=    80.00 Ry     beta= 0.70
     Davidson diagonalization with overlap
     ethr =  5.64E-05,  avg # of iterations =  2.5

     total cpu time spent up to now is       24.4 secs

     total energy              =     -79.08336313 Ry
     estimated scf accuracy    <       0.00856942 Ry

     iteration #  3     ecut=    80.00 Ry     beta= 0.70
     Davidson diagonalization with overlap
     ethr =  2.86E-05,  avg # of iterations =  2.0

     total cpu time spent up to now is       24.8 secs

     total energy              =     -79.08465403 Ry
     estimated scf accuracy    <       0.00094697 Ry

     iteration #  4     ecut=    80.00 Ry     beta= 0.70
     Davidson diagonalization with overlap
     ethr =  3.16E-06,  avg # of iterations =  3.1

     total cpu time spent up to now is       25.2 secs

     total energy              =     -79.08394930 Ry
     estimated scf accuracy    <       0.00116598 Ry

     iteration #  5     ecut=    80.00 Ry     beta= 0.70
     Davidson diagonalization with overlap
     ethr =  3.16E-06,  avg # of iterations =  2.1

     total cpu time spent up to now is       25.7 secs

     total energy              =     -79.08404521 Ry
     estimated scf accuracy    <       0.00033941 Ry

     iteration #  6     ecut=    80.00 Ry     beta= 0.70
     Davidson diagonalization with overlap
     ethr =  1.13E-06,  avg # of iterations =  1.0

     total cpu time spent up to now is       26.1 secs

     total energy              =     -79.08402161 Ry
     estimated scf accuracy    <       0.00010262 Ry

     iteration #  7     ecut=    80.00 Ry     beta= 0.70
     Davidson diagonalization with overlap
     ethr =  3.42E-07,  avg # of iterations =  2.0

     total cpu time spent up to now is       26.5 secs

     total energy              =     -79.08403494 Ry
     estimated scf accuracy    <       0.00000493 Ry

     iteration #  8     ecut=    80.00 Ry     beta= 0.70
     Davidson diagonalization with overlap
     ethr =  1.64E-08,  avg # of iterations =  3.8

     total cpu time spent up to now is       27.0 secs

     total energy              =     -79.08403696 Ry
     estimated scf accuracy    <       0.00000030 Ry

     iteration #  9     ecut=    80.00 Ry     beta= 0.70
     Davidson diagonalization with overlap
     ethr =  1.01E-09,  avg # of iterations =  2.4

     total cpu time spent up to now is       27.5 secs

     total energy              =     -79.08403702 Ry
     estimated scf accuracy    <       0.00000001 Ry

     iteration # 10     ecut=    80.00 Ry     beta= 0.70
     Davidson diagonalization with overlap
     ethr =  4.52E-11,  avg # of iterations =  3.6

     total cpu time spent up to now is       28.0 secs

     total energy              =     -79.08403702 Ry
     estimated scf accuracy    <          2.5E-09 Ry

     iteration # 11     ecut=    80.00 Ry     beta= 0.70
     Davidson diagonalization with overlap
     ethr =  8.38E-12,  avg # of iterations =  2.7

     total cpu time spent up to now is       28.5 secs

     End of self-consistent calculation

          k = 0.0000 0.0000 0.0000 (  3233 PWs)   bands (ev):

   -32.2547 -32.2443  -2.2125   4.9643   4.9643   5.3828   5.6313   5.6949
     5.6949   6.3192   9.7574  12.9165  12.9165  14.9361  14.9429  14.9429
    14.9719  15.3049  15.8133

          k = 0.0000 0.0000 0.1704 (  3250 PWs)   bands (ev):

   -32.2579 -32.2455  -1.9654   3.7441   5.2278   5.2278   5.5174   5.9546
     5.9546   7.2231  10.7983  11.2903  11.2903  12.2202  12.2202  14.3574
    14.4994  17.8079  17.9773

          k = 0.0000 0.0000 0.3408 (  3256 PWs)   bands (ev):

   -32.2560 -32.2485  -1.2260   1.6773   5.9043   6.0087   6.0087   6.7192
     6.7192   7.0538   9.1688   9.1688   9.9278   9.9278  12.2566  13.2915
    15.5137  20.9038  20.9038

          k = 0.0000 0.0000-0.5112 (  3280 PWs)   bands (ev):

   -32.2541 -32.2541  -0.0039  -0.0039   6.4745   6.4745   7.2082   7.2082
     7.2082   7.2082   8.2129   8.2129   8.2129   8.2129  12.6616  12.6616
    18.9736  18.9736  21.5999

          k = 0.0000 0.1878 0.0000 (  3244 PWs)   bands (ev):

   -32.2549 -32.2464  -1.9380   2.7216   3.9974   4.6217   6.6188   6.8642
     7.2785   8.2290   9.9361  11.2070  12.3845  13.5484  13.6622  14.1957
    15.2073  15.8048  16.0694

          k = 0.0000 0.1878 0.1704 (  3250 PWs)   bands (ev):

   -32.2561 -32.2468  -1.6902   2.8963   3.9330   4.2636   5.5139   7.4998
     7.5254   8.4067   9.9608  10.4848  11.2484  12.3944  13.5313  15.0669
    15.6931  16.1600  16.3211

          k = 0.0000 0.1878 0.3408 (  3267 PWs)   bands (ev):

   -32.2552 -32.2515  -0.9506   1.8936   3.7345   5.0570   5.5134   7.0377
     7.6439   7.9235   8.6290   9.9861  10.8911  11.4070  13.1744  14.3189
    15.7748  17.5388  17.9557

          k = 0.0000 0.1878-0.5112 (  3248 PWs)   bands (ev):

   -32.2509 -32.2509   0.2644   0.2644   4.7387   4.7387   6.3574   6.3574
     7.0875   7.0875   9.6673   9.6673  10.2605  10.2605  13.4991  13.4991
    18.7447  18.7447  19.1319

          k = 0.0000 0.3756 0.0000 (  3236 PWs)   bands (ev):

   -32.2522 -32.2479  -1.2022   0.8287   3.3649   4.1593   7.4725   8.5102
     9.2275   9.7353   9.9353  10.3127  11.8841  12.5975  12.6433  12.8586
    13.9777  14.5929  17.4903

          k = 0.0000 0.3756 0.1704 (  3237 PWs)   bands (ev):

   -32.2530 -32.2474  -0.9481   1.0354   3.6325   4.0275   5.5676   7.5216
     8.9580   9.6014  10.2715  11.2006  12.1767  12.3585  13.0632  13.9119
    14.9991  15.3985  17.1607

          k = 0.0000 0.3756 0.3408 (  3229 PWs)   bands (ev):

   -32.2501 -32.2485  -0.1962   1.5653   2.9528   4.1040   4.4314   6.5535
     7.5506   7.9501  10.8260  11.9975  13.0521  13.2337  14.4927  14.6296
    15.4659  16.2386  16.9216

          k = 0.0000 0.3756-0.5112 (  3248 PWs)   bands (ev):

   -32.2513 -32.2513   0.9855   0.9855   2.9346   2.9346   5.7482   5.7482
     6.9550   6.9550  12.0039  12.0039  12.6382  12.6382  15.4088  15.4088
    15.6080  15.6080  17.0947

          k = 0.1626 0.2817 0.0000 (  3227 PWs)   bands (ev):

   -32.2526 -32.2460  -1.4175   1.6314   2.2675   6.2113   6.4568   7.2036
     9.1161  10.0544  10.1213  10.3586  10.7612  12.2916  13.3099  14.1449
    14.6643  15.8169  16.1950

          k = 0.1626 0.2817 0.1704 (  3242 PWs)   bands (ev):

   -32.2528 -32.2485  -1.1665   1.8578   2.4089   4.9502   6.6063   6.7468
     8.3091   8.6596  10.9471  10.9639  12.0494  12.2547  13.5048  14.2232
    14.8632  15.7994  17.1429

          k = 0.1626 0.2817 0.3408 (  3245 PWs)   bands (ev):

   -32.2514 -32.2505  -0.4214   2.1815   2.5166   3.6885   5.6279   6.3446
     7.6294   7.9274  10.5990  10.9049  12.3084  12.8677  14.4654  14.8021
    16.1840  16.4211  17.1614

          k = 0.1626 0.2817-0.5112 (  3254 PWs)   bands (ev):

   -32.2520 -32.2520   0.7800   0.7800   3.4390   3.4390   5.2020   5.2020
     8.0376   8.0376  10.1174  10.1174  12.9325  12.9325  14.7907  14.7907
    15.9756  15.9756  19.0649

          k = 0.1626 0.4695 0.0000 (  3226 PWs)   bands (ev):

   -32.2507 -32.2483  -0.7975   0.6350   1.7749   6.0950   8.0237   8.5510
     8.9424   9.0047   9.6156  10.2335  11.0007  11.5100  14.1134  14.6807
    14.7762  15.4588  16.9770

          k = 0.1626 0.4695 0.1704 (  3232 PWs)   bands (ev):

   -32.2508 -32.2492  -0.5318   0.8344   1.9635   5.8027   5.8847   7.6688
     7.7889   9.5506   9.5890  12.0808  12.6511  12.8315  13.5558  14.3660
    15.3126  15.6687  15.8347

          k = 0.1626 0.4695 0.3408 (  3237 PWs)   bands (ev):

   -32.2506 -32.2495   0.2566   1.3857   2.3990   3.5341   4.8976   6.0301
     7.6382   9.1952  10.2274  11.8628  13.8721  14.1841  14.8400  14.9059
    15.5984  15.7700  16.4891

          k = 0.1626 0.4695-0.5112 (  3244 PWs)   bands (ev):

   -32.2506 -32.2506   1.4668   1.4668   2.3875   2.3875   4.7648   4.7648
     8.3980   8.3980  11.0922  11.0922  13.4856  13.4856  15.3729  15.3729
    16.7233  16.7233  18.0177

     the Fermi energy is    14.2880 ev

!    total energy              =     -79.08403703 Ry
     estimated scf accuracy    <          7.9E-11 Ry
     smearing contrib. (-TS)   =      -0.00140587 Ry
     internal energy E=F+TS    =     -79.08263115 Ry

     The total energy is F=E-TS. E is the sum of the following terms:
     one-electron contribution =      23.94894356 Ry
     hartree contribution      =       5.74844202 Ry
     xc contribution           =     -27.27688861 Ry
     ewald contribution        =     -81.50312812 Ry

     convergence has been achieved in  11 iterations

     Forces acting on atoms (cartesian axes, Ry/au):

     atom    1 type  1   force =    -0.02033566    0.01174080    0.00000000
     atom    2 type  1   force =     0.02033566   -0.01174080    0.00000000
     atom    3 type  1   force =    -0.02033566   -0.01174080    0.00000000
     atom    4 type  1   force =     0.02033566    0.01174080   -0.00000000
     atom    5 type  1   force =     0.00000000   -0.02348160   -0.00000000
     atom    6 type  1   force =    -0.00000000    0.02348160    0.00000000
     atom    7 type  2   force =     0.00000000    0.00000000    0.00000000
     atom    8 type  2   force =     0.00000000   -0.00000000    0.00000000
     The non-local contrib.  to forces
     atom    1 type  1   force =    -0.04492989    0.02594028    0.00000000
     atom    2 type  1   force =     0.04492989   -0.02594028    0.00000000
     atom    3 type  1   force =    -0.04492989   -0.02594028    0.00000000
     atom    4 type  1   force =     0.04492989    0.02594028    0.00000000
     atom    5 type  1   force =     0.00000000   -0.05188056    0.00000000
     atom    6 type  1   force =    -0.00000000    0.05188056   -0.00000000
     atom    7 type  2   force =     0.00000000    0.00000000    0.00000000
     atom    8 type  2   force =     0.00000000    0.00000000    0.00000000
     The ionic contribution  to forces
     atom    1 type  1   force =    -0.09436601    0.05448224    0.00000000
     atom    2 type  1   force =     0.09436601   -0.05448224    0.00000000
     atom    3 type  1   force =    -0.09436601   -0.05448217    0.00000000
     atom    4 type  1   force =     0.09436601    0.05448217    0.00000000
     atom    5 type  1   force =     0.00000006   -0.10896445    0.00000000
     atom    6 type  1   force =    -0.00000006    0.10896445    0.00000000
     atom    7 type  2   force =     0.00000007   -0.00000004   -0.00000000
     atom    8 type  2   force =    -0.00000007    0.00000004    0.00000000
     The local contribution  to forces
     atom    1 type  1   force =     0.11646733   -0.06724244    0.00000000
     atom    2 type  1   force =    -0.11646733    0.06724244    0.00000000
     atom    3 type  1   force =     0.11646733    0.06724244   -0.00000000
     atom    4 type  1   force =    -0.11646733   -0.06724244   -0.00000000
     atom    5 type  1   force =     0.00000000    0.13448489   -0.00000000
     atom    6 type  1   force =    -0.00000000   -0.13448489    0.00000000
     atom    7 type  2   force =     0.00000087   -0.00000050   -0.00000000
     atom    8 type  2   force =    -0.00000087    0.00000050    0.00000000
     The core correction contribution to forces
     atom    1 type  1   force =     0.00249747   -0.00144191   -0.00000000
     atom    2 type  1   force =    -0.00249747    0.00144191   -0.00000000
     atom    3 type  1   force =     0.00249747    0.00144191   -0.00000000
     atom    4 type  1   force =    -0.00249747   -0.00144191   -0.00000000
     atom    5 type  1   force =    -0.00000000    0.00288382   -0.00000000
     atom    6 type  1   force =    -0.00000000   -0.00288382    0.00000000
     atom    7 type  2   force =     0.00000000    0.00000000    0.00000000
     atom    8 type  2   force =     0.00000000    0.00000000    0.00000000
     The Hubbard contrib.    to forces
     atom    1 type  1   force =     0.00000000    0.00000000    0.00000000
     atom    2 type  1   force =     0.00000000    0.00000000    0.00000000
     atom    3 type  1   force =     0.00000000    0.00000000    0.00000000
     atom    4 type  1   force =     0.00000000    0.00000000    0.00000000
     atom    5 type  1   force =     0.00000000    0.00000000    0.00000000
     atom    6 type  1   force =     0.00000000    0.00000000    0.00000000
     atom    7 type  2   force =     0.00000000    0.00000000    0.00000000
     atom    8 type  2   force =     0.00000000    0.00000000    0.00000000
     The SCF correction term to forces
     atom    1 type  1   force =    -0.00000458    0.00000264   -0.00000000
     atom    2 type  1   force =     0.00000458   -0.00000264    0.00000000
     atom    3 type  1   force =    -0.00000458   -0.00000264   -0.00000000
     atom    4 type  1   force =     0.00000458    0.00000264    0.00000000
     atom    5 type  1   force =    -0.00000000   -0.00000529   -0.00000000
     atom    6 type  1   force =     0.00000000    0.00000529    0.00000000
     atom    7 type  2   force =    -0.00000000    0.00000000    0.00000000
     atom    8 type  2   force =     0.00000000   -0.00000000   -0.00000000

     Total force =     0.057518     Total SCF correction =     0.000013


     Computing stress (Cartesian axis) and pressure

          total   stress  (Ry/bohr**3)                   (kbar)     P=      600.37
   0.00395167  -0.00000000   0.00000000          581.31       -0.00        0.00
  -0.00000000   0.00395167   0.00000000           -0.00      581.31        0.00
   0.00000000   0.00000000   0.00434034            0.00        0.00      638.49

     Energy error            =      1.1E-01 Ry
     Gradient error          =      2.3E-02 Ry/Bohr
     Cell gradient error     =      1.4E+02 kbar

     number of scf cycles    =   4
     number of bfgs steps    =   3

     enthalpy           old  =     -77.2139318247 Ry
     enthalpy           new  =     -77.3261587001 Ry

     CASE: enthalpy          _new < enthalpy          _old

     new trust radius        =       0.0861044119 bohr
ibrav =      4
 celldm(1) =      9.14459521
 celldm(3) =      0.80551506
Input lattice vectors:
     1.23729715    -0.00000000     0.00000000
    -0.61864858     1.07153076    -0.00000000
     0.00000000    -0.00000000     0.99666149
New lattice vectors in INITIAL alat:
     1.23729715     0.00000000     0.00000000
    -0.61864858     1.07153076     0.00000000
     0.00000000     0.00000000     0.99666149
New lattice vectors in NEW alat (for information only):
     1.00000000     0.00000000     0.00000000
    -0.50000000     0.86602540     0.00000000
     0.00000000     0.00000000     0.80551506
Discrepancy in bohr =     0.000000    0.000000    0.000000
     new conv_thr            =       0.0000000023 Ry

     new unit-cell volume =    533.45495 a.u.^3 (    79.04987 Ang^3 )
     density =      3.83143 g/cm^3

CELL_PARAMETERS (alat=  7.39078337)
   1.237297150   0.000000000   0.000000000
  -0.618648575   1.071530764   0.000000000
   0.000000000   0.000000000   0.996661485

ATOMIC_POSITIONS (crystal)
Si            0.1693105696        0.8306894304        0.7500000000
Si            0.8306894304        0.1693105696        0.2500000000
Si            0.3386211391        0.1693105696        0.2500000000
Si            0.6613788609        0.8306894304        0.7500000000
Si            0.1693105696        0.3386211391        0.7500000000
Si            0.8306894304        0.6613788609        0.2500000000
Li            0.3333333300        0.6666666700        0.2500000000
Li            0.6666666700        0.3333333300        0.7500000000



     Writing config-only to output data dir ./output/SiLi.save/
     NEW-OLD atomic charge density approx. for the potential
     extrapolated charge   30.91455, renormalised to   30.00000

     total cpu time spent up to now is       29.9 secs

     Self-consistent Calculation

     iteration #  1     ecut=    80.00 Ry     beta= 0.70
     Davidson diagonalization with overlap
     ethr =  1.00E-06,  avg # of iterations =  9.9

     total cpu time spent up to now is       31.1 secs

     total energy              =     -79.14658065 Ry
     estimated scf accuracy    <       0.00218397 Ry

     iteration #  2     ecut=    80.00 Ry     beta= 0.70
     Davidson diagonalization with overlap
     ethr =  7.28E-06,  avg # of iterations =  3.0

     total cpu time spent up to now is       31.6 secs

     total energy              =     -79.14850027 Ry
     estimated scf accuracy    <       0.00253643 Ry

     iteration #  3     ecut=    80.00 Ry     beta= 0.70
     Davidson diagonalization with overlap
     ethr =  7.28E-06,  avg # of iterations =  2.0

     total cpu time spent up to now is       32.0 secs

     total energy              =     -79.14883047 Ry
     estimated scf accuracy    <       0.00011204 Ry

     iteration #  4     ecut=    80.00 Ry     beta= 0.70
     Davidson diagonalization with overlap
     ethr =  3.73E-07,  avg # of iterations =  3.4

     total cpu time spent up to now is       32.4 secs

     total energy              =     -79.14882953 Ry
     estimated scf accuracy    <       0.00002581 Ry

     iteration #  5     ecut=    80.00 Ry     beta= 0.70
     Davidson diagonalization with overlap
     ethr =  8.60E-08,  avg # of iterations =  2.4

     total cpu time spent up to now is       32.9 secs

     total energy              =     -79.14883230 Ry
     estimated scf accuracy    <       0.00000196 Ry

     iteration #  6     ecut=    80.00 Ry     beta= 0.70
     Davidson diagonalization with overlap
     ethr =  6.54E-09,  avg # of iterations =  4.1

     total cpu time spent up to now is       33.4 secs

     total energy              =     -79.14883329 Ry
     estimated scf accuracy    <       0.00000022 Ry

     iteration #  7     ecut=    80.00 Ry     beta= 0.70
     Davidson diagonalization with overlap
     ethr =  7.31E-10,  avg # of iterations =  2.1

     total cpu time spent up to now is       33.8 secs

     End of self-consistent calculation

          k = 0.0000 0.0000 0.0000 (  3233 PWs)   bands (ev):

   -32.6936 -32.6851  -2.4662   4.6048   4.6048   5.0761   5.3449   5.5183
     5.5183   5.8732   9.1062  12.3366  12.3366  14.3741  14.3741  14.4366
    14.5347  14.5347  15.0320

          k = 0.0000 0.0000 0.1672 (  3250 PWs)   bands (ev):

   -32.6978 -32.6867  -2.2252   3.3752   4.8594   4.8594   5.2111   5.7688
     5.7688   6.9294  10.0963  10.7281  10.7281  11.8083  11.8083  13.9911
    14.0819  17.0151  17.3912

          k = 0.0000 0.0000 0.3344 (  3256 PWs)   bands (ev):

   -32.6964 -32.6900  -1.5037   1.3359   5.5996   5.6150   5.6150   6.5050
     6.5050   6.7631   8.6663   8.6663   9.5949   9.5949  11.7515  12.9982
    14.7881  20.1261  20.1261

          k = 0.0000 0.0000-0.5017 (  3280 PWs)   bands (ev):

   -32.6955 -32.6955  -0.3100  -0.3100   6.1744   6.1744   6.8018   6.8018
     6.8018   6.8018   7.9130   7.9130   7.9130   7.9130  12.3119  12.3119
    18.0493  18.0493  21.0914

          k = 0.0000 0.1866 0.0000 (  3244 PWs)   bands (ev):

   -32.6940 -32.6874  -2.2002   2.4562   3.7191   4.3982   6.1646   6.5240
     7.0143   7.8403   9.3371  10.7103  11.8481  13.0931  13.1856  13.5355
    14.6627  15.3220  15.6081

          k = 0.0000 0.1866 0.1672 (  3250 PWs)   bands (ev):

   -32.6959 -32.6878  -1.9583   2.6291   3.5897   3.9759   5.2035   7.1674
     7.2524   8.0581   9.4762   9.9842  10.6728  11.9066  13.0535  14.5860
    15.1842  15.7438  15.7760

          k = 0.0000 0.1866 0.3344 (  3267 PWs)   bands (ev):

   -32.6961 -32.6933  -1.2360   1.5598   3.4214   4.7418   5.2171   6.6919
     7.3358   7.5663   8.2568   9.6134  10.5172  10.9980  12.6133  13.9887
    15.0826  17.0998  17.4919

          k = 0.0000 0.1866-0.5017 (  3248 PWs)   bands (ev):

   -32.6917 -32.6917  -0.0470  -0.0470   4.4092   4.4092   5.9990   5.9990
     6.7963   6.7963   9.3140   9.3140   9.8744   9.8744  13.1418  13.1418
    18.2156  18.2715  18.2715

          k = 0.0000 0.3733 0.0000 (  3236 PWs)   bands (ev):

   -32.6914 -32.6883  -1.5034   0.6255   3.1033   3.9467   6.9766   8.0006
     8.8085   9.3413   9.4349   9.9140  11.3700  12.2115  12.2134  12.4886
    13.3290  14.1480  16.8964

          k = 0.0000 0.3733 0.1672 (  3237 PWs)   bands (ev):

   -32.6930 -32.6877  -1.2555   0.8273   3.3615   3.7909   5.0751   7.1483
     8.6474   9.1900   9.8968  10.6429  11.6160  11.9135  12.6962  13.4909
    14.4952  14.8009  16.5240

          k = 0.0000 0.3733 0.3344 (  3229 PWs)   bands (ev):

   -32.6903 -32.6894  -0.5199   1.3403   2.5778   3.7727   4.1323   6.2463
     7.1474   7.6538  10.4859  11.6094  12.6963  12.8353  13.9483  14.1876
    14.7926  15.6778  16.4092

          k = 0.0000 0.3733-0.5017 (  3248 PWs)   bands (ev):

   -32.6926 -32.6926   0.6514   0.6514   2.6406   2.6406   5.4037   5.4037
     6.6672   6.6672  11.6269  11.6269  12.2608  12.2608  14.9596  14.9596
    15.1557  15.1557  16.6421

          k = 0.1616 0.2800 0.0000 (  3227 PWs)   bands (ev):

   -32.6919 -32.6864  -1.7023   1.3794   2.0684   5.9038   6.2166   6.7268
     8.4607   9.6390   9.7191   9.8885  10.3508  11.8757  12.7793  13.5854
    14.2017  15.3626  15.6867

          k = 0.1616 0.2800 0.1672 (  3242 PWs)   bands (ev):

   -32.6925 -32.6892  -1.4572   1.5984   2.2068   4.5160   6.3574   6.3605
     7.9096   8.2968  10.4376  10.5804  11.4689  11.8529  12.9916  13.7739
    14.3153  15.2397  16.6509

          k = 0.1616 0.2800 0.3344 (  3245 PWs)   bands (ev):

   -32.6918 -32.6916  -0.7283   1.8937   2.2359   3.3365   5.2562   6.0358
     7.3270   7.5984  10.2327  10.5227  11.8696  12.5239  14.0504  14.0652
    15.8231  15.8253  16.6653

          k = 0.1616 0.2800-0.5017 (  3254 PWs)   bands (ev):

   -32.6933 -32.6933   0.4547   0.4547   3.1307   3.1307   4.8827   4.8827
     7.7263   7.7263   9.7531   9.7531  12.5250  12.5250  14.3824  14.3824
    15.5432  15.5432  18.4104

          k = 0.1616 0.4666 0.0000 (  3226 PWs)   bands (ev):

   -32.6905 -32.6884  -1.1397   0.4600   1.5706   5.8314   7.4615   8.1629
     8.5739   8.7229   8.8850   9.8173  10.5436  11.0508  13.7116  14.1112
    14.3147  15.0226  16.5351

          k = 0.1616 0.4666 0.1672 (  3232 PWs)   bands (ev):

   -32.6909 -32.6897  -0.8825   0.6562   1.7558   5.2452   5.6010   7.3428
     7.4328   9.1920   9.2973  11.2807  12.1859  12.3816  13.0730  13.9475
    14.8336  15.1681  15.3361

          k = 0.1616 0.4666 0.3344 (  3237 PWs)   bands (ev):

   -32.6917 -32.6898  -0.1172   1.1983   2.1858   3.0411   4.5913   5.6965
     7.3359   8.8606   9.9234  11.4558  13.4085  13.7631  14.3942  14.4410
    14.9346  15.0811  16.0301

          k = 0.1616 0.4666-0.5017 (  3244 PWs)   bands (ev):

   -32.6916 -32.6916   1.0941   1.0941   2.1320   2.1320   4.4512   4.4512
     8.0805   8.0805  10.7569  10.7569  13.0173  13.0173  14.9799  14.9799
    16.1969  16.1969  17.5524

     the Fermi energy is    13.8372 ev

!    total energy              =     -79.14883335 Ry
     estimated scf accuracy    <          3.6E-10 Ry
     smearing contrib. (-TS)   =      -0.00105280 Ry
     internal energy E=F+TS    =     -79.14778054 Ry

     The total energy is F=E-TS. E is the sum of the following terms:
     one-electron contribution =      22.87963946 Ry
     hartree contribution      =       5.76216396 Ry
     xc contribution           =     -27.11374787 Ry
     ewald contribution        =     -80.67583609 Ry

     convergence has been achieved in   7 iterations

     Forces acting on atoms (cartesian axes, Ry/au):

     atom    1 type  1   force =    -0.00144283    0.00083302    0.00000000
     atom    2 type  1   force =     0.00144283   -0.00083302    0.00000000
     atom    3 type  1   force =    -0.00144283   -0.00083302    0.00000000
     atom    4 type  1   force =     0.00144283    0.00083302   -0.00000000
     atom    5 type  1   force =    -0.00000000   -0.00166603   -0.00000000
     atom    6 type  1   force =    -0.00000000    0.00166603    0.00000000
     atom    7 type  2   force =     0.00000000    0.00000000    0.00000000
     atom    8 type  2   force =     0.00000000    0.00000000   -0.00000000
     The non-local contrib.  to forces
     atom    1 type  1   force =    -0.03209018    0.01852727    0.00000000
     atom    2 type  1   force =     0.03209018   -0.01852727   -0.00000000
     atom    3 type  1   force =    -0.03209018   -0.01852727    0.00000000
     atom    4 type  1   force =     0.03209018    0.01852727    0.00000000
     atom    5 type  1   force =     0.00000000   -0.03705454    0.00000000
     atom    6 type  1   force =     0.00000000    0.03705454    0.00000000
     atom    7 type  2   force =    -0.00000000   -0.00000000    0.00000000
     atom    8 type  2   force =    -0.00000000    0.00000000    0.00000000
     The ionic contribution  to forces
     atom    1 type  1   force =     0.03964779   -0.02289066    0.00000000
     atom    2 type  1   force =    -0.03964779    0.02289066   -0.00000000
     atom    3 type  1   force =     0.03964779    0.02289073   -0.00000000
     atom    4 type  1   force =    -0.03964779   -0.02289073    0.00000000
     atom    5 type  1   force =     0.00000006    0.04578136    0.00000000
     atom    6 type  1   force =    -0.00000006   -0.04578136    0.00000000
     atom    7 type  2   force =     0.00000006   -0.00000004    0.00000000
     atom    8 type  2   force =    -0.00000006    0.00000004    0.00000000
     The local contribution  to forces
     atom    1 type  1   force =    -0.01029759    0.00594531   -0.00000000
     atom    2 type  1   force =     0.01029759   -0.00594531   -0.00000000
     atom    3 type  1   force =    -0.01029759   -0.00594531   -0.00000000
     atom    4 type  1   force =     0.01029759    0.00594531   -0.00000000
     atom    5 type  1   force =     0.00000000   -0.01189063   -0.00000000
[...]
     ../pseudo/Si_ONCV_PBE_sr.upf
     MD5 check sum: e543d271109d17c80368dfa7c482276d
     Pseudo is Norm-conserving + core correction, Zval =  4.0
     Generated using ONCVPSP code by D. R. Hamann
     Using radial grid of 1510 points,  6 beta functions with: 
                l(1) =   0
                l(2) =   0
                l(3) =   1
                l(4) =   1
                l(5) =   2
                l(6) =   2

     PseudoPot. # 2 for Li read from file:
     ../pseudo/Li_ONCV_PBE_sr.upf
     MD5 check sum: 50ff420e78310ffa21704f3361e624a4
     Pseudo is Norm-conserving, Zval =  3.0
     Generated using ONCVPSP code by D. R. Hamann
     Using radial grid of 1944 points,  4 beta functions with: 
                l(1) =   0
                l(2) =   0
                l(3) =   1
                l(4) =   1

     atomic species   valence    mass     pseudopotential
        Si             4.00    28.08550     Si( 1.00)
        Li             3.00     6.94100     Li( 1.00)

     24 Sym. Ops., with inversion, found (12 have fractional translation)



   Cartesian axes

     site n.     atom                  positions (alat units)
         1           Si  tau(   1) = (  -0.3038183   0.8859283   0.7582348  )
         2           Si  tau(   2) = (   0.9191456   0.1798497   0.2527449  )
         3           Si  tau(   3) = (   0.3115089   0.1798497   0.2527449  )
         4           Si  tau(   4) = (   0.3038183   0.8859283   0.7582348  )
         5           Si  tau(   5) = (   0.0000000   0.3596994   0.7582348  )
         6           Si  tau(   6) = (   0.6153272   0.7060785   0.2527449  )
         7           Li  tau(   7) = (  -0.0000000   0.7105187   0.2527449  )
         8           Li  tau(   8) = (   0.6153272   0.3552593   0.7582348  )

     number of k points=    20  Marzari-Vanderbilt smearing, width (Ry)=  0.0200
                       cart. coord. in units 2pi/alat
        k(    1) = (   0.0000000   0.0000000   0.0000000), wk =   0.0133333
        k(    2) = (   0.0000000   0.0000000   0.1648566), wk =   0.0266667
        k(    3) = (   0.0000000   0.0000000   0.3297132), wk =   0.0266667
        k(    4) = (   0.0000000   0.0000000  -0.4945697), wk =   0.0133333
        k(    5) = (   0.0000000   0.1876563   0.0000000), wk =   0.0800000
        k(    6) = (   0.0000000   0.1876563   0.1648566), wk =   0.1600000
        k(    7) = (   0.0000000   0.1876563   0.3297132), wk =   0.1600000
        k(    8) = (   0.0000000   0.1876563  -0.4945697), wk =   0.0800000
        k(    9) = (   0.0000000   0.3753127   0.0000000), wk =   0.0800000
        k(   10) = (   0.0000000   0.3753127   0.1648566), wk =   0.1600000
        k(   11) = (   0.0000000   0.3753127   0.3297132), wk =   0.1600000
        k(   12) = (   0.0000000   0.3753127  -0.4945697), wk =   0.0800000
        k(   13) = (   0.1625152   0.2814845   0.0000000), wk =   0.0800000
        k(   14) = (   0.1625152   0.2814845   0.1648566), wk =   0.1600000
        k(   15) = (   0.1625152   0.2814845   0.3297132), wk =   0.1600000
        k(   16) = (   0.1625152   0.2814845  -0.4945697), wk =   0.0800000
        k(   17) = (   0.1625152   0.4691409   0.0000000), wk =   0.0800000
        k(   18) = (   0.1625152   0.4691409   0.1648566), wk =   0.1600000
        k(   19) = (   0.1625152   0.4691409   0.3297132), wk =   0.1600000
        k(   20) = (   0.1625152   0.4691409  -0.4945697), wk =   0.0800000

     Dense  grid:    51739 G-vectors     FFT dimensions: (  54,  54,  48)

     Estimated max dynamical RAM per process >      23.11 MB

     Estimated total dynamical RAM >     184.91 MB

     Initial potential from superposition of free atoms

     starting charge      29.9872, renormalised to      30.0000
     Starting wfcs are   28 randomized atomic wfcs

     total cpu time spent up to now is       56.7 secs

     Self-consistent Calculation

     iteration #  1     ecut=    80.00 Ry     beta= 0.70
     Davidson diagonalization with overlap
     c_bands:  1 eigenvalues not converged
     c_bands:  1 eigenvalues not converged
     c_bands:  1 eigenvalues not converged
     c_bands:  1 eigenvalues not converged
     c_bands:  1 eigenvalues not converged
     c_bands:  1 eigenvalues not converged
     c_bands:  2 eigenvalues not converged
     c_bands:  1 eigenvalues not converged
     c_bands:  1 eigenvalues not converged
     c_bands:  1 eigenvalues not converged
     c_bands:  1 eigenvalues not converged
     c_bands:  2 eigenvalues not converged
     c_bands:  1 eigenvalues not converged
     c_bands:  1 eigenvalues not converged
     c_bands:  2 eigenvalues not converged
     ethr =  1.00E-06,  avg # of iterations = 19.8

     total cpu time spent up to now is       59.5 secs

     total energy              =     -79.16868266 Ry
     estimated scf accuracy    <       0.05493903 Ry

     iteration #  2     ecut=    80.00 Ry     beta= 0.70
     Davidson diagonalization with overlap
     ethr =  1.83E-04,  avg # of iterations =  2.0

     total cpu time spent up to now is       60.2 secs

     total energy              =     -79.17163983 Ry
     estimated scf accuracy    <       0.02258079 Ry

     iteration #  3     ecut=    80.00 Ry     beta= 0.70
     Davidson diagonalization with overlap
     ethr =  7.53E-05,  avg # of iterations =  2.4

     total cpu time spent up to now is       60.9 secs

     total energy              =     -79.17718181 Ry
     estimated scf accuracy    <       0.00225286 Ry

     iteration #  4     ecut=    80.00 Ry     beta= 0.70
     Davidson diagonalization with overlap
     ethr =  7.51E-06,  avg # of iterations =  2.9

     total cpu time spent up to now is       61.6 secs

     total energy              =     -79.17738914 Ry
     estimated scf accuracy    <       0.00009508 Ry

     iteration #  5     ecut=    80.00 Ry     beta= 0.70
     Davidson diagonalization with overlap
     ethr =  3.17E-07,  avg # of iterations =  3.9

     total cpu time spent up to now is       62.4 secs

     total energy              =     -79.17744447 Ry
     estimated scf accuracy    <       0.00002313 Ry

     iteration #  6     ecut=    80.00 Ry     beta= 0.70
     Davidson diagonalization with overlap
     ethr =  7.71E-08,  avg # of iterations =  2.0

     total cpu time spent up to now is       63.1 secs

     total energy              =     -79.17744916 Ry
     estimated scf accuracy    <       0.00000008 Ry

     iteration #  7     ecut=    80.00 Ry     beta= 0.70
     Davidson diagonalization with overlap
     ethr =  2.82E-10,  avg # of iterations =  6.2

     total cpu time spent up to now is       64.1 secs

     total energy              =     -79.17744939 Ry
     estimated scf accuracy    <       0.00000004 Ry

     iteration #  8     ecut=    80.00 Ry     beta= 0.70
     Davidson diagonalization with overlap
     ethr =  1.30E-10,  avg # of iterations =  1.8

     total cpu time spent up to now is       64.7 secs

     total energy              =     -79.17744939 Ry
     estimated scf accuracy    <          5.7E-09 Ry

     iteration #  9     ecut=    80.00 Ry     beta= 0.70
     Davidson diagonalization with overlap
     ethr =  1.89E-11,  avg # of iterations =  3.2

     total cpu time spent up to now is       65.4 secs

     End of self-consistent calculation

          k = 0.0000 0.0000 0.0000 (  6435 PWs)   bands (ev):

   -32.7217 -32.7110  -2.5000   4.6864   4.6864   5.0516   5.1815   5.5900
     5.5900   5.6811   8.8612  12.2524  12.2524  14.1182  14.1182  14.3048
    14.4592  14.4592  14.7810

          k = 0.0000 0.0000 0.1649 (  6453 PWs)   bands (ev):

   -32.7208 -32.7116  -2.2650   3.2074   4.9338   4.9338   5.1841   5.8331
     5.8331   6.8482   9.7529  10.6581  10.6581  11.7054  11.7054  13.8794
    14.0624  16.7497  16.7498

          k = 0.0000 0.0000 0.3297 (  6453 PWs)   bands (ev):

   -32.7185 -32.7131  -1.5621   1.2085   5.5652   5.6681   5.6681   6.5462
     6.5462   6.7124   8.6450   8.6450   9.5548   9.5548  11.5359  12.9855
    14.4972  19.8430  19.8432

          k = 0.0000 0.0000-0.4946 (  6490 PWs)   bands (ev):

   -32.7156 -32.7156  -0.3983  -0.3983   6.1309   6.1309   6.8194   6.8194
     6.8194   6.8194   7.9240   7.9240   7.9240   7.9240  12.2623  12.2623
    17.5336  17.5336  21.3109

          k = 0.0000 0.1877 0.0000 (  6461 PWs)   bands (ev):

   -32.7208 -32.7119  -2.2313   2.4776   3.7849   4.3649   5.9756   6.4382
     7.1069   7.8094   9.1495  10.5892  11.7530  12.8907  13.0978  13.2655
    14.5594  15.2951  15.5524

          k = 0.0000 0.1877 0.1649 (  6470 PWs)   bands (ev):

   -32.7200 -32.7123  -1.9957   2.6290   3.4653   4.0345   5.1711   7.1546
     7.3362   8.0287   9.2937   9.8943  10.4830  11.8140  12.9741  14.4405
    15.0506  15.6484  15.7345

          k = 0.0000 0.1877 0.3297 (  6458 PWs)   bands (ev):

   -32.7180 -32.7135  -1.2921   1.4388   3.4149   4.7791   5.1779   6.6622
     7.3312   7.5510   8.2954   9.6301  10.4993  10.9820  12.3896  13.9760
    14.8469  17.2380  17.4386

          k = 0.0000 0.1877-0.4946 (  6422 PWs)   bands (ev):

   -32.7155 -32.7155  -0.1329  -0.1329   4.3735   4.3735   6.0018   6.0018
     6.7866   6.7866   9.3455   9.3455   9.8941   9.8941  13.1127  13.1127
    17.7125  17.7125  18.3949

          k = 0.0000 0.3753 0.0000 (  6478 PWs)   bands (ev):

   -32.7186 -32.7138  -1.5286   0.6289   3.1616   3.9285   6.7937   7.7560
     8.6652   9.1831   9.5456   9.8047  11.2663  12.2132  12.2505  12.3897
    13.1893  14.1457  16.7729

          k = 0.0000 0.3753 0.1649 (  6469 PWs)   bands (ev):

   -32.7180 -32.7140  -1.2874   0.8238   3.4126   3.7350   4.9246   7.0538
     8.6205   9.1274   9.9679  10.3552  11.4553  11.8932  12.8206  13.4719
    14.4064  14.6008  16.4378

          k = 0.0000 0.3753 0.3297 (  6451 PWs)   bands (ev):

   -32.7168 -32.7144  -0.5717   1.3059   2.4760   3.6984   4.1620   6.2223
     7.0970   7.6238  10.5744  11.6119  12.7189  12.8801  13.7334  14.2708
    14.6682  15.4935  16.4377

          k = 0.0000 0.3753-0.4946 (  6480 PWs)   bands (ev):

   -32.7154 -32.7154   0.5706   0.5706   2.5912   2.5912   5.3987   5.3987
     6.6497   6.6497  11.6811  11.6811  12.2826  12.2826  15.0565  15.0565
    15.1934  15.1934  16.6106

          k = 0.1625 0.2815 0.0000 (  6485 PWs)   bands (ev):

   -32.7191 -32.7133  -1.7289   1.3906   2.0870   5.8850   6.2556   6.5429
     8.1908   9.5011   9.7265   9.7783  10.2332  11.9159  12.6760  13.4351
    14.1431  15.2856  15.6056

          k = 0.1625 0.2815 0.1649 (  6469 PWs)   bands (ev):

   -32.7185 -32.7135  -1.4904   1.6029   2.2081   4.3756   6.3242   6.3835
     7.8457   8.2213  10.1938  10.6232  11.3437  11.9017  12.8232  13.7018
    14.2008  15.1232  16.6399

          k = 0.1625 0.2815 0.3297 (  6466 PWs)   bands (ev):

   -32.7171 -32.7142  -0.7807   1.7982   2.2199   3.2968   5.2016   5.9950
     7.3337   7.6211  10.2584  10.5005  11.9201  12.4904  13.7651  14.1400
    15.7302  15.8147  16.6727

          k = 0.1625 0.2815-0.4946 (  6474 PWs)   bands (ev):

   -32.7155 -32.7155   0.3728   0.3728   3.0850   3.0850   4.8646   4.8646
     7.7343   7.7343   9.7683   9.7683  12.5732  12.5732  14.4144  14.4144
    15.5757  15.5757  17.9937

          k = 0.1625 0.4691 0.0000 (  6479 PWs)   bands (ev):

   -32.7173 -32.7151  -1.1624   0.4628   1.5853   5.8541   7.2777   8.0094
     8.4330   8.6707   8.7361   9.6902  10.4385  10.9680  13.8274  14.0459
    14.2488  15.0389  16.5881

          k = 0.1625 0.4691 0.1649 (  6481 PWs)   bands (ev):

   -32.7169 -32.7150  -0.9124   0.6526   1.7617   5.0590   5.5749   7.3009
     7.3512   9.2065   9.3488  10.9117  12.0051  12.3877  12.9030  14.0507
    14.7986  15.1293  15.3387

          k = 0.1625 0.4691 0.3297 (  6476 PWs)   bands (ev):

   -32.7161 -32.7150  -0.1684   1.1742   2.1621   2.9111   4.5478   5.6378
     7.3532   8.8762   9.9680  11.4522  13.4311  13.8239  14.2401  14.3957
    14.7263  14.9908  15.9690

          k = 0.1625 0.4691-0.4946 (  6460 PWs)   bands (ev):

   -32.7154 -32.7154   1.0127   1.0127   2.0829   2.0829   4.4265   4.4265
     8.0923   8.0923  10.7713  10.7713  13.0866  13.0866  15.0362  15.0362
    16.2281  16.2281  17.4689

     the Fermi energy is    13.7782 ev

!    total energy              =     -79.17744939 Ry
     estimated scf accuracy    <          9.4E-12 Ry
     smearing contrib. (-TS)   =      -0.00111659 Ry
     internal energy E=F+TS    =     -79.17633280 Ry

     The total energy is F=E-TS. E is the sum of the following terms:
     one-electron contribution =      22.72054723 Ry
     hartree contribution      =       5.79498200 Ry
     xc contribution           =     -27.11262363 Ry
     ewald contribution        =     -80.57923840 Ry

     convergence has been achieved in   9 iterations

     Forces acting on atoms (cartesian axes, Ry/au):

     atom    1 type  1   force =    -0.00029713    0.00017155    0.00000000
     atom    2 type  1   force =     0.00029713   -0.00017155   -0.00000000
     atom    3 type  1   force =    -0.00029713   -0.00017155   -0.00000000
     atom    4 type  1   force =     0.00029713    0.00017155   -0.00000000
     atom    5 type  1   force =     0.00000000   -0.00034310    0.00000000
     atom    6 type  1   force =     0.00000000    0.00034310   -0.00000000
     atom    7 type  2   force =     0.00000000    0.00000000   -0.00000000
     atom    8 type  2   force =     0.00000000    0.00000000    0.00000000
     The non-local contrib.  to forces
     atom    1 type  1   force =    -0.02976815    0.01718665    0.00000000
     atom    2 type  1   force =     0.02976815   -0.01718665    0.00000000
     atom    3 type  1   force =    -0.02976815   -0.01718665    0.00000000
     atom    4 type  1   force =     0.02976815    0.01718665    0.00000000
     atom    5 type  1   force =     0.00000000   -0.03437330    0.00000000
     atom    6 type  1   force =    -0.00000000    0.03437330    0.00000000
     atom    7 type  2   force =     0.00000000    0.00000000    0.00000000
     atom    8 type  2   force =     0.00000000   -0.00000000    0.00000000
     The ionic contribution  to forces
     atom    1 type  1   force =     0.06881049   -0.03972776    0.00000000
     atom    2 type  1   force =    -0.06881049    0.03972776   -0.00000000
     atom    3 type  1   force =     0.06881049    0.03972783   -0.00000000
     atom    4 type  1   force =    -0.06881049   -0.03972783    0.00000000
     atom    5 type  1   force =     0.00000006    0.07945555    0.00000000
     atom    6 type  1   force =    -0.00000006   -0.07945555   -0.00000000
     atom    7 type  2   force =     0.00000007   -0.00000004   -0.00000000
     atom    8 type  2   force =    -0.00000007    0.00000004    0.00000000
     The local contribution  to forces
     atom    1 type  1   force =    -0.04043941    0.02334770   -0.00000000
     atom    2 type  1   force =     0.04043941   -0.02334770   -0.00000000
     atom    3 type  1   force =    -0.04043941   -0.02334770   -0.00000000
     atom    4 type  1   force =     0.04043941    0.02334770   -0.00000000
     atom    5 type  1   force =     0.00000000   -0.04669541   -0.00000000
     atom    6 type  1   force =    -0.00000000    0.04669541   -0.00000000
     atom    7 type  2   force =     0.00000087   -0.00000050    0.00000000
     atom    8 type  2   force =    -0.00000087    0.00000050    0.00000000
     The core correction contribution to forces
     atom    1 type  1   force =     0.00109972   -0.00063492   -0.00000000
     atom    2 type  1   force =    -0.00109972    0.00063492   -0.00000000
     atom    3 type  1   force =     0.00109972    0.00063492   -0.00000000
     atom    4 type  1   force =    -0.00109972   -0.00063492   -0.00000000
     atom    5 type  1   force =     0.00000000    0.00126984   -0.00000000
     atom    6 type  1   force =    -0.00000000   -0.00126984   -0.00000000
     atom    7 type  2   force =     0.00000000    0.00000000    0.00000000
     atom    8 type  2   force =     0.00000000    0.00000000    0.00000000
     The Hubbard contrib.    to forces
     atom    1 type  1   force =     0.00000000    0.00000000    0.00000000
     atom    2 type  1   force =     0.00000000    0.00000000    0.00000000
     atom    3 type  1   force =     0.00000000    0.00000000    0.00000000
     atom    4 type  1   force =     0.00000000    0.00000000    0.00000000
     atom    5 type  1   force =     0.00000000    0.00000000    0.00000000
     atom    6 type  1   force =     0.00000000    0.00000000    0.00000000
     atom    7 type  2   force =     0.00000000    0.00000000    0.00000000
     atom    8 type  2   force =     0.00000000    0.00000000    0.00000000
     The SCF correction term to forces
     atom    1 type  1   force =     0.00000020   -0.00000012    0.00000000
     atom    2 type  1   force =    -0.00000020    0.00000012   -0.00000000
     atom    3 type  1   force =     0.00000020    0.00000012    0.00000000
     atom    4 type  1   force =    -0.00000020   -0.00000012    0.00000000
     atom    5 type  1   force =    -0.00000000    0.00000023   -0.00000000
     atom    6 type  1   force =     0.00000000   -0.00000023   -0.00000000
     atom    7 type  2   force =    -0.00000000    0.00000000    0.00000000
     atom    8 type  2   force =     0.00000000   -0.00000000   -0.00000000

     Total force =     0.000840     Total SCF correction =     0.000001


     Computing stress (Cartesian axis) and pressure

          total   stress  (Ry/bohr**3)                   (kbar)     P=      538.19
   0.00361038   0.00000000   0.00000000          531.10        0.00        0.00
   0.00000000   0.00361038   0.00000000            0.00      531.10        0.00
   0.00000000   0.00000000   0.00375483            0.00        0.00      552.35


     Writing all to output data dir ./output/SiLi.save/

     init_run     :      1.49s CPU      2.01s WALL (       2 calls)
     electrons    :     46.59s CPU     50.29s WALL (      10 calls)
     update_pot   :      2.34s CPU      2.41s WALL (       8 calls)
     forces       :      2.22s CPU      2.35s WALL (      10 calls)
     stress       :      9.84s CPU     10.32s WALL (      10 calls)

     Called by init_run:
     wfcinit      :      0.51s CPU      0.53s WALL (       2 calls)
     potinit      :      0.43s CPU      0.75s WALL (       2 calls)
     hinit0       :      0.49s CPU      0.57s WALL (       2 calls)

     Called by electrons:
     c_bands      :     40.97s CPU     43.18s WALL (      84 calls)
     sum_band     :      4.56s CPU      4.96s WALL (      84 calls)
     v_of_rho     :      0.98s CPU      2.21s WALL (      91 calls)
     mix_rho      :      0.20s CPU      0.26s WALL (      84 calls)

     Called by c_bands:
     init_us_2    :      0.72s CPU      0.84s WALL (    3800 calls)
     init_us_2:cp :      0.71s CPU      0.83s WALL (    3800 calls)
     cegterg      :     38.20s CPU     39.42s WALL (    1680 calls)

     Called by *egterg:
     cdiaghg      :      3.49s CPU      3.61s WALL (    7882 calls)
     h_psi        :     30.97s CPU     31.93s WALL (    8142 calls)
     g_psi        :      0.12s CPU      0.13s WALL (    6422 calls)

     Called by h_psi:
     h_psi:calbec :      3.27s CPU      3.35s WALL (    8142 calls)
     vloc_psi     :     24.95s CPU     25.76s WALL (    8142 calls)
     add_vuspsi   :      2.63s CPU      2.69s WALL (    8142 calls)

     General routines
     calbec       :      3.87s CPU      3.98s WALL (    9142 calls)
     fft          :      1.23s CPU      2.73s WALL (    1161 calls)
     ffts         :      0.11s CPU      0.17s WALL (      84 calls)
     fftw         :     25.75s CPU     26.63s WALL (  232574 calls)

     Parallel routines

     PWSCF        :   1m 2.78s CPU   1m 7.96s WALL


   This run was terminated on:  13:18: 5  29Dec2024            

=------------------------------------------------------------------------------=
   JOB DONE.
=------------------------------------------------------------------------------=
