
     Program PWSCF v.7.2 starts on 17Jan2025 at 16:22: 7 

     This program is part of the open-source Quantum ESPRESSO suite
     for quantum simulation of materials; please cite
         "P. Giannozzi et al., J. Phys.:Condens. Matter 21 395502 (2009);
         "P. Giannozzi et al., J. Phys.:Condens. Matter 29 465901 (2017);
         "P. Giannozzi et al., J. Chem. Phys. 152 154105 (2020);
          URL http://www.quantum-espresso.org", 
     in publications or presentations arising from this work. More details at
     http://www.quantum-espresso.org/quote

     Parallel version (MPI & OpenMP), running on       8 processor cores
     Number of MPI processes:                 8
     Threads/MPI process:                     1

     MPI processes distributed on     1 nodes
     499249 MiB available memory on the printing compute node when the environment starts

     Waiting for input...
     Reading input from standard input

     Current dimensions of program PWSCF are:
     Max number of different atomic species (ntypx) = 10
     Max number of k-points (npk) =  40000
     Max angular momentum in pseudopotentials (lmaxx) =  4

     R & G space division:  proc/nbgrp/npool/nimage =       8
     Subspace diagonalization in iterative solution of the eigenvalue problem:
     a serial algorithm will be used


     Parallelization info
     --------------------
     sticks:   dense  smooth     PW     G-vecs:    dense   smooth      PW
     Min         253     253     74                 3595     3595     590
     Max         255     255     75                 3596     3596     593
     Sum        2029    2029    595                28761    28761    4733

     Using Slab Decomposition



     bravais-lattice index     =            4
     lattice parameter (alat)  =      11.0498  a.u.
     unit-cell volume          =     457.7020 (a.u.)^3
     number of atoms/cell      =            8
     number of atomic types    =            2
     number of electrons       =        26.00
     number of Kohn-Sham states=           17
     kinetic-energy cutoff     =      60.0000  Ry
     charge density cutoff     =     240.0000  Ry
     scf convergence threshold =      1.0E-08
     mixing beta               =       0.8000
     number of iterations used =            8  plain     mixing
     energy convergence thresh.=      1.0E-03
     force convergence thresh. =      5.0E-03
     press convergence thresh. =      2.0E+00
     Exchange-correlation= PBE
                           (   1   4   3   4   0   0   0)
     nstep                     =           50


     celldm(1)=  11.049783  celldm(2)=   0.000000  celldm(3)=   0.391734
     celldm(4)=   0.000000  celldm(5)=   0.000000  celldm(6)=   0.000000

     crystal axes: (cart. coord. in units of alat)
               a(1) = (   1.000000   0.000000   0.000000 )  
               a(2) = (  -0.500000   0.866025   0.000000 )  
               a(3) = (   0.000000   0.000000   0.391734 )  

     reciprocal axes: (cart. coord. in units 2 pi/alat)
               b(1) = (  1.000000  0.577350 -0.000000 )  
               b(2) = (  0.000000  1.154701  0.000000 )  
               b(3) = (  0.000000 -0.000000  2.552755 )  


     PseudoPot. # 1 for Si read from file:
     ../pseudo/Si_ONCV_PBE_sr.upf
     MD5 check sum: e543d271109d17c80368dfa7c482276d
     Pseudo is Norm-conserving + core correction, Zval =  4.0
     Generated using ONCVPSP code by D. R. Hamann
     Using radial grid of 1510 points,  6 beta functions with: 
                l(1) =   0
                l(2) =   0
                l(3) =   1
                l(4) =   1
                l(5) =   2
                l(6) =   2

     PseudoPot. # 2 for Li read from file:
     ../pseudo/Li_ONCV_PBE_sr.upf
     MD5 check sum: 50ff420e78310ffa21704f3361e624a4
     Pseudo is Norm-conserving, Zval =  3.0
     Generated using ONCVPSP code by D. R. Hamann
     Using radial grid of 1944 points,  4 beta functions with: 
                l(1) =   0
                l(2) =   0
                l(3) =   1
                l(4) =   1

     atomic species   valence    mass     pseudopotential
        Si             4.00    28.08550     Si( 1.00)
        Li             3.00     6.94100     Li( 1.00)

     24 Sym. Ops., with inversion, found



   Cartesian axes

     site n.     atom                  positions (alat units)
         1           Si  tau(   1) = (  -0.0000000   0.5773503   0.1958668  )
         2           Si  tau(   2) = (   0.5000000   0.2886751   0.1958668  )
         3           Li  tau(   3) = (  -0.1658770   0.2873074   0.0000000  )
         4           Li  tau(   4) = (  -0.3341230   0.5787180   0.0000000  )
         5           Li  tau(   5) = (   0.6682460   0.0000000   0.0000000  )
         6           Li  tau(   6) = (   0.3317540   0.0000000   0.0000000  )
         7           Li  tau(   7) = (   0.3341230   0.5787180   0.0000000  )
         8           Li  tau(   8) = (   0.1658770   0.2873074   0.0000000  )

     number of k points=   128  Marzari-Vanderbilt smearing, width (Ry)=  0.0200

     Number of k-points >= 100: set verbosity='high' to print them.

     Dense  grid:    28761 G-vectors     FFT dimensions: (  60,  60,  24)

     Estimated max dynamical RAM per process >      28.44 MB

     Estimated total dynamical RAM >     227.52 MB

     Initial potential from superposition of free atoms

     starting charge      25.9714, renormalised to      26.0000
     Starting wfcs are   20 randomized atomic wfcs

     total cpu time spent up to now is        1.3 secs

     Self-consistent Calculation

     iteration #  1     ecut=    60.00 Ry     beta= 0.80
     Davidson diagonalization with overlap
     ethr =  1.00E-02,  avg # of iterations =  6.6

     total cpu time spent up to now is        4.0 secs

     total energy              =    -102.75401661 Ry
     estimated scf accuracy    <       0.26721443 Ry

     iteration #  2     ecut=    60.00 Ry     beta= 0.80
     Davidson diagonalization with overlap
     ethr =  1.03E-03,  avg # of iterations =  3.6

     total cpu time spent up to now is        6.3 secs

     total energy              =    -102.79765825 Ry
     estimated scf accuracy    <       0.39492406 Ry

     iteration #  3     ecut=    60.00 Ry     beta= 0.80
     Davidson diagonalization with overlap
     ethr =  1.03E-03,  avg # of iterations =  2.1

     total cpu time spent up to now is        8.3 secs

     total energy              =    -102.88014801 Ry
     estimated scf accuracy    <       0.00088080 Ry

     iteration #  4     ecut=    60.00 Ry     beta= 0.80
     Davidson diagonalization with overlap
     c_bands:  1 eigenvalues not converged
     c_bands:  1 eigenvalues not converged
     c_bands:  1 eigenvalues not converged
     ethr =  3.39E-06,  avg # of iterations =  7.6

     total cpu time spent up to now is       11.5 secs

     total energy              =    -102.88076145 Ry
     estimated scf accuracy    <       0.00033525 Ry

     iteration #  5     ecut=    60.00 Ry     beta= 0.80
     Davidson diagonalization with overlap
     ethr =  1.29E-06,  avg # of iterations =  2.1

     total cpu time spent up to now is       13.5 secs

     total energy              =    -102.88077906 Ry
     estimated scf accuracy    <       0.00003116 Ry

     iteration #  6     ecut=    60.00 Ry     beta= 0.80
     Davidson diagonalization with overlap
     ethr =  1.20E-07,  avg # of iterations =  2.5

     total cpu time spent up to now is       15.6 secs

     total energy              =    -102.88078589 Ry
     estimated scf accuracy    <       0.00000008 Ry

     iteration #  7     ecut=    60.00 Ry     beta= 0.80
     Davidson diagonalization with overlap
     ethr =  3.04E-10,  avg # of iterations =  4.4

     total cpu time spent up to now is       18.4 secs

     total energy              =    -102.88078603 Ry
     estimated scf accuracy    <       0.00000006 Ry

     iteration #  8     ecut=    60.00 Ry     beta= 0.80
     Davidson diagonalization with overlap
     ethr =  2.48E-10,  avg # of iterations =  2.0

     total cpu time spent up to now is       20.3 secs

     End of self-consistent calculation

     Number of k-points >= 100: set verbosity='high' to print the bands.

     the Fermi energy is     8.8827 ev

!    total energy              =    -102.88078605 Ry
     estimated scf accuracy    <          2.1E-10 Ry
     smearing contrib. (-TS)   =      -0.00026145 Ry
     internal energy E=F+TS    =    -102.88052460 Ry

     The total energy is F=E-TS. E is the sum of the following terms:
     one-electron contribution =     -35.11071841 Ry
     hartree contribution      =      20.07865383 Ry
     xc contribution           =     -27.87586781 Ry
     ewald contribution        =     -59.97259221 Ry

     convergence has been achieved in   8 iterations

     Forces acting on atoms (cartesian axes, Ry/au):

     atom    1 type  1   force =     0.00000000    0.00000000    0.00000000
     atom    2 type  1   force =    -0.00000000    0.00000000    0.00000000
     atom    3 type  2   force =     0.02971980   -0.05147620    0.00000000
     atom    4 type  2   force =    -0.02971980    0.05147620   -0.00000000
     atom    5 type  2   force =     0.05943959   -0.00000000   -0.00000000
     atom    6 type  2   force =    -0.05943959    0.00000000    0.00000000
     atom    7 type  2   force =     0.02971980    0.05147620    0.00000000
     atom    8 type  2   force =    -0.02971980   -0.05147620   -0.00000000
     The non-local contrib.  to forces
     atom    1 type  1   force =    -0.00000000   -0.00000000    0.00000000
     atom    2 type  1   force =     0.00000000    0.00000000    0.00000000
     atom    3 type  2   force =     0.03321737   -0.05753417    0.00000000
     atom    4 type  2   force =    -0.03321737    0.05753417   -0.00000000
     atom    5 type  2   force =     0.06643473    0.00000000    0.00000000
     atom    6 type  2   force =    -0.06643473    0.00000000   -0.00000000
     atom    7 type  2   force =     0.03321737    0.05753417   -0.00000000
     atom    8 type  2   force =    -0.03321737   -0.05753417    0.00000000
     The ionic contribution  to forces
     atom    1 type  1   force =     0.00000014   -0.00000008    0.00000000
     atom    2 type  1   force =    -0.00000014    0.00000008    0.00000000
     atom    3 type  2   force =     0.81198674   -1.40640214    0.00000000
     atom    4 type  2   force =    -0.81198674    1.40640214    0.00000000
     atom    5 type  2   force =     1.62397335   -0.00000007    0.00000000
     atom    6 type  2   force =    -1.62397335    0.00000007    0.00000000
     atom    7 type  2   force =     0.81198661    1.40640207    0.00000000
     atom    8 type  2   force =    -0.81198661   -1.40640207   -0.00000000
     The local contribution  to forces
     atom    1 type  1   force =    -0.00000000    0.00000000   -0.00000000
     atom    2 type  1   force =     0.00000000   -0.00000000   -0.00000000
     atom    3 type  2   force =    -0.81547944    1.41245183   -0.00000000
     atom    4 type  2   force =     0.81547944   -1.41245183   -0.00000000
     atom    5 type  2   force =    -1.63095889    0.00000000   -0.00000000
     atom    6 type  2   force =     1.63095889   -0.00000000   -0.00000000
     atom    7 type  2   force =    -0.81547944   -1.41245183   -0.00000000
     atom    8 type  2   force =     0.81547944    1.41245183   -0.00000000
     The core correction contribution to forces
     atom    1 type  1   force =    -0.00000001    0.00000000    0.00000000
     atom    2 type  1   force =     0.00000001   -0.00000000   -0.00000000
     atom    3 type  2   force =     0.00000000    0.00000000    0.00000000
     atom    4 type  2   force =     0.00000000    0.00000000    0.00000000
     atom    5 type  2   force =     0.00000000    0.00000000    0.00000000
     atom    6 type  2   force =     0.00000000    0.00000000    0.00000000
     atom    7 type  2   force =     0.00000000    0.00000000    0.00000000
     atom    8 type  2   force =     0.00000000    0.00000000    0.00000000
     The Hubbard contrib.    to forces
     atom    1 type  1   force =     0.00000000    0.00000000    0.00000000
     atom    2 type  1   force =     0.00000000    0.00000000    0.00000000
     atom    3 type  2   force =     0.00000000    0.00000000    0.00000000
     atom    4 type  2   force =     0.00000000    0.00000000    0.00000000
     atom    5 type  2   force =     0.00000000    0.00000000    0.00000000
     atom    6 type  2   force =     0.00000000    0.00000000    0.00000000
     atom    7 type  2   force =     0.00000000    0.00000000    0.00000000
     atom    8 type  2   force =     0.00000000    0.00000000    0.00000000
     The SCF correction term to forces
     atom    1 type  1   force =     0.00000000   -0.00000000    0.00000000
     atom    2 type  1   force =    -0.00000000    0.00000000    0.00000000
     atom    3 type  2   force =    -0.00000478    0.00000828   -0.00000000
     atom    4 type  2   force =     0.00000478   -0.00000828   -0.00000000
     atom    5 type  2   force =    -0.00000956   -0.00000000   -0.00000000
     atom    6 type  2   force =     0.00000956    0.00000000   -0.00000000
     atom    7 type  2   force =    -0.00000478   -0.00000828    0.00000000
     atom    8 type  2   force =     0.00000478    0.00000828    0.00000000

     Total force =     0.145597     Total SCF correction =     0.000023


     Computing stress (Cartesian axis) and pressure

          total   stress  (Ry/bohr**3)                   (kbar)     P=      635.44
   0.00465548  -0.00000000   0.00000000          684.84       -0.00        0.00
  -0.00000000   0.00465548   0.00000000           -0.00      684.84        0.00
   0.00000000  -0.00000000   0.00364796            0.00       -0.00      536.63


     BFGS Geometry Optimization
     Energy error            =      0.0E+00 Ry
     Gradient error          =      5.9E-02 Ry/Bohr
     Cell gradient error     =      1.8E+02 kbar

     number of scf cycles    =   1
     number of bfgs steps    =   0

     enthalpy           new  =    -101.3250886639 Ry

     new trust radius        =       0.1344125499 bohr
ibrav =      4
 celldm(1) =     11.39689744
 celldm(3) =      0.38216714
Input lattice vectors:
     1.03141365    -0.00000000     0.00000000
    -0.51570683     0.89323042    -0.00000000
     0.00000000     0.00000000     0.39417241
New lattice vectors in INITIAL alat:
     1.03141365     0.00000000     0.00000000
    -0.51570683     0.89323042     0.00000000
     0.00000000     0.00000000     0.39417241
New lattice vectors in NEW alat (for information only):
     1.00000000     0.00000000     0.00000000
    -0.50000000     0.86602540     0.00000000
     0.00000000     0.00000000     0.38216714
Discrepancy in bohr =     0.000000    0.000000    0.000000
     new conv_thr            =       0.0000000100 Ry

     new unit-cell volume =    489.94113 a.u.^3 (    72.60178 Ang^3 )
     density =      2.23726 g/cm^3

CELL_PARAMETERS (alat= 11.04978339)
   1.031413652   0.000000000   0.000000000
  -0.515706826   0.893230425   0.000000000
   0.000000000   0.000000000   0.394172410

ATOMIC_POSITIONS (crystal)
Si            0.3333333300        0.6666666700        0.5000000000
Si            0.6666666700        0.3333333300        0.5000000000
Li            0.0000000000        0.3263747460        0.0000000000
Li           -0.0000000000        0.6736252540       -0.0000000000
Li            0.6736252540       -0.0000000000       -0.0000000000
Li            0.3263747460        0.0000000000        0.0000000000
Li            0.6736252540        0.6736252540        0.0000000000
Li            0.3263747460        0.3263747460       -0.0000000000



     Writing config-only to output data dir ./output/SiLi.save/
     NEW-OLD atomic charge density approx. for the potential
     extrapolated charge   27.70897, renormalised to   26.00000

     total cpu time spent up to now is       24.1 secs

     Self-consistent Calculation

     iteration #  1     ecut=    60.00 Ry     beta= 0.80
     Davidson diagonalization with overlap
     c_bands:  1 eigenvalues not converged
     c_bands:  2 eigenvalues not converged
     c_bands:  1 eigenvalues not converged
     ethr =  1.00E-06,  avg # of iterations =  9.2

     total cpu time spent up to now is       29.3 secs

     total energy              =    -102.93862268 Ry
     estimated scf accuracy    <       0.06790299 Ry

     iteration #  2     ecut=    60.00 Ry     beta= 0.80
     Davidson diagonalization with overlap
     ethr =  2.61E-04,  avg # of iterations =  5.0

     total cpu time spent up to now is       32.1 secs

     total energy              =    -102.99905724 Ry
     estimated scf accuracy    <       0.24196023 Ry

     iteration #  3     ecut=    60.00 Ry     beta= 0.80
     Davidson diagonalization with overlap
     ethr =  2.61E-04,  avg # of iterations =  2.2

     total cpu time spent up to now is       34.2 secs

     total energy              =    -103.02323887 Ry
     estimated scf accuracy    <       0.01642598 Ry

     iteration #  4     ecut=    60.00 Ry     beta= 0.80
     Davidson diagonalization with overlap
     ethr =  6.32E-05,  avg # of iterations =  2.4

     total cpu time spent up to now is       36.1 secs

     total energy              =    -103.02113435 Ry
     estimated scf accuracy    <       0.00603232 Ry

     iteration #  5     ecut=    60.00 Ry     beta= 0.80
     Davidson diagonalization with overlap
     ethr =  2.32E-05,  avg # of iterations =  3.1

     total cpu time spent up to now is       38.2 secs

     total energy              =    -103.02209031 Ry
     estimated scf accuracy    <       0.00005401 Ry

     iteration #  6     ecut=    60.00 Ry     beta= 0.80
     Davidson diagonalization with overlap
     ethr =  2.08E-07,  avg # of iterations =  4.4

     total cpu time spent up to now is       40.7 secs

     total energy              =    -103.02211802 Ry
     estimated scf accuracy    <       0.00000297 Ry

     iteration #  7     ecut=    60.00 Ry     beta= 0.80
     Davidson diagonalization with overlap
     ethr =  1.14E-08,  avg # of iterations =  2.1

     total cpu time spent up to now is       42.5 secs

     total energy              =    -103.02211763 Ry
     estimated scf accuracy    <       0.00000101 Ry

     iteration #  8     ecut=    60.00 Ry     beta= 0.80
     Davidson diagonalization with overlap
     ethr =  3.87E-09,  avg # of iterations =  2.5

     total cpu time spent up to now is       44.4 secs

     total energy              =    -103.02211793 Ry
     estimated scf accuracy    <       0.00000022 Ry

     iteration #  9     ecut=    60.00 Ry     beta= 0.80
     Davidson diagonalization with overlap
     ethr =  8.60E-10,  avg # of iterations =  1.8

     total cpu time spent up to now is       46.1 secs

     total energy              =    -103.02211794 Ry
     estimated scf accuracy    <       0.00000002 Ry

     iteration # 10     ecut=    60.00 Ry     beta= 0.80
     Davidson diagonalization with overlap
     ethr =  9.29E-11,  avg # of iterations =  2.5

     total cpu time spent up to now is       48.0 secs

     End of self-consistent calculation

     Number of k-points >= 100: set verbosity='high' to print the bands.

     the Fermi energy is     8.2592 ev

!    total energy              =    -103.02211794 Ry
     estimated scf accuracy    <          2.3E-10 Ry
     smearing contrib. (-TS)   =      -0.00015734 Ry
     internal energy E=F+TS    =    -103.02196060 Ry

     The total energy is F=E-TS. E is the sum of the following terms:
     one-electron contribution =     -36.15155895 Ry
     hartree contribution      =      19.92309006 Ry
     xc contribution           =     -27.66043295 Ry
     ewald contribution        =     -59.13305876 Ry

     convergence has been achieved in  10 iterations

     Forces acting on atoms (cartesian axes, Ry/au):

     atom    1 type  1   force =     0.00000000    0.00000000    0.00000000
     atom    2 type  1   force =     0.00000000    0.00000000   -0.00000000
     atom    3 type  2   force =     0.01560682   -0.02703181   -0.00000000
     atom    4 type  2   force =    -0.01560682    0.02703181    0.00000000
     atom    5 type  2   force =     0.03121364    0.00000000   -0.00000000
     atom    6 type  2   force =    -0.03121364   -0.00000000   -0.00000000
     atom    7 type  2   force =     0.01560682    0.02703181   -0.00000000
     atom    8 type  2   force =    -0.01560682   -0.02703181    0.00000000
     The non-local contrib.  to forces
     atom    1 type  1   force =    -0.00000000    0.00000000    0.00000000
     atom    2 type  1   force =     0.00000000   -0.00000000    0.00000000
     atom    3 type  2   force =     0.03629623   -0.06286691   -0.00000000
     atom    4 type  2   force =    -0.03629623    0.06286691   -0.00000000
     atom    5 type  2   force =     0.07259245    0.00000000    0.00000000
     atom    6 type  2   force =    -0.07259245    0.00000000    0.00000000
     atom    7 type  2   force =     0.03629623    0.06286691   -0.00000000
     atom    8 type  2   force =    -0.03629623   -0.06286691    0.00000000
     The ionic contribution  to forces
     atom    1 type  1   force =     0.00000014   -0.00000008    0.00000000
     atom    2 type  1   force =    -0.00000014    0.00000008    0.00000000
     atom    3 type  2   force =     0.68752314   -1.19082486    0.00000000
     atom    4 type  2   force =    -0.68752314    1.19082486    0.00000000
     atom    5 type  2   force =     1.37504615   -0.00000007    0.00000000
     atom    6 type  2   force =    -1.37504615    0.00000007    0.00000000
     atom    7 type  2   force =     0.68752301    1.19082479    0.00000000
     atom    8 type  2   force =    -0.68752301   -1.19082479    0.00000000
     The local contribution  to forces
     atom    1 type  1   force =     0.00000000   -0.00000000   -0.00000000
     atom    2 type  1   force =    -0.00000000    0.00000000   -0.00000000
     atom    3 type  2   force =    -0.70820754    1.22665144   -0.00000000
     atom    4 type  2   force =     0.70820754   -1.22665144   -0.00000000
     atom    5 type  2   force =    -1.41641507   -0.00000000   -0.00000000
     atom    6 type  2   force =     1.41641507    0.00000000   -0.00000000
     atom    7 type  2   force =    -0.70820754   -1.22665144   -0.00000000
     atom    8 type  2   force =     0.70820754    1.22665144   -0.00000000
     The core correction contribution to forces
     atom    1 type  1   force =    -0.00000001    0.00000000   -0.00000000
     atom    2 type  1   force =     0.00000001   -0.00000000   -0.00000000
     atom    3 type  2   force =     0.00000000    0.00000000    0.00000000
     atom    4 type  2   force =     0.00000000    0.00000000    0.00000000
     atom    5 type  2   force =     0.00000000    0.00000000    0.00000000
     atom    6 type  2   force =     0.00000000    0.00000000    0.00000000
     atom    7 type  2   force =     0.00000000    0.00000000    0.00000000
     atom    8 type  2   force =     0.00000000    0.00000000    0.00000000
     The Hubbard contrib.    to forces
     atom    1 type  1   force =     0.00000000    0.00000000    0.00000000
     atom    2 type  1   force =     0.00000000    0.00000000    0.00000000
     atom    3 type  2   force =     0.00000000    0.00000000    0.00000000
     atom    4 type  2   force =     0.00000000    0.00000000    0.00000000
     atom    5 type  2   force =     0.00000000    0.00000000    0.00000000
     atom    6 type  2   force =     0.00000000    0.00000000    0.00000000
     atom    7 type  2   force =     0.00000000    0.00000000    0.00000000
     atom    8 type  2   force =     0.00000000    0.00000000    0.00000000
     The SCF correction term to forces
     atom    1 type  1   force =     0.00000000   -0.00000000    0.00000000
     atom    2 type  1   force =    -0.00000000    0.00000000    0.00000000
     atom    3 type  2   force =    -0.00000492    0.00000853    0.00000000
     atom    4 type  2   force =     0.00000492   -0.00000853    0.00000000
     atom    5 type  2   force =    -0.00000985   -0.00000000    0.00000000
     atom    6 type  2   force =     0.00000985    0.00000000    0.00000000
     atom    7 type  2   force =    -0.00000492   -0.00000853    0.00000000
     atom    8 type  2   force =     0.00000492    0.00000853    0.00000000

     Total force =     0.076457     Total SCF correction =     0.000024


     Computing stress (Cartesian axis) and pressure

          total   stress  (Ry/bohr**3)                   (kbar)     P=      463.97
   0.00327695   0.00000000   0.00000000          482.06        0.00        0.00
   0.00000000   0.00327695   0.00000000            0.00      482.06        0.00
   0.00000000   0.00000000   0.00290805            0.00        0.00      427.79

     Energy error            =      3.2E-02 Ry
     Gradient error          =      3.1E-02 Ry/Bohr
     Cell gradient error     =      7.2E+01 kbar

     number of scf cycles    =   2
     number of bfgs steps    =   1

     enthalpy           old  =    -101.3250886639 Ry
     enthalpy           new  =    -101.3568418849 Ry

     CASE: enthalpy          _new < enthalpy          _old

     new trust radius        =       0.0591342349 bohr
ibrav =      4
 celldm(1) =     11.42557432
 celldm(3) =      0.37611582
Input lattice vectors:
     1.03400890     0.00000000    -0.00000000
    -0.51700445     0.89547797     0.00000000
     0.00000000     0.00000000     0.38890711
New lattice vectors in INITIAL alat:
     1.03400890     0.00000000     0.00000000
    -0.51700445     0.89547797     0.00000000
     0.00000000     0.00000000     0.38890711
New lattice vectors in NEW alat (for information only):
     1.00000000     0.00000000     0.00000000
    -0.50000000     0.86602540     0.00000000
     0.00000000     0.00000000     0.37611582
Discrepancy in bohr =     0.000000    0.000000    0.000000
     new conv_thr            =       0.0000000006 Ry

     new unit-cell volume =    485.83227 a.u.^3 (    71.99291 Ang^3 )
     density =      2.25618 g/cm^3

CELL_PARAMETERS (alat= 11.04978339)
   1.034008896   0.000000000   0.000000000
  -0.517004448   0.895477971   0.000000000
   0.000000000   0.000000000   0.388907108

ATOMIC_POSITIONS (crystal)
Si            0.3333333300        0.6666666700        0.5000000000
Si            0.6666666700        0.3333333300        0.5000000000
Li            0.0000000000        0.3220500851       -0.0000000000
Li           -0.0000000000        0.6779499149        0.0000000000
Li            0.6779499149       -0.0000000000       -0.0000000000
Li            0.3220500851       -0.0000000000       -0.0000000000
Li            0.6779499149        0.6779499149       -0.0000000000
Li            0.3220500851        0.3220500851        0.0000000000



     Writing config-only to output data dir ./output/SiLi.save/
     NEW-OLD atomic charge density approx. for the potential
     extrapolated charge   25.78035, renormalised to   26.00000

     total cpu time spent up to now is       51.8 secs

     Self-consistent Calculation

     iteration #  1     ecut=    60.00 Ry     beta= 0.80
     Davidson diagonalization with overlap
     ethr =  1.00E-06,  avg # of iterations =  7.0

     total cpu time spent up to now is       55.9 secs

     total energy              =    -103.01701597 Ry
     estimated scf accuracy    <       0.00104405 Ry

     iteration #  2     ecut=    60.00 Ry     beta= 0.80
     Davidson diagonalization with overlap
     ethr =  4.02E-06,  avg # of iterations =  2.3

     total cpu time spent up to now is       58.2 secs

     total energy              =    -103.01739043 Ry
     estimated scf accuracy    <       0.00053211 Ry

     iteration #  3     ecut=    60.00 Ry     beta= 0.80
     Davidson diagonalization with overlap
     ethr =  2.05E-06,  avg # of iterations =  2.0

     total cpu time spent up to now is       60.1 secs

     total energy              =    -103.01751554 Ry
     estimated scf accuracy    <       0.00006253 Ry

     iteration #  4     ecut=    60.00 Ry     beta= 0.80
     Davidson diagonalization with overlap
     ethr =  2.41E-07,  avg # of iterations =  1.8

     total cpu time spent up to now is       61.8 secs

     total energy              =    -103.01751910 Ry
     estimated scf accuracy    <       0.00000561 Ry

     iteration #  5     ecut=    60.00 Ry     beta= 0.80
     Davidson diagonalization with overlap
     ethr =  2.16E-08,  avg # of iterations =  2.3

     total cpu time spent up to now is       63.7 secs

     total energy              =    -103.01751967 Ry
     estimated scf accuracy    <       0.00000028 Ry

     iteration #  6     ecut=    60.00 Ry     beta= 0.80
     Davidson diagonalization with overlap
     ethr =  1.08E-09,  avg # of iterations =  3.5

     total cpu time spent up to now is       65.8 secs

     total energy              =    -103.01751975 Ry
     estimated scf accuracy    <       0.00000004 Ry

     iteration #  7     ecut=    60.00 Ry     beta= 0.80
     Davidson diagonalization with overlap
     ethr =  1.61E-10,  avg # of iterations =  2.0

     total cpu time spent up to now is       67.7 secs

     End of self-consistent calculation

     Number of k-points >= 100: set verbosity='high' to print the bands.

     the Fermi energy is     8.4030 ev

!    total energy              =    -103.01751976 Ry
     estimated scf accuracy    <          9.8E-11 Ry
     smearing contrib. (-TS)   =      -0.00012267 Ry
     internal energy E=F+TS    =    -103.01739709 Ry

     The total energy is F=E-TS. E is the sum of the following terms:
     one-electron contribution =     -35.22220565 Ry
     hartree contribution      =      19.53971484 Ry
     xc contribution           =     -27.66823572 Ry
     ewald contribution        =     -59.66667057 Ry

     convergence has been achieved in   7 iterations

     Forces acting on atoms (cartesian axes, Ry/au):

     atom    1 type  1   force =     0.00000000   -0.00000000    0.00000000
     atom    2 type  1   force =    -0.00000000    0.00000000    0.00000000
     atom    3 type  2   force =     0.01056076   -0.01829178   -0.00000000
     atom    4 type  2   force =    -0.01056076    0.01829178   -0.00000000
     atom    5 type  2   force =     0.02112153    0.00000000    0.00000000
     atom    6 type  2   force =    -0.02112153   -0.00000000   -0.00000000
     atom    7 type  2   force =     0.01056076    0.01829178   -0.00000000
     atom    8 type  2   force =    -0.01056076   -0.01829178   -0.00000000
     The non-local contrib.  to forces
     atom    1 type  1   force =    -0.00000000    0.00000000    0.00000000
     atom    2 type  1   force =     0.00000000    0.00000000    0.00000000
     atom    3 type  2   force =     0.03884116   -0.06727486    0.00000000
     atom    4 type  2   force =    -0.03884116    0.06727486    0.00000000
     atom    5 type  2   force =     0.07768232   -0.00000000   -0.00000000
     atom    6 type  2   force =    -0.07768232    0.00000000    0.00000000
     atom    7 type  2   force =     0.03884116    0.06727486   -0.00000000
     atom    8 type  2   force =    -0.03884116   -0.06727486   -0.00000000
     The ionic contribution  to forces
     atom    1 type  1   force =     0.00000014   -0.00000008    0.00000000
     atom    2 type  1   force =    -0.00000014    0.00000008    0.00000000
     atom    3 type  2   force =     0.61699826   -1.06867219   -0.00000000
     atom    4 type  2   force =    -0.61699826    1.06867219   -0.00000000
     atom    5 type  2   force =     1.23399639   -0.00000007   -0.00000000
     atom    6 type  2   force =    -1.23399639    0.00000007   -0.00000000
     atom    7 type  2   force =     0.61699813    1.06867211   -0.00000000
     atom    8 type  2   force =    -0.61699813   -1.06867211   -0.00000000
     The local contribution  to forces
     atom    1 type  1   force =    -0.00000000    0.00000000   -0.00000000
     atom    2 type  1   force =     0.00000000   -0.00000000   -0.00000000
     atom    3 type  2   force =    -0.64527717    1.11765284   -0.00000000
     atom    4 type  2   force =     0.64527717   -1.11765284   -0.00000000
     atom    5 type  2   force =    -1.29055434   -0.00000000   -0.00000000
     atom    6 type  2   force =     1.29055434    0.00000000    0.00000000
     atom    7 type  2   force =    -0.64527717   -1.11765284    0.00000000
     atom    8 type  2   force =     0.64527717    1.11765284    0.00000000
     The core correction contribution to forces
     atom    1 type  1   force =    -0.00000001    0.00000000   -0.00000000
     atom    2 type  1   force =     0.00000001   -0.00000000   -0.00000000
     atom    3 type  2   force =     0.00000000    0.00000000    0.00000000
     atom    4 type  2   force =     0.00000000    0.00000000    0.00000000
     atom    5 type  2   force =     0.00000000    0.00000000    0.00000000
     atom    6 type  2   force =     0.00000000    0.00000000    0.00000000
     atom    7 type  2   force =     0.00000000    0.00000000    0.00000000
     atom    8 type  2   force =     0.00000000    0.00000000    0.00000000
     The Hubbard contrib.    to forces
     atom    1 type  1   force =     0.00000000    0.00000000    0.00000000
     atom    2 type  1   force =     0.00000000    0.00000000    0.00000000
     atom    3 type  2   force =     0.00000000    0.00000000    0.00000000
     atom    4 type  2   force =     0.00000000    0.00000000    0.00000000
     atom    5 type  2   force =     0.00000000    0.00000000    0.00000000
     atom    6 type  2   force =     0.00000000    0.00000000    0.00000000
     atom    7 type  2   force =     0.00000000    0.00000000    0.00000000
     atom    8 type  2   force =     0.00000000    0.00000000    0.00000000
     The SCF correction term to forces
     atom    1 type  1   force =     0.00000000   -0.00000000   -0.00000000
     atom    2 type  1   force =    -0.00000000    0.00000000   -0.00000000
     atom    3 type  2   force =    -0.00000140    0.00000243    0.00000000
     atom    4 type  2   force =     0.00000140   -0.00000243    0.00000000
     atom    5 type  2   force =    -0.00000280   -0.00000000    0.00000000
     atom    6 type  2   force =     0.00000280    0.00000000   -0.00000000
     atom    7 type  2   force =    -0.00000140   -0.00000243   -0.00000000
     atom    8 type  2   force =     0.00000140    0.00000243   -0.00000000

     Total force =     0.051737     Total SCF correction =     0.000007


     Computing stress (Cartesian axis) and pressure

          total   stress  (Ry/bohr**3)                   (kbar)     P=      470.49
   0.00316418  -0.00000000   0.00000000          465.47       -0.00        0.00
  -0.00000000   0.00316418   0.00000000           -0.00      465.47        0.00
   0.00000000   0.00000000   0.00326653            0.00        0.00      480.52

     Energy error            =      9.4E-03 Ry
     Gradient error          =      2.1E-02 Ry/Bohr
     Cell gradient error     =      3.5E+01 kbar

     number of scf cycles    =   3
     number of bfgs steps    =   2

     enthalpy           old  =    -101.3568418849 Ry
     enthalpy           new  =    -101.3662094409 Ry

     CASE: enthalpy          _new < enthalpy          _old

     new trust radius        =       0.0656512859 bohr
ibrav =      4
 celldm(1) =     11.38634451
 celldm(3) =      0.37396166
Input lattice vectors:
     1.03045862    -0.00000000     0.00000000
    -0.51522931     0.89240334    -0.00000000
     0.00000000     0.00000000     0.38535202
New lattice vectors in INITIAL alat:
     1.03045862     0.00000000     0.00000000
    -0.51522931     0.89240334     0.00000000
     0.00000000     0.00000000     0.38535202
New lattice vectors in NEW alat (for information only):
     1.00000000     0.00000000     0.00000000
    -0.50000000     0.86602540     0.00000000
     0.00000000     0.00000000     0.37396166
Discrepancy in bohr =     0.000000    0.000000    0.000000
     new conv_thr            =       0.0000000004 Ry

     new unit-cell volume =    478.09112 a.u.^3 (    70.84579 Ang^3 )
     density =      2.29271 g/cm^3

CELL_PARAMETERS (alat= 11.04978339)
   1.030458617   0.000000000   0.000000000
  -0.515229308   0.892403339   0.000000000
   0.000000000   0.000000000   0.385352019

ATOMIC_POSITIONS (crystal)
Si            0.3333333300        0.6666666700        0.5000000000
Si            0.6666666700        0.3333333300        0.5000000000
Li            0.0000000000        0.3163040907       -0.0000000000
Li           -0.0000000000        0.6836959093       -0.0000000000
Li            0.6836959093       -0.0000000000        0.0000000000
Li            0.3163040907       -0.0000000000       -0.0000000000
Li            0.6836959093        0.6836959093       -0.0000000000
Li            0.3163040907        0.3163040907       -0.0000000000



     Writing config-only to output data dir ./output/SiLi.save/
     NEW-OLD atomic charge density approx. for the potential
     extrapolated charge   25.57948, renormalised to   26.00000

     total cpu time spent up to now is       71.4 secs

     Self-consistent Calculation

     iteration #  1     ecut=    60.00 Ry     beta= 0.80
     Davidson diagonalization with overlap
     c_bands:  1 eigenvalues not converged
     ethr =  1.00E-06,  avg # of iterations =  7.3

     total cpu time spent up to now is       75.7 secs

     total energy              =    -102.99659957 Ry
     estimated scf accuracy    <       0.00149998 Ry

     iteration #  2     ecut=    60.00 Ry     beta= 0.80
     Davidson diagonalization with overlap
     ethr =  5.77E-06,  avg # of iterations =  2.4

     total cpu time spent up to now is       78.1 secs

     total energy              =    -102.99784724 Ry
     estimated scf accuracy    <       0.00055331 Ry

     iteration #  3     ecut=    60.00 Ry     beta= 0.80
     Davidson diagonalization with overlap
     ethr =  2.13E-06,  avg # of iterations =  2.1

     total cpu time spent up to now is       80.1 secs

     total energy              =    -102.99789079 Ry
     estimated scf accuracy    <       0.00008386 Ry

     iteration #  4     ecut=    60.00 Ry     beta= 0.80
     Davidson diagonalization with overlap
     ethr =  3.23E-07,  avg # of iterations =  2.0

     total cpu time spent up to now is       81.9 secs

     total energy              =    -102.99790017 Ry
     estimated scf accuracy    <       0.00000916 Ry

     iteration #  5     ecut=    60.00 Ry     beta= 0.80
     Davidson diagonalization with overlap
     ethr =  3.52E-08,  avg # of iterations =  2.2

     total cpu time spent up to now is       83.9 secs

     total energy              =    -102.99790145 Ry
     estimated scf accuracy    <       0.00000144 Ry

     iteration #  6     ecut=    60.00 Ry     beta= 0.80
     Davidson diagonalization with overlap
     ethr =  5.55E-09,  avg # of iterations =  2.0

     total cpu time spent up to now is       85.8 secs

     total energy              =    -102.99790176 Ry
     estimated scf accuracy    <       0.00000002 Ry

     iteration #  7     ecut=    60.00 Ry     beta= 0.80
     Davidson diagonalization with overlap
     ethr =  7.19E-11,  avg # of iterations =  3.4

     total cpu time spent up to now is       88.0 secs

     End of self-consistent calculation

     Number of k-points >= 100: set verbosity='high' to print the bands.

     the Fermi energy is     8.5962 ev

!    total energy              =    -102.99790177 Ry
     estimated scf accuracy    <          2.7E-10 Ry
     smearing contrib. (-TS)   =      -0.00001693 Ry
     internal energy E=F+TS    =    -102.99788483 Ry

     The total energy is F=E-TS. E is the sum of the following terms:
     one-electron contribution =     -33.91753139 Ry
     hartree contribution      =      19.03608410 Ry
     xc contribution           =     -27.68871579 Ry
     ewald contribution        =     -60.42772175 Ry

     convergence has been achieved in   7 iterations

     Forces acting on atoms (cartesian axes, Ry/au):

     atom    1 type  1   force =    -0.00000000   -0.00000000    0.00000000
     atom    2 type  1   force =    -0.00000000   -0.00000000    0.00000000
     atom    3 type  2   force =     0.00476055   -0.00824552   -0.00000000
     atom    4 type  2   force =    -0.00476055    0.00824552   -0.00000000
     atom    5 type  2   force =     0.00952110    0.00000000    0.00000000
     atom    6 type  2   force =    -0.00952110    0.00000000   -0.00000000
     atom    7 type  2   force =     0.00476055    0.00824552   -0.00000000
     atom    8 type  2   force =    -0.00476055   -0.00824552   -0.00000000
     The non-local contrib.  to forces
     atom    1 type  1   force =    -0.00000000    0.00000000    0.00000000
     atom    2 type  1   force =     0.00000000   -0.00000000    0.00000000
     atom    3 type  2   force =     0.04230612   -0.07327634   -0.00000000
     atom    4 type  2   force =    -0.04230612    0.07327634    0.00000000
     atom    5 type  2   force =     0.08461223   -0.00000000    0.00000000
     atom    6 type  2   force =    -0.08461223   -0.00000000    0.00000000
     atom    7 type  2   force =     0.04230612    0.07327634   -0.00000000
     atom    8 type  2   force =    -0.04230612   -0.07327634    0.00000000
     The ionic contribution  to forces
     atom    1 type  1   force =     0.00000014   -0.00000008   -0.00000000
     atom    2 type  1   force =    -0.00000014    0.00000008   -0.00000000
     atom    3 type  2   force =     0.51500283   -0.89201092   -0.00000000
     atom    4 type  2   force =    -0.51500283    0.89201092   -0.00000000
     atom    5 type  2   force =     1.03000553   -0.00000007   -0.00000000
     atom    6 type  2   force =    -1.03000553    0.00000007   -0.00000000
     atom    7 type  2   force =     0.51500270    0.89201084   -0.00000000
     atom    8 type  2   force =    -0.51500270   -0.89201084   -0.00000000
     The local contribution  to forces
     atom    1 type  1   force =    -0.00000000    0.00000000    0.00000000
     atom    2 type  1   force =     0.00000000   -0.00000000    0.00000000
     atom    3 type  2   force =    -0.55255511    0.95705353   -0.00000000
     atom    4 type  2   force =     0.55255511   -0.95705353   -0.00000000
     atom    5 type  2   force =    -1.10511022   -0.00000000   -0.00000000
     atom    6 type  2   force =     1.10511022   -0.00000000   -0.00000000
     atom    7 type  2   force =    -0.55255511   -0.95705353   -0.00000000
     atom    8 type  2   force =     0.55255511    0.95705353   -0.00000000
     The core correction contribution to forces
     atom    1 type  1   force =    -0.00000001    0.00000000    0.00000000
     atom    2 type  1   force =     0.00000001   -0.00000000   -0.00000000
     atom    3 type  2   force =     0.00000000    0.00000000    0.00000000
     atom    4 type  2   force =     0.00000000    0.00000000    0.00000000
     atom    5 type  2   force =     0.00000000    0.00000000    0.00000000
     atom    6 type  2   force =     0.00000000    0.00000000    0.00000000
     atom    7 type  2   force =     0.00000000    0.00000000    0.00000000
     atom    8 type  2   force =     0.00000000    0.00000000    0.00000000
     The Hubbard contrib.    to forces
     atom    1 type  1   force =     0.00000000    0.00000000    0.00000000
     atom    2 type  1   force =     0.00000000    0.00000000    0.00000000
     atom    3 type  2   force =     0.00000000    0.00000000    0.00000000
     atom    4 type  2   force =     0.00000000    0.00000000    0.00000000
     atom    5 type  2   force =     0.00000000    0.00000000    0.00000000
     atom    6 type  2   force =     0.00000000    0.00000000    0.00000000
     atom    7 type  2   force =     0.00000000    0.00000000    0.00000000
     atom    8 type  2   force =     0.00000000    0.00000000    0.00000000
     The SCF correction term to forces
     atom    1 type  1   force =     0.00000000   -0.00000000    0.00000000
     atom    2 type  1   force =    -0.00000000    0.00000000    0.00000000
     atom    3 type  2   force =     0.00000680   -0.00001179    0.00000000
     atom    4 type  2   force =    -0.00000680    0.00001179    0.00000000
     atom    5 type  2   force =     0.00001361   -0.00000000    0.00000000
     atom    6 type  2   force =    -0.00001361    0.00000000    0.00000000
     atom    7 type  2   force =     0.00000680    0.00001179   -0.00000000
     atom    8 type  2   force =    -0.00000680   -0.00001179    0.00000000

     Total force =     0.023322     Total SCF correction =     0.000033


     Computing stress (Cartesian axis) and pressure

          total   stress  (Ry/bohr**3)                   (kbar)     P=      488.91
   0.00320910  -0.00000000   0.00000000          472.07       -0.00        0.00
  -0.00000000   0.00320910   0.00000000           -0.00      472.07        0.00
   0.00000000   0.00000000   0.00355238            0.00        0.00      522.57

     Energy error            =      6.7E-03 Ry
     Gradient error          =      9.5E-03 Ry/Bohr
     Cell gradient error     =      2.8E+01 kbar

     number of scf cycles    =   4
     number of bfgs steps    =   3

     enthalpy           old  =    -101.3662094409 Ry
     enthalpy           new  =    -101.3729030839 Ry

     CASE: enthalpy          _new < enthalpy          _old

     new trust radius        =       0.0500229347 bohr
ibrav =      4
 celldm(1) =     11.31759188
 celldm(3) =      0.37649120
Input lattice vectors:
     1.02423654    -0.00000000     0.00000000
    -0.51211827     0.88701486     0.00000000
     0.00000000     0.00000000     0.38561604
New lattice vectors in INITIAL alat:
     1.02423654     0.00000000     0.00000000
    -0.51211827     0.88701486     0.00000000
     0.00000000     0.00000000     0.38561604
New lattice vectors in NEW alat (for information only):
     1.00000000     0.00000000     0.00000000
    -0.50000000     0.86602540     0.00000000
     0.00000000     0.00000000     0.37649120
Discrepancy in bohr =     0.000000    0.000000    0.000000
     new conv_thr            =       0.0000000002 Ry

     new unit-cell volume =    472.65858 a.u.^3 (    70.04078 Ang^3 )
     density =      2.31906 g/cm^3

CELL_PARAMETERS (alat= 11.04978339)
   1.024236538   0.000000000   0.000000000
  -0.512118269   0.887014861   0.000000000
   0.000000000   0.000000000   0.385616041

ATOMIC_POSITIONS (crystal)
Si            0.3333333300        0.6666666700        0.5000000000
Si            0.6666666700        0.3333333300        0.5000000000
Li            0.0000000000        0.3119108515       -0.0000000000
Li           -0.0000000000        0.6880891485       -0.0000000000
Li            0.6880891485       -0.0000000000        0.0000000000
Li            0.3119108515       -0.0000000000       -0.0000000000
Li            0.6880891485        0.6880891485       -0.0000000000
Li            0.3119108515        0.3119108515       -0.0000000000



     Writing config-only to output data dir ./output/SiLi.save/
     NEW-OLD atomic charge density approx. for the potential
     extrapolated charge   25.70150, renormalised to   26.00000

     total cpu time spent up to now is       91.8 secs

     Self-consistent Calculation

     iteration #  1     ecut=    60.00 Ry     beta= 0.80
     Davidson diagonalization with overlap
     ethr =  1.00E-06,  avg # of iterations =  6.3

     total cpu time spent up to now is       95.7 secs

     total energy              =    -102.98094270 Ry
     estimated scf accuracy    <       0.00124303 Ry

     iteration #  2     ecut=    60.00 Ry     beta= 0.80
     Davidson diagonalization with overlap
     ethr =  4.78E-06,  avg # of iterations =  2.6

     total cpu time spent up to now is       98.2 secs

     total energy              =    -102.98163019 Ry
     estimated scf accuracy    <       0.00081431 Ry

     iteration #  3     ecut=    60.00 Ry     beta= 0.80
     Davidson diagonalization with overlap
     c_bands:  1 eigenvalues not converged
     ethr =  3.13E-06,  avg # of iterations =  2.2

     total cpu time spent up to now is      100.2 secs

     total energy              =    -102.98181087 Ry
     estimated scf accuracy    <       0.00007082 Ry

     iteration #  4     ecut=    60.00 Ry     beta= 0.80
     Davidson diagonalization with overlap
     ethr =  2.72E-07,  avg # of iterations =  1.6

     total cpu time spent up to now is      101.9 secs

     total energy              =    -102.98179132 Ry
     estimated scf accuracy    <       0.00003902 Ry

     iteration #  5     ecut=    60.00 Ry     beta= 0.80
     Davidson diagonalization with overlap
     ethr =  1.50E-07,  avg # of iterations =  2.0

     total cpu time spent up to now is      103.7 secs

     total energy              =    -102.98179695 Ry
     estimated scf accuracy    <       0.00000159 Ry

     iteration #  6     ecut=    60.00 Ry     beta= 0.80
     Davidson diagonalization with overlap
     ethr =  6.10E-09,  avg # of iterations =  2.7

     total cpu time spent up to now is      105.6 secs

     total energy              =    -102.98179705 Ry
     estimated scf accuracy    <       0.00000031 Ry

     iteration #  7     ecut=    60.00 Ry     beta= 0.80
     Davidson diagonalization with overlap
     ethr =  1.18E-09,  avg # of iterations =  2.1

     total cpu time spent up to now is      107.5 secs

     total energy              =    -102.98179710 Ry
     estimated scf accuracy    <          4.2E-09 Ry

     iteration #  8     ecut=    60.00 Ry     beta= 0.80
     Davidson diagonalization with overlap
     ethr =  1.61E-11,  avg # of iterations =  3.9

     total cpu time spent up to now is      109.8 secs

     total energy              =    -102.98179710 Ry
     estimated scf accuracy    <          4.3E-09 Ry

     iteration #  9     ecut=    60.00 Ry     beta= 0.80
     Davidson diagonalization with overlap
     ethr =  1.61E-11,  avg # of iterations =  2.1

     total cpu time spent up to now is      111.8 secs

     total energy              =    -102.98179710 Ry
     estimated scf accuracy    <          3.1E-10 Ry

     iteration # 10     ecut=    60.00 Ry     beta= 0.80
     Davidson diagonalization with overlap
     ethr =  1.20E-12,  avg # of iterations =  2.0

     total cpu time spent up to now is      113.6 secs

     End of self-consistent calculation

     Number of k-points >= 100: set verbosity='high' to print the bands.

     the Fermi energy is     8.7086 ev

!    total energy              =    -102.98179710 Ry
     estimated scf accuracy    <          5.2E-12 Ry
     smearing contrib. (-TS)   =       0.00005042 Ry
     internal energy E=F+TS    =    -102.98184752 Ry

     The total energy is F=E-TS. E is the sum of the following terms:
     one-electron contribution =     -33.02894624 Ry
     hartree contribution      =      18.69189280 Ry
     xc contribution           =     -27.69925279 Ry
     ewald contribution        =     -60.94554130 Ry

     convergence has been achieved in  10 iterations

     Forces acting on atoms (cartesian axes, Ry/au):

     atom    1 type  1   force =     0.00000000   -0.00000000   -0.00000000
     atom    2 type  1   force =     0.00000000    0.00000000    0.00000000
     atom    3 type  2   force =     0.00046552   -0.00080630   -0.00000000
     atom    4 type  2   force =    -0.00046552    0.00080630   -0.00000000
     atom    5 type  2   force =     0.00093104   -0.00000000    0.00000000
     atom    6 type  2   force =    -0.00093104    0.00000000   -0.00000000
     atom    7 type  2   force =     0.00046552    0.00080630    0.00000000
     atom    8 type  2   force =    -0.00046552   -0.00080630    0.00000000
     The non-local contrib.  to forces
     atom    1 type  1   force =     0.00000000   -0.00000000    0.00000000
     atom    2 type  1   force =     0.00000000   -0.00000000    0.00000000
     atom    3 type  2   force =     0.04535537   -0.07855781    0.00000000
     atom    4 type  2   force =    -0.04535537    0.07855781    0.00000000
     atom    5 type  2   force =     0.09071075   -0.00000000   -0.00000000
     atom    6 type  2   force =    -0.09071075    0.00000000    0.00000000
     atom    7 type  2   force =     0.04535537    0.07855781    0.00000000
     atom    8 type  2   force =    -0.04535537   -0.07855781    0.00000000
     The ionic contribution  to forces
     atom    1 type  1   force =     0.00000014   -0.00000008   -0.00000000
     atom    2 type  1   force =    -0.00000014    0.00000008   -0.00000000
     atom    3 type  2   force =     0.42890690   -0.74288840   -0.00000000
     atom    4 type  2   force =    -0.42890690    0.74288840   -0.00000000
     atom    5 type  2   force =     0.85781368   -0.00000007   -0.00000000
     atom    6 type  2   force =    -0.85781368    0.00000007   -0.00000000
     atom    7 type  2   force =     0.42890677    0.74288833   -0.00000000
     atom    8 type  2   force =    -0.42890677   -0.74288833   -0.00000000
     The local contribution  to forces
     atom    1 type  1   force =    -0.00000000    0.00000000   -0.00000000
     atom    2 type  1   force =     0.00000000   -0.00000000    0.00000000
     atom    3 type  2   force =    -0.47379738    0.82064113    0.00000000
     atom    4 type  2   force =     0.47379738   -0.82064113    0.00000000
     atom    5 type  2   force =    -0.94759475    0.00000000    0.00000000
     atom    6 type  2   force =     0.94759475   -0.00000000    0.00000000
     atom    7 type  2   force =    -0.47379738   -0.82064113   -0.00000000
     atom    8 type  2   force =     0.47379738    0.82064113    0.00000000
     The core correction contribution to forces
     atom    1 type  1   force =    -0.00000001    0.00000000   -0.00000000
     atom    2 type  1   force =     0.00000001   -0.00000000   -0.00000000
     atom    3 type  2   force =     0.00000000    0.00000000    0.00000000
     atom    4 type  2   force =     0.00000000    0.00000000    0.00000000
     atom    5 type  2   force =     0.00000000    0.00000000    0.00000000
     atom    6 type  2   force =     0.00000000    0.00000000    0.00000000
     atom    7 type  2   force =     0.00000000    0.00000000    0.00000000
     atom    8 type  2   force =     0.00000000    0.00000000    0.00000000
     The Hubbard contrib.    to forces
     atom    1 type  1   force =     0.00000000    0.00000000    0.00000000
     atom    2 type  1   force =     0.00000000    0.00000000    0.00000000
     atom    3 type  2   force =     0.00000000    0.00000000    0.00000000
     atom    4 type  2   force =     0.00000000    0.00000000    0.00000000
     atom    5 type  2   force =     0.00000000    0.00000000    0.00000000
     atom    6 type  2   force =     0.00000000    0.00000000    0.00000000
     atom    7 type  2   force =     0.00000000    0.00000000    0.00000000
     atom    8 type  2   force =     0.00000000    0.00000000    0.00000000
     The SCF correction term to forces
     atom    1 type  1   force =    -0.00000000    0.00000000   -0.00000000
     atom    2 type  1   force =     0.00000000   -0.00000000   -0.00000000
     atom    3 type  2   force =     0.00000070   -0.00000122   -0.00000000
     atom    4 type  2   force =    -0.00000070    0.00000122    0.00000000
     atom    5 type  2   force =     0.00000140   -0.00000000    0.00000000
     atom    6 type  2   force =    -0.00000140    0.00000000    0.00000000
     atom    7 type  2   force =     0.00000070    0.00000122    0.00000000
     atom    8 type  2   force =    -0.00000070   -0.00000122   -0.00000000

     Total force =     0.002281     Total SCF correction =     0.000003


     Computing stress (Cartesian axis) and pressure

          total   stress  (Ry/bohr**3)                   (kbar)     P=      500.08
   0.00333224   0.00000000  -0.00000000          490.19        0.00       -0.00
   0.00000000   0.00333224  -0.00000000            0.00      490.19       -0.00
   0.00000000   0.00000000   0.00353402            0.00        0.00      519.87

     Energy error            =      2.4E-03 Ry
     Gradient error          =      9.3E-04 Ry/Bohr
     Cell gradient error     =      2.0E+01 kbar

     number of scf cycles    =   5
     number of bfgs steps    =   4

     enthalpy           old  =    -101.3729030839 Ry
     enthalpy           new  =    -101.3752632348 Ry

     CASE: enthalpy          _new < enthalpy          _old

     new trust radius        =       0.0137723391 bohr
ibrav =      4
 celldm(1) =     11.29112896
 celldm(3) =      0.37856887
Input lattice vectors:
     1.02184166     0.00000000    -0.00000000
    -0.51092083     0.88494083    -0.00000000
    -0.00000000    -0.00000000     0.38683744
New lattice vectors in INITIAL alat:
     1.02184166     0.00000000     0.00000000
    -0.51092083     0.88494083     0.00000000
     0.00000000     0.00000000     0.38683744
New lattice vectors in NEW alat (for information only):
     1.00000000     0.00000000     0.00000000
    -0.50000000     0.86602540     0.00000000
     0.00000000     0.00000000     0.37856887
Discrepancy in bohr =     0.000000    0.000000    0.000000
     new conv_thr            =            1.0E-10 Ry

     new unit-cell volume =    471.94092 a.u.^3 (    69.93443 Ang^3 )
     density =      2.32259 g/cm^3

CELL_PARAMETERS (alat= 11.04978339)
   1.021841656   0.000000000   0.000000000
  -0.510920828   0.884940833   0.000000000
   0.000000000   0.000000000   0.386837444

ATOMIC_POSITIONS (crystal)
Si            0.3333333300        0.6666666700        0.5000000000
Si            0.6666666700        0.3333333300        0.5000000000
Li            0.0000000000        0.3112301630       -0.0000000000
Li           -0.0000000000        0.6887698370       -0.0000000000
Li            0.6887698370       -0.0000000000        0.0000000000
Li            0.3112301630       -0.0000000000       -0.0000000000
Li            0.6887698370        0.6887698370       -0.0000000000
Li            0.3112301630        0.3112301630       -0.0000000000



     Writing config-only to output data dir ./output/SiLi.save/
     NEW-OLD atomic charge density approx. for the potential
     extrapolated charge   25.96051, renormalised to   26.00000

     total cpu time spent up to now is      117.3 secs

     Self-consistent Calculation

     iteration #  1     ecut=    60.00 Ry     beta= 0.80
     Davidson diagonalization with overlap
     ethr =  1.00E-06,  avg # of iterations =  3.1

     total cpu time spent up to now is      120.2 secs

     total energy              =    -102.97956284 Ry
     estimated scf accuracy    <       0.00004042 Ry

     iteration #  2     ecut=    60.00 Ry     beta= 0.80
     Davidson diagonalization with overlap
     ethr =  1.55E-07,  avg # of iterations =  2.7

     total cpu time spent up to now is      122.5 secs

     total energy              =    -102.97957864 Ry
     estimated scf accuracy    <       0.00003314 Ry

     iteration #  3     ecut=    60.00 Ry     beta= 0.80
     Davidson diagonalization with overlap
     ethr =  1.27E-07,  avg # of iterations =  2.0

     total cpu time spent up to now is      124.4 secs

     total energy              =    -102.97958663 Ry
     estimated scf accuracy    <       0.00000167 Ry

     iteration #  4     ecut=    60.00 Ry     beta= 0.80
     Davidson diagonalization with overlap
     ethr =  6.42E-09,  avg # of iterations =  1.9

     total cpu time spent up to now is      126.1 secs

     total energy              =    -102.97958598 Ry
     estimated scf accuracy    <       0.00000125 Ry

     iteration #  5     ecut=    60.00 Ry     beta= 0.80
     Davidson diagonalization with overlap
     ethr =  4.80E-09,  avg # of iterations =  2.0

     total cpu time spent up to now is      127.9 secs

     total energy              =    -102.97958622 Ry
     estimated scf accuracy    <       0.00000014 Ry

     iteration #  6     ecut=    60.00 Ry     beta= 0.80
     Davidson diagonalization with overlap
     ethr =  5.23E-10,  avg # of iterations =  1.5

     total cpu time spent up to now is      129.6 secs

     total energy              =    -102.97958620 Ry
     estimated scf accuracy    <       0.00000005 Ry

     iteration #  7     ecut=    60.00 Ry     beta= 0.80
     Davidson diagonalization with overlap
     ethr =  1.78E-10,  avg # of iterations =  2.1

     total cpu time spent up to now is      131.5 secs

     total energy              =    -102.97958621 Ry
     estimated scf accuracy    <          8.0E-10 Ry

     iteration #  8     ecut=    60.00 Ry     beta= 0.80
     Davidson diagonalization with overlap
     ethr =  3.09E-12,  avg # of iterations =  3.1

     total cpu time spent up to now is      133.4 secs

     total energy              =    -102.97958621 Ry
     estimated scf accuracy    <          1.0E-09 Ry

     iteration #  9     ecut=    60.00 Ry     beta= 0.80
     Davidson diagonalization with overlap
     ethr =  3.09E-12,  avg # of iterations =  2.1

     total cpu time spent up to now is      135.3 secs

     End of self-consistent calculation

     Number of k-points >= 100: set verbosity='high' to print the bands.

     the Fermi energy is     8.7132 ev

!    total energy              =    -102.97958621 Ry
     estimated scf accuracy    <          4.1E-11 Ry
     smearing contrib. (-TS)   =       0.00005601 Ry
     internal energy E=F+TS    =    -102.97964223 Ry

     The total energy is F=E-TS. E is the sum of the following terms:
     one-electron contribution =     -32.90666485 Ry
     hartree contribution      =      18.64247420 Ry
     xc contribution           =     -27.69877770 Ry
     ewald contribution        =     -61.01667388 Ry

     convergence has been achieved in   9 iterations

     Forces acting on atoms (cartesian axes, Ry/au):

     atom    1 type  1   force =     0.00000000   -0.00000000    0.00000000
     atom    2 type  1   force =     0.00000000    0.00000000    0.00000000
     atom    3 type  2   force =    -0.00016250    0.00028146    0.00000000
     atom    4 type  2   force =     0.00016250   -0.00028146    0.00000000
     atom    5 type  2   force =    -0.00032500    0.00000000    0.00000000
     atom    6 type  2   force =     0.00032500   -0.00000000    0.00000000
     atom    7 type  2   force =    -0.00016250   -0.00028146    0.00000000
     atom    8 type  2   force =     0.00016250    0.00028146   -0.00000000
     The non-local contrib.  to forces
     atom    1 type  1   force =    -0.00000000    0.00000000    0.00000000
     atom    2 type  1   force =     0.00000000   -0.00000000    0.00000000
     atom    3 type  2   force =     0.04606138   -0.07978064   -0.00000000
     atom    4 type  2   force =    -0.04606138    0.07978064    0.00000000
     atom    5 type  2   force =     0.09212275    0.00000000    0.00000000
     atom    6 type  2   force =    -0.09212275   -0.00000000    0.00000000
     atom    7 type  2   force =     0.04606138    0.07978064    0.00000000
     atom    8 type  2   force =    -0.04606138   -0.07978064    0.00000000
     The ionic contribution  to forces
     atom    1 type  1   force =     0.00000014   -0.00000008   -0.00000000
     atom    2 type  1   force =    -0.00000014    0.00000008   -0.00000000
     atom    3 type  2   force =     0.41329673   -0.71585078   -0.00000000
     atom    4 type  2   force =    -0.41329673    0.71585078   -0.00000000
     atom    5 type  2   force =     0.82659333   -0.00000007   -0.00000000
     atom    6 type  2   force =    -0.82659333    0.00000007   -0.00000000
     atom    7 type  2   force =     0.41329660    0.71585071   -0.00000000
     atom    8 type  2   force =    -0.41329660   -0.71585071   -0.00000000
     The local contribution  to forces
     atom    1 type  1   force =    -0.00000000    0.00000000   -0.00000000
     atom    2 type  1   force =     0.00000000   -0.00000000   -0.00000000
     atom    3 type  2   force =    -0.45952328    0.79591766   -0.00000000
     atom    4 type  2   force =     0.45952328   -0.79591766   -0.00000000
     atom    5 type  2   force =    -0.91904655    0.00000000   -0.00000000
     atom    6 type  2   force =     0.91904655    0.00000000   -0.00000000
     atom    7 type  2   force =    -0.45952328   -0.79591766   -0.00000000
     atom    8 type  2   force =     0.45952328    0.79591766   -0.00000000
     The core correction contribution to forces
     atom    1 type  1   force =    -0.00000001    0.00000000   -0.00000000
     atom    2 type  1   force =     0.00000001   -0.00000000   -0.00000000
     atom    3 type  2   force =     0.00000000    0.00000000    0.00000000
     atom    4 type  2   force =     0.00000000    0.00000000    0.00000000
     atom    5 type  2   force =     0.00000000    0.00000000    0.00000000
     atom    6 type  2   force =     0.00000000    0.00000000    0.00000000
     atom    7 type  2   force =     0.00000000    0.00000000    0.00000000
     atom    8 type  2   force =     0.00000000    0.00000000    0.00000000
     The Hubbard contrib.    to forces
     atom    1 type  1   force =     0.00000000    0.00000000    0.00000000
     atom    2 type  1   force =     0.00000000    0.00000000    0.00000000
     atom    3 type  2   force =     0.00000000    0.00000000    0.00000000
     atom    4 type  2   force =     0.00000000    0.00000000    0.00000000
     atom    5 type  2   force =     0.00000000    0.00000000    0.00000000
     atom    6 type  2   force =     0.00000000    0.00000000    0.00000000
     atom    7 type  2   force =     0.00000000    0.00000000    0.00000000
     atom    8 type  2   force =     0.00000000    0.00000000    0.00000000
     The SCF correction term to forces
     atom    1 type  1   force =    -0.00000000    0.00000000    0.00000000
     atom    2 type  1   force =     0.00000000   -0.00000000   -0.00000000
     atom    3 type  2   force =     0.00000276   -0.00000477   -0.00000000
     atom    4 type  2   force =    -0.00000276    0.00000477   -0.00000000
     atom    5 type  2   force =     0.00000551   -0.00000000    0.00000000
     atom    6 type  2   force =    -0.00000551    0.00000000   -0.00000000
     atom    7 type  2   force =     0.00000276    0.00000477    0.00000000
     atom    8 type  2   force =    -0.00000276   -0.00000477   -0.00000000

     Total force =     0.000796     Total SCF correction =     0.000014


     Computing stress (Cartesian axis) and pressure

          total   stress  (Ry/bohr**3)                   (kbar)     P=      500.53
   0.00338673  -0.00000000   0.00000000          498.21       -0.00        0.00
  -0.00000000   0.00338673   0.00000000           -0.00      498.21        0.00
   0.00000000  -0.00000000   0.00343403            0.00       -0.00      505.16

     Energy error            =      2.3E-04 Ry
     Gradient error          =      3.3E-04 Ry/Bohr
     Cell gradient error     =      5.2E+00 kbar

     number of scf cycles    =   6
     number of bfgs steps    =   5

     enthalpy           old  =    -101.3752632348 Ry
     enthalpy           new  =    -101.3754916199 Ry

     CASE: enthalpy          _new < enthalpy          _old

     new trust radius        =       0.0046422513 bohr
ibrav =      4
 celldm(1) =     11.28634859
 celldm(3) =      0.37913387
Input lattice vectors:
     1.02140903    -0.00000000     0.00000000
    -0.51070452     0.88456617    -0.00000000
     0.00000000     0.00000000     0.38725076
New lattice vectors in INITIAL alat:
     1.02140903     0.00000000     0.00000000
    -0.51070452     0.88456617     0.00000000
     0.00000000     0.00000000     0.38725076
New lattice vectors in NEW alat (for information only):
     1.00000000     0.00000000     0.00000000
    -0.50000000     0.86602540     0.00000000
     0.00000000     0.00000000     0.37913387
Discrepancy in bohr =     0.000000    0.000000    0.000000
     new conv_thr            =            1.0E-10 Ry

     new unit-cell volume =    472.04521 a.u.^3 (    69.94988 Ang^3 )
     density =      2.32208 g/cm^3

CELL_PARAMETERS (alat= 11.04978339)
   1.021409035   0.000000000   0.000000000
  -0.510704517   0.884566172   0.000000000
   0.000000000   0.000000000   0.387250761

ATOMIC_POSITIONS (crystal)
Si            0.3333333300        0.6666666700        0.5000000000
Si            0.6666666700        0.3333333300        0.5000000000
Li            0.0000000000        0.3113262699       -0.0000000000
Li           -0.0000000000        0.6886737301       -0.0000000000
Li            0.6886737301       -0.0000000000        0.0000000000
Li            0.3113262699       -0.0000000000       -0.0000000000
Li            0.6886737301        0.6886737301       -0.0000000000
Li            0.3113262699        0.3113262699       -0.0000000000



     Writing config-only to output data dir ./output/SiLi.save/
     NEW-OLD atomic charge density approx. for the potential
     extrapolated charge   26.00574, renormalised to   26.00000

     total cpu time spent up to now is      139.0 secs

     Self-consistent Calculation

     iteration #  1     ecut=    60.00 Ry     beta= 0.80
     Davidson diagonalization with overlap
     ethr =  1.00E-06,  avg # of iterations =  2.0

     Threshold (ethr) on eigenvalues was too large:
     Diagonalizing with lowered threshold

     Davidson diagonalization with overlap
     ethr =  2.34E-09,  avg # of iterations =  4.0

     total cpu time spent up to now is      143.5 secs

     total energy              =    -102.97995360 Ry
     estimated scf accuracy    <       0.00000093 Ry

     iteration #  2     ecut=    60.00 Ry     beta= 0.80
     Davidson diagonalization with overlap
     ethr =  3.56E-09,  avg # of iterations =  2.4

     total cpu time spent up to now is      145.7 secs

     total energy              =    -102.97995385 Ry
     estimated scf accuracy    <       0.00000056 Ry

     iteration #  3     ecut=    60.00 Ry     beta= 0.80
     Davidson diagonalization with overlap
     ethr =  2.15E-09,  avg # of iterations =  2.0

     total cpu time spent up to now is      147.7 secs

     total energy              =    -102.97995399 Ry
     estimated scf accuracy    <       0.00000005 Ry

     iteration #  4     ecut=    60.00 Ry     beta= 0.80
     Davidson diagonalization with overlap
     ethr =  1.81E-10,  avg # of iterations =  2.0

     total cpu time spent up to now is      149.5 secs

     total energy              =    -102.97995400 Ry
     estimated scf accuracy    <          5.4E-10 Ry

     iteration #  5     ecut=    60.00 Ry     beta= 0.80
     Davidson diagonalization with overlap
     ethr =  2.08E-12,  avg # of iterations =  3.3

     total cpu time spent up to now is      151.8 secs

     End of self-consistent calculation

     Number of k-points >= 100: set verbosity='high' to print the bands.

     the Fermi energy is     8.7072 ev

!    total energy              =    -102.97995400 Ry
     estimated scf accuracy    <          3.2E-11 Ry
     smearing contrib. (-TS)   =       0.00005275 Ry
     internal energy E=F+TS    =    -102.98000675 Ry

     The total energy is F=E-TS. E is the sum of the following terms:
     one-electron contribution =     -32.92368049 Ry
     hartree contribution      =      18.64875644 Ry
     xc contribution           =     -27.69808119 Ry
     ewald contribution        =     -61.00700150 Ry

     convergence has been achieved in   5 iterations

     Forces acting on atoms (cartesian axes, Ry/au):

     atom    1 type  1   force =     0.00000000    0.00000000   -0.00000000
     atom    2 type  1   force =     0.00000000   -0.00000000    0.00000000
     atom    3 type  2   force =    -0.00004264    0.00007386   -0.00000000
     atom    4 type  2   force =     0.00004264   -0.00007386    0.00000000
     atom    5 type  2   force =    -0.00008529    0.00000000    0.00000000
     atom    6 type  2   force =     0.00008529   -0.00000000   -0.00000000
     atom    7 type  2   force =    -0.00004264   -0.00007386   -0.00000000
     atom    8 type  2   force =     0.00004264    0.00007386    0.00000000
     The non-local contrib.  to forces
     atom    1 type  1   force =     0.00000000    0.00000000    0.00000000
     atom    2 type  1   force =     0.00000000   -0.00000000    0.00000000
     atom    3 type  2   force =     0.04607713   -0.07980794    0.00000000
     atom    4 type  2   force =    -0.04607713    0.07980794    0.00000000
     atom    5 type  2   force =     0.09215427   -0.00000000    0.00000000
     atom    6 type  2   force =    -0.09215427   -0.00000000    0.00000000
     atom    7 type  2   force =     0.04607713    0.07980794    0.00000000
     atom    8 type  2   force =    -0.04607713   -0.07980794    0.00000000
     The ionic contribution  to forces
     atom    1 type  1   force =     0.00000014   -0.00000008   -0.00000000
     atom    2 type  1   force =    -0.00000014    0.00000008   -0.00000000
     atom    3 type  2   force =     0.41449920   -0.71793352    0.00000000
     atom    4 type  2   force =    -0.41449920    0.71793352    0.00000000
     atom    5 type  2   force =     0.82899827   -0.00000007    0.00000000
     atom    6 type  2   force =    -0.82899827    0.00000007   -0.00000000
     atom    7 type  2   force =     0.41449907    0.71793345    0.00000000
     atom    8 type  2   force =    -0.41449907   -0.71793345    0.00000000
     The local contribution  to forces
     atom    1 type  1   force =    -0.00000000    0.00000000   -0.00000000
     atom    2 type  1   force =     0.00000000   -0.00000000   -0.00000000
     atom    3 type  2   force =    -0.46061893    0.79781539   -0.00000000
     atom    4 type  2   force =     0.46061893   -0.79781539   -0.00000000
     atom    5 type  2   force =    -0.92123787   -0.00000000   -0.00000000
     atom    6 type  2   force =     0.92123787    0.00000000   -0.00000000
     atom    7 type  2   force =    -0.46061893   -0.79781539   -0.00000000
     atom    8 type  2   force =     0.46061893    0.79781539   -0.00000000
     The core correction contribution to forces
     atom    1 type  1   force =    -0.00000001    0.00000000    0.00000000
     atom    2 type  1   force =     0.00000001   -0.00000000   -0.00000000
     atom    3 type  2   force =     0.00000000    0.00000000    0.00000000
     atom    4 type  2   force =     0.00000000    0.00000000    0.00000000
     atom    5 type  2   force =     0.00000000    0.00000000    0.00000000
     atom    6 type  2   force =     0.00000000    0.00000000    0.00000000
     atom    7 type  2   force =     0.00000000    0.00000000    0.00000000
     atom    8 type  2   force =     0.00000000    0.00000000    0.00000000
     The Hubbard contrib.    to forces
     atom    1 type  1   force =     0.00000000    0.00000000    0.00000000
     atom    2 type  1   force =     0.00000000    0.00000000    0.00000000
     atom    3 type  2   force =     0.00000000    0.00000000    0.00000000
     atom    4 type  2   force =     0.00000000    0.00000000    0.00000000
     atom    5 type  2   force =     0.00000000    0.00000000    0.00000000
     atom    6 type  2   force =     0.00000000    0.00000000    0.00000000
     atom    7 type  2   force =     0.00000000    0.00000000    0.00000000
     atom    8 type  2   force =     0.00000000    0.00000000    0.00000000
     The SCF correction term to forces
     atom    1 type  1   force =     0.00000000   -0.00000000    0.00000000
     atom    2 type  1   force =    -0.00000000    0.00000000    0.00000000
     atom    3 type  2   force =     0.00000004   -0.00000007   -0.00000000
     atom    4 type  2   force =    -0.00000004    0.00000007    0.00000000
     atom    5 type  2   force =     0.00000008   -0.00000000   -0.00000000
     atom    6 type  2   force =    -0.00000008    0.00000000   -0.00000000
     atom    7 type  2   force =     0.00000004    0.00000007   -0.00000000
     atom    8 type  2   force =    -0.00000004   -0.00000007   -0.00000000

     Total force =     0.000209     Total SCF correction =     0.000000


     Computing stress (Cartesian axis) and pressure

          total   stress  (Ry/bohr**3)                   (kbar)     P=      500.05
   0.00339833   0.00000000   0.00000000          499.91        0.00        0.00
   0.00000000   0.00339833   0.00000000            0.00      499.91        0.00
  -0.00000000   0.00000000   0.00340125           -0.00        0.00      500.34

     Energy error            =      1.3E-05 Ry
     Gradient error          =      8.5E-05 Ry/Bohr
     Cell gradient error     =      3.4E-01 kbar
ibrav =      4
 celldm(1) =     11.28634859
 celldm(3) =      0.37913387
Input lattice vectors:
     1.02140903     0.00000000     0.00000000
    -0.51070452     0.88456617     0.00000000
     0.00000000     0.00000000     0.38725076
New lattice vectors in INITIAL alat:
     1.02140903     0.00000000     0.00000000
    -0.51070452     0.88456617     0.00000000
     0.00000000     0.00000000     0.38725076
New lattice vectors in NEW alat (for information only):
     1.00000000     0.00000000     0.00000000
    -0.50000000     0.86602540     0.00000000
     0.00000000     0.00000000     0.37913387
Discrepancy in bohr =     0.000000    0.000000    0.000000

     bfgs converged in   7 scf cycles and   6 bfgs steps
     (criteria: energy <  1.0E-03 Ry, force <  5.0E-03 Ry/Bohr, cell <  2.0E+00 kbar)

     End of BFGS Geometry Optimization

     Final enthalpy           =    -101.3755049354 Ry

     File ./output/SiLi.bfgs deleted, as requested
Begin final coordinates
     new unit-cell volume =    472.04521 a.u.^3 (    69.94988 Ang^3 )
     density =      2.32208 g/cm^3

CELL_PARAMETERS (alat= 11.04978339)
   1.021409035   0.000000000   0.000000000
  -0.510704517   0.884566172   0.000000000
   0.000000000   0.000000000   0.387250761

ATOMIC_POSITIONS (crystal)
Si            0.3333333300        0.6666666700        0.5000000000
Si            0.6666666700        0.3333333300        0.5000000000
Li            0.0000000000        0.3113262699       -0.0000000000
Li           -0.0000000000        0.6886737301       -0.0000000000
Li            0.6886737301       -0.0000000000        0.0000000000
Li            0.3113262699       -0.0000000000       -0.0000000000
Li            0.6886737301        0.6886737301       -0.0000000000
Li            0.3113262699        0.3113262699       -0.0000000000
End final coordinates



     Writing config-only to output data dir ./output/SiLi.save/

     Final scf calculation at the relaxed structure.
     The G-vectors are recalculated for the final unit cell
     Results may differ from those at the preceding step.

     Parallelization info
     --------------------
     sticks:   dense  smooth     PW     G-vecs:    dense   smooth      PW
     Min         263     263     81                 3711     3711     614
     Max         264     264     82                 3712     3712     615
     Sum        2107    2107    649                29691    29691    4919

     Using Slab Decomposition



     bravais-lattice index     =            4
     lattice parameter (alat)  =      11.0498  a.u.
     unit-cell volume          =     472.0452 (a.u.)^3
     number of atoms/cell      =            8
     number of atomic types    =            2
     number of electrons       =        26.00
     number of Kohn-Sham states=           17
     kinetic-energy cutoff     =      60.0000  Ry
     charge density cutoff     =     240.0000  Ry
     scf convergence threshold =      1.0E-10
     mixing beta               =       0.8000
     number of iterations used =            8  plain     mixing
     press convergence thresh. =      2.0E+00
     Exchange-correlation= PBE
                           (   1   4   3   4   0   0   0)

     celldm(1)=  11.049783  celldm(2)=   0.000000  celldm(3)=   0.391734
     celldm(4)=   0.000000  celldm(5)=   0.000000  celldm(6)=   0.000000

     crystal axes: (cart. coord. in units of alat)
               a(1) = (   1.021409   0.000000   0.000000 )  
               a(2) = (  -0.510705   0.884566   0.000000 )  
               a(3) = (   0.000000   0.000000   0.387251 )  

     reciprocal axes: (cart. coord. in units 2 pi/alat)
               b(1) = (  0.979040  0.565249 -0.000000 )  
               b(2) = (  0.000000  1.130498  0.000000 )  
               b(3) = (  0.000000 -0.000000  2.582306 )  


     PseudoPot. # 1 for Si read from file:
     ../pseudo/Si_ONCV_PBE_sr.upf
     MD5 check sum: e543d271109d17c80368dfa7c482276d
     Pseudo is Norm-conserving + core correction, Zval =  4.0
     Generated using ONCVPSP code by D. R. Hamann
     Using radial grid of 1510 points,  6 beta functions with: 
                l(1) =   0
                l(2) =   0
                l(3) =   1
                l(4) =   1
                l(5) =   2
                l(6) =   2

     PseudoPot. # 2 for Li read from file:
     ../pseudo/Li_ONCV_PBE_sr.upf
     MD5 check sum: 50ff420e78310ffa21704f3361e624a4
     Pseudo is Norm-conserving, Zval =  3.0
     Generated using ONCVPSP code by D. R. Hamann
     Using radial grid of 1944 points,  4 beta functions with: 
                l(1) =   0
                l(2) =   0
                l(3) =   1
                l(4) =   1

     atomic species   valence    mass     pseudopotential
        Si             4.00    28.08550     Si( 1.00)
        Li             3.00     6.94100     Li( 1.00)

     24 Sym. Ops., with inversion, found



   Cartesian axes

     site n.     atom                  positions (alat units)
         1           Si  tau(   1) = (  -0.0000000   0.5897108   0.1936254  )
         2           Si  tau(   2) = (   0.5107045   0.2948554   0.1936254  )
         3           Li  tau(   3) = (  -0.1589957   0.2753887  -0.0000000  )
         4           Li  tau(   4) = (  -0.3517088   0.6091775  -0.0000000  )
         5           Li  tau(   5) = (   0.7034176  -0.0000000   0.0000000  )
         6           Li  tau(   6) = (   0.3179915  -0.0000000  -0.0000000  )
         7           Li  tau(   7) = (   0.3517088   0.6091775  -0.0000000  )
         8           Li  tau(   8) = (   0.1589957   0.2753887  -0.0000000  )

     number of k points=   128  Marzari-Vanderbilt smearing, width (Ry)=  0.0200

     Number of k-points >= 100: set verbosity='high' to print them.

     Dense  grid:    29691 G-vectors     FFT dimensions: (  60,  60,  24)

     Estimated max dynamical RAM per process >      29.05 MB

     Estimated total dynamical RAM >     232.38 MB

     Initial potential from superposition of free atoms

     starting charge      25.9714, renormalised to      26.0000
     Starting wfcs are   20 randomized atomic wfcs

     total cpu time spent up to now is      156.3 secs

     Self-consistent Calculation

     iteration #  1     ecut=    60.00 Ry     beta= 0.80
     Davidson diagonalization with overlap
     c_bands:  1 eigenvalues not converged
     c_bands:  1 eigenvalues not converged
     c_bands:  1 eigenvalues not converged
     c_bands:  1 eigenvalues not converged
     c_bands:  1 eigenvalues not converged
     c_bands:  2 eigenvalues not converged
     c_bands:  2 eigenvalues not converged
     c_bands:  1 eigenvalues not converged
     c_bands:  2 eigenvalues not converged
     c_bands:  1 eigenvalues not converged
     c_bands:  1 eigenvalues not converged
     c_bands:  1 eigenvalues not converged
     c_bands:  1 eigenvalues not converged
     c_bands:  1 eigenvalues not converged
     c_bands:  2 eigenvalues not converged
     c_bands:  1 eigenvalues not converged
     c_bands:  1 eigenvalues not converged
     c_bands:  2 eigenvalues not converged
     c_bands:  2 eigenvalues not converged
     c_bands:  2 eigenvalues not converged
     c_bands:  1 eigenvalues not converged
     c_bands:  1 eigenvalues not converged
     c_bands:  2 eigenvalues not converged
     c_bands:  1 eigenvalues not converged
     c_bands:  2 eigenvalues not converged
     c_bands:  1 eigenvalues not converged
     c_bands:  2 eigenvalues not converged
     c_bands:  2 eigenvalues not converged
     c_bands:  2 eigenvalues not converged
     c_bands:  2 eigenvalues not converged
     c_bands:  1 eigenvalues not converged
     c_bands:  2 eigenvalues not converged
     c_bands:  2 eigenvalues not converged
     ethr =  1.00E-06,  avg # of iterations = 17.2

     total cpu time spent up to now is      163.4 secs

     total energy              =    -102.94608858 Ry
     estimated scf accuracy    <       0.10142004 Ry

     iteration #  2     ecut=    60.00 Ry     beta= 0.80
     Davidson diagonalization with overlap
     ethr =  3.90E-04,  avg # of iterations =  3.1

     total cpu time spent up to now is      165.9 secs

     total energy              =    -102.95543336 Ry
     estimated scf accuracy    <       0.12092226 Ry

     iteration #  3     ecut=    60.00 Ry     beta= 0.80
     Davidson diagonalization with overlap
     ethr =  3.90E-04,  avg # of iterations =  2.3

     total cpu time spent up to now is      168.0 secs

     total energy              =    -102.98265429 Ry
     estimated scf accuracy    <       0.00097121 Ry

     iteration #  4     ecut=    60.00 Ry     beta= 0.80
     Davidson diagonalization with overlap
     ethr =  3.74E-06,  avg # of iterations =  4.4

     total cpu time spent up to now is      170.5 secs

     total energy              =    -102.98286142 Ry
     estimated scf accuracy    <       0.00010847 Ry

     iteration #  5     ecut=    60.00 Ry     beta= 0.80
     Davidson diagonalization with overlap
     ethr =  4.17E-07,  avg # of iterations =  2.0

     total cpu time spent up to now is      172.5 secs

     total energy              =    -102.98288312 Ry
     estimated scf accuracy    <       0.00000054 Ry

     iteration #  6     ecut=    60.00 Ry     beta= 0.80
     Davidson diagonalization with overlap
     ethr =  2.09E-09,  avg # of iterations =  3.9

     total cpu time spent up to now is      175.0 secs

     total energy              =    -102.98288351 Ry
     estimated scf accuracy    <       0.00000041 Ry

     iteration #  7     ecut=    60.00 Ry     beta= 0.80
     Davidson diagonalization with overlap
     ethr =  1.58E-09,  avg # of iterations =  2.0

     total cpu time spent up to now is      177.0 secs

     total energy              =    -102.98288357 Ry
     estimated scf accuracy    <          6.6E-09 Ry

     iteration #  8     ecut=    60.00 Ry     beta= 0.80
     Davidson diagonalization with overlap
     ethr =  2.56E-11,  avg # of iterations =  3.7

     total cpu time spent up to now is      179.3 secs

     total energy              =    -102.98288357 Ry
     estimated scf accuracy    <          1.1E-09 Ry

     iteration #  9     ecut=    60.00 Ry     beta= 0.80
     Davidson diagonalization with overlap
     ethr =  4.08E-12,  avg # of iterations =  2.0

     total cpu time spent up to now is      181.2 secs

     End of self-consistent calculation

     Number of k-points >= 100: set verbosity='high' to print the bands.

     the Fermi energy is     8.7071 ev

!    total energy              =    -102.98288358 Ry
     estimated scf accuracy    <          4.4E-12 Ry
     smearing contrib. (-TS)   =       0.00005261 Ry
     internal energy E=F+TS    =    -102.98293619 Ry

     The total energy is F=E-TS. E is the sum of the following terms:
     one-electron contribution =     -32.92949974 Ry
     hartree contribution      =      18.65400257 Ry
     xc contribution           =     -27.70043752 Ry
     ewald contribution        =     -61.00700150 Ry

     convergence has been achieved in   9 iterations

     Forces acting on atoms (cartesian axes, Ry/au):

     atom    1 type  1   force =     0.00000000    0.00000000    0.00000000
     atom    2 type  1   force =    -0.00000000   -0.00000000    0.00000000
     atom    3 type  2   force =    -0.00003622    0.00006273   -0.00000000
     atom    4 type  2   force =     0.00003622   -0.00006273    0.00000000
     atom    5 type  2   force =    -0.00007243    0.00000000    0.00000000
     atom    6 type  2   force =     0.00007243    0.00000000   -0.00000000
     atom    7 type  2   force =    -0.00003622   -0.00006273   -0.00000000
     atom    8 type  2   force =     0.00003622    0.00006273   -0.00000000
     The non-local contrib.  to forces
     atom    1 type  1   force =    -0.00000000   -0.00000000    0.00000000
     atom    2 type  1   force =     0.00000000    0.00000000    0.00000000
     atom    3 type  2   force =     0.04606733   -0.07979096    0.00000000
     atom    4 type  2   force =    -0.04606733    0.07979096   -0.00000000
     atom    5 type  2   force =     0.09213466    0.00000000    0.00000000
     atom    6 type  2   force =    -0.09213466   -0.00000000    0.00000000
     atom    7 type  2   force =     0.04606733    0.07979096   -0.00000000
     atom    8 type  2   force =    -0.04606733   -0.07979096    0.00000000
     The ionic contribution  to forces
     atom    1 type  1   force =     0.00000014   -0.00000008   -0.00000000
     atom    2 type  1   force =    -0.00000014    0.00000008   -0.00000000
     atom    3 type  2   force =     0.41449920   -0.71793352   -0.00000000
     atom    4 type  2   force =    -0.41449920    0.71793352   -0.00000000
     atom    5 type  2   force =     0.82899827   -0.00000007   -0.00000000
     atom    6 type  2   force =    -0.82899827    0.00000007    0.00000000
     atom    7 type  2   force =     0.41449907    0.71793345   -0.00000000
     atom    8 type  2   force =    -0.41449907   -0.71793345    0.00000000
     The local contribution  to forces
     atom    1 type  1   force =    -0.00000000    0.00000000    0.00000000
     atom    2 type  1   force =     0.00000000   -0.00000000   -0.00000000
     atom    3 type  2   force =    -0.46060335    0.79778840    0.00000000
     atom    4 type  2   force =     0.46060335   -0.79778840    0.00000000
     atom    5 type  2   force =    -0.92120669    0.00000000    0.00000000
     atom    6 type  2   force =     0.92120669    0.00000000   -0.00000000
     atom    7 type  2   force =    -0.46060335   -0.79778840   -0.00000000
     atom    8 type  2   force =     0.46060335    0.79778840    0.00000000
     The core correction contribution to forces
     atom    1 type  1   force =    -0.00000001    0.00000000   -0.00000000
     atom    2 type  1   force =     0.00000001   -0.00000000   -0.00000000
     atom    3 type  2   force =     0.00000000    0.00000000    0.00000000
     atom    4 type  2   force =     0.00000000    0.00000000    0.00000000
     atom    5 type  2   force =     0.00000000    0.00000000    0.00000000
     atom    6 type  2   force =     0.00000000    0.00000000    0.00000000
     atom    7 type  2   force =     0.00000000    0.00000000    0.00000000
     atom    8 type  2   force =     0.00000000    0.00000000    0.00000000
     The Hubbard contrib.    to forces
     atom    1 type  1   force =     0.00000000    0.00000000    0.00000000
     atom    2 type  1   force =     0.00000000    0.00000000    0.00000000
     atom    3 type  2   force =     0.00000000    0.00000000    0.00000000
     atom    4 type  2   force =     0.00000000    0.00000000    0.00000000
     atom    5 type  2   force =     0.00000000    0.00000000    0.00000000
     atom    6 type  2   force =     0.00000000    0.00000000    0.00000000
     atom    7 type  2   force =     0.00000000    0.00000000    0.00000000
     atom    8 type  2   force =     0.00000000    0.00000000    0.00000000
     The SCF correction term to forces
     atom    1 type  1   force =     0.00000000   -0.00000000    0.00000000
     atom    2 type  1   force =    -0.00000000    0.00000000   -0.00000000
     atom    3 type  2   force =     0.00000069   -0.00000119   -0.00000000
     atom    4 type  2   force =    -0.00000069    0.00000119   -0.00000000
     atom    5 type  2   force =     0.00000137   -0.00000000   -0.00000000
     atom    6 type  2   force =    -0.00000137    0.00000000   -0.00000000
     atom    7 type  2   force =     0.00000069    0.00000119   -0.00000000
     atom    8 type  2   force =    -0.00000069   -0.00000119   -0.00000000

     Total force =     0.000177     Total SCF correction =     0.000003


     Computing stress (Cartesian axis) and pressure

          total   stress  (Ry/bohr**3)                   (kbar)     P=      507.01
   0.00346721  -0.00000000   0.00000000          510.04       -0.00        0.00
  -0.00000000   0.00346721  -0.00000000           -0.00      510.04       -0.00
   0.00000000   0.00000000   0.00340542            0.00        0.00      500.96


     Writing all to output data dir ./output/SiLi.save/

     init_run     :      2.15s CPU      2.35s WALL (       2 calls)
     electrons    :    144.73s CPU    153.11s WALL (       8 calls)
     update_pot   :      1.97s CPU      2.02s WALL (       6 calls)
     forces       :      3.36s CPU      3.48s WALL (       8 calls)
     stress       :     22.89s CPU     23.42s WALL (       8 calls)

     Called by init_run:
     wfcinit      :      1.41s CPU      1.44s WALL (       2 calls)
     potinit      :      0.29s CPU      0.38s WALL (       2 calls)
     hinit0       :      0.41s CPU      0.46s WALL (       2 calls)

     Called by electrons:
     c_bands      :    127.43s CPU    134.19s WALL (      66 calls)
     sum_band     :     16.31s CPU     17.08s WALL (      66 calls)
     v_of_rho     :      0.96s CPU      1.76s WALL (      73 calls)
     mix_rho      :      0.09s CPU      0.16s WALL (      66 calls)

     Called by c_bands:
     init_us_2    :      2.99s CPU      3.28s WALL (   19200 calls)
     init_us_2:cp :      2.96s CPU      3.25s WALL (   19200 calls)
     cegterg      :    120.45s CPU    124.15s WALL (    8448 calls)

     Called by *egterg:
     cdiaghg      :     11.57s CPU     12.02s WALL (   34777 calls)
     h_psi        :     96.18s CPU     99.10s WALL (   35929 calls)
     g_psi        :      0.44s CPU      0.45s WALL (   27225 calls)

     Called by h_psi:
     h_psi:calbec :      8.38s CPU      8.64s WALL (   35929 calls)
     vloc_psi     :     80.74s CPU     83.20s WALL (   35929 calls)
     add_vuspsi   :      6.70s CPU      6.88s WALL (   35929 calls)

     General routines
     calbec       :     10.72s CPU     11.08s WALL (   41049 calls)
     fft          :      1.19s CPU      2.22s WALL (     929 calls)
     ffts         :      0.10s CPU      0.21s WALL (      66 calls)
     fftw         :     82.71s CPU     85.19s WALL (  956850 calls)

     Parallel routines

     PWSCF        :   2m55.53s CPU   3m 5.37s WALL


   This run was terminated on:  16:25:12  17Jan2025            

=------------------------------------------------------------------------------=
   JOB DONE.
=------------------------------------------------------------------------------=
