
     Program PWSCF v.7.2 starts on 29Dec2024 at 12:16:36 

     This program is part of the open-source Quantum ESPRESSO suite
     for quantum simulation of materials; please cite
         "P. Giannozzi et al., J. Phys.:Condens. Matter 21 395502 (2009);
         "P. Giannozzi et al., J. Phys.:Condens. Matter 29 465901 (2017);
         "P. Giannozzi et al., J. Chem. Phys. 152 154105 (2020);
          URL http://www.quantum-espresso.org", 
     in publications or presentations arising from this work. More details at
     http://www.quantum-espresso.org/quote

     Parallel version (MPI & OpenMP), running on       8 processor cores
     Number of MPI processes:                 8
     Threads/MPI process:                     1

     MPI processes distributed on     1 nodes
     481618 MiB available memory on the printing compute node when the environment starts

     Waiting for input...
     Reading input from standard input

     Current dimensions of program PWSCF are:
     Max number of different atomic species (ntypx) = 10
     Max number of k-points (npk) =  40000
     Max angular momentum in pseudopotentials (lmaxx) =  4

     R & G space division:  proc/nbgrp/npool/nimage =       8
     Subspace diagonalization in iterative solution of the eigenvalue problem:
     a serial algorithm will be used


     Parallelization info
     --------------------
     sticks:   dense  smooth     PW     G-vecs:    dense   smooth      PW
     Min          54      54     15                 2264     2264     369
     Max          56      56     16                 2271     2271     378
     Sum         439     439    127                18129    18129    2981

     Using Slab Decomposition



     bravais-lattice index     =            4
     lattice parameter (alat)  =       4.4642  a.u.
     unit-cell volume          =     188.2285 (a.u.)^3
     number of atoms/cell      =            4
     number of atomic types    =            2
     number of electrons       =        15.00
     number of Kohn-Sham states=           12
     kinetic-energy cutoff     =      80.0000  Ry
     charge density cutoff     =     320.0000  Ry
     scf convergence threshold =      1.0E-08
     mixing beta               =       0.7000
     number of iterations used =            8  plain     mixing
     energy convergence thresh.=      1.0E-04
     force convergence thresh. =      1.0E-03
     press convergence thresh. =      1.0E+00
     Exchange-correlation= PBE
                           (   1   4   3   4   0   0   0)
     nstep                     =           50


     celldm(1)=   4.464210  celldm(2)=   0.000000  celldm(3)=   2.442985
     celldm(4)=   0.000000  celldm(5)=   0.000000  celldm(6)=   0.000000

     crystal axes: (cart. coord. in units of alat)
               a(1) = (   1.000000   0.000000   0.000000 )  
               a(2) = (  -0.500000   0.866025   0.000000 )  
               a(3) = (   0.000000   0.000000   2.442985 )  

     reciprocal axes: (cart. coord. in units 2 pi/alat)
               b(1) = (  1.000000  0.577350 -0.000000 )  
               b(2) = (  0.000000  1.154701  0.000000 )  
               b(3) = (  0.000000 -0.000000  0.409335 )  


     PseudoPot. # 1 for Si read from file:
     ../pseudo/Si_ONCV_PBE_sr.upf
     MD5 check sum: e543d271109d17c80368dfa7c482276d
     Pseudo is Norm-conserving + core correction, Zval =  4.0
     Generated using ONCVPSP code by D. R. Hamann
     Using radial grid of 1510 points,  6 beta functions with: 
                l(1) =   0
                l(2) =   0
                l(3) =   1
                l(4) =   1
                l(5) =   2
                l(6) =   2

     PseudoPot. # 2 for Li read from file:
     ../pseudo/Li_ONCV_PBE_sr.upf
     MD5 check sum: 50ff420e78310ffa21704f3361e624a4
     Pseudo is Norm-conserving, Zval =  3.0
     Generated using ONCVPSP code by D. R. Hamann
     Using radial grid of 1944 points,  4 beta functions with: 
                l(1) =   0
                l(2) =   0
                l(3) =   1
                l(4) =   1

     atomic species   valence    mass     pseudopotential
        Si             4.00    28.08550     Si( 1.00)
        Li             3.00     6.94100     Li( 1.00)

     12 Sym. Ops., with inversion, found



   Cartesian axes

     site n.     atom                  positions (alat units)
         1           Si  tau(   1) = (  -0.0000000   0.5773503   0.4466852  )
         2           Si  tau(   2) = (   0.5000000   0.2886751   1.9963001  )
         3           Si  tau(   3) = (   0.0000000   0.0000000   1.2214926  )
         4           Li  tau(   4) = (   0.0000000   0.0000000   0.0000000  )

     number of k points=    50  Marzari-Vanderbilt smearing, width (Ry)=  0.0200
                       cart. coord. in units 2pi/alat
        k(    1) = (   0.0000000   0.0000000   0.0000000), wk =   0.0050000
        k(    2) = (   0.0000000   0.0000000   0.1023338), wk =   0.0100000
        k(    3) = (   0.0000000   0.0000000  -0.2046676), wk =   0.0050000
        k(    4) = (   0.0000000   0.1154701   0.0000000), wk =   0.0300000
        k(    5) = (   0.0000000   0.1154701   0.1023338), wk =   0.0300000
        k(    6) = (   0.0000000   0.1154701  -0.2046676), wk =   0.0300000
        k(    7) = (   0.0000000   0.2309401   0.0000000), wk =   0.0300000
        k(    8) = (   0.0000000   0.2309401   0.1023338), wk =   0.0300000
        k(    9) = (   0.0000000   0.2309401  -0.2046676), wk =   0.0300000
        k(   10) = (   0.0000000   0.3464102   0.0000000), wk =   0.0300000
        k(   11) = (   0.0000000   0.3464102   0.1023338), wk =   0.0300000
        k(   12) = (   0.0000000   0.3464102  -0.2046676), wk =   0.0300000
        k(   13) = (   0.0000000   0.4618802   0.0000000), wk =   0.0300000
        k(   14) = (   0.0000000   0.4618802   0.1023338), wk =   0.0300000
        k(   15) = (   0.0000000   0.4618802  -0.2046676), wk =   0.0300000
        k(   16) = (   0.0000000  -0.5773503   0.0000000), wk =   0.0150000
        k(   17) = (   0.0000000  -0.5773503   0.1023338), wk =   0.0300000
        k(   18) = (   0.0000000  -0.5773503  -0.2046676), wk =   0.0150000
        k(   19) = (   0.1000000   0.1732051   0.0000000), wk =   0.0300000
        k(   20) = (   0.1000000   0.1732051   0.1023338), wk =   0.0600000
        k(   21) = (   0.1000000   0.1732051  -0.2046676), wk =   0.0300000
        k(   22) = (   0.1000000   0.2886751   0.0000000), wk =   0.0600000
        k(   23) = (   0.1000000   0.2886751   0.1023338), wk =   0.0600000
        k(   24) = (   0.1000000   0.2886751  -0.2046676), wk =   0.0600000
        k(   25) = (   0.1000000   0.4041452   0.0000000), wk =   0.0600000
        k(   26) = (   0.1000000   0.4041452   0.1023338), wk =   0.0600000
        k(   27) = (   0.1000000   0.4041452  -0.2046676), wk =   0.0600000
        k(   28) = (   0.1000000   0.5196152   0.0000000), wk =   0.0600000
        k(   29) = (   0.1000000   0.5196152   0.1023338), wk =   0.0600000
        k(   30) = (   0.1000000   0.5196152  -0.2046676), wk =   0.0600000
        k(   31) = (   0.2000000   0.3464102   0.0000000), wk =   0.0300000
        k(   32) = (   0.2000000   0.3464102   0.1023338), wk =   0.0600000
        k(   33) = (   0.2000000   0.3464102  -0.2046676), wk =   0.0300000
        k(   34) = (   0.2000000   0.4618802   0.0000000), wk =   0.0600000
        k(   35) = (   0.2000000   0.4618802   0.1023338), wk =   0.0600000
        k(   36) = (   0.2000000   0.4618802  -0.2046676), wk =   0.0600000
        k(   37) = (   0.2000000   0.5773503   0.0000000), wk =   0.0300000
        k(   38) = (   0.2000000   0.5773503   0.1023338), wk =   0.0600000
        k(   39) = (   0.2000000   0.5773503  -0.2046676), wk =   0.0300000
        k(   40) = (   0.3000000   0.5196152   0.0000000), wk =   0.0300000
        k(   41) = (   0.3000000   0.5196152   0.1023338), wk =   0.0600000
        k(   42) = (   0.3000000   0.5196152  -0.2046676), wk =   0.0300000
        k(   43) = (   0.0000000   0.1154701  -0.1023338), wk =   0.0300000
        k(   44) = (   0.0000000   0.2309401  -0.1023338), wk =   0.0300000
        k(   45) = (   0.0000000   0.3464102  -0.1023338), wk =   0.0300000
        k(   46) = (   0.0000000   0.4618802  -0.1023338), wk =   0.0300000
        k(   47) = (  -0.1000000   0.2886751  -0.1023338), wk =   0.0600000
        k(   48) = (  -0.1000000   0.4041452  -0.1023338), wk =   0.0600000
        k(   49) = (  -0.1000000   0.5196152  -0.1023338), wk =   0.0600000
        k(   50) = (  -0.2000000   0.4618802  -0.1023338), wk =   0.0600000

     Dense  grid:    18129 G-vectors     FFT dimensions: (  25,  25,  64)

     Estimated max dynamical RAM per process >      16.01 MB

     Estimated total dynamical RAM >     128.10 MB

     Initial potential from superposition of free atoms

     starting charge      14.9936, renormalised to      15.0000
     Starting wfcs are   14 randomized atomic wfcs

     total cpu time spent up to now is        0.6 secs

     Self-consistent Calculation

     iteration #  1     ecut=    80.00 Ry     beta= 0.70
     Davidson diagonalization with overlap
     ethr =  1.00E-02,  avg # of iterations =  5.8

     total cpu time spent up to now is        1.1 secs

     total energy              =     -37.68984875 Ry
     estimated scf accuracy    <       1.33541792 Ry

     iteration #  2     ecut=    80.00 Ry     beta= 0.70
     Davidson diagonalization with overlap
     ethr =  8.90E-03,  avg # of iterations =  3.9

     total cpu time spent up to now is        1.5 secs

     total energy              =     -36.95681503 Ry
     estimated scf accuracy    <      12.68771014 Ry

     iteration #  3     ecut=    80.00 Ry     beta= 0.70
     Davidson diagonalization with overlap
     ethr =  8.90E-03,  avg # of iterations =  3.1

     total cpu time spent up to now is        1.8 secs

     total energy              =     -38.59687105 Ry
     estimated scf accuracy    <       0.00986190 Ry

     iteration #  4     ecut=    80.00 Ry     beta= 0.70
     Davidson diagonalization with overlap
     ethr =  6.57E-05,  avg # of iterations =  7.5

     total cpu time spent up to now is        2.3 secs

     total energy              =     -38.60751790 Ry
     estimated scf accuracy    <       0.00461215 Ry

     iteration #  5     ecut=    80.00 Ry     beta= 0.70
     Davidson diagonalization with overlap
     ethr =  3.07E-05,  avg # of iterations =  1.7

     total cpu time spent up to now is        2.6 secs

     total energy              =     -38.60811609 Ry
     estimated scf accuracy    <       0.00000989 Ry

     iteration #  6     ecut=    80.00 Ry     beta= 0.70
     Davidson diagonalization with overlap
     ethr =  6.59E-08,  avg # of iterations =  5.2

     total cpu time spent up to now is        3.1 secs

     total energy              =     -38.60813174 Ry
     estimated scf accuracy    <       0.00000020 Ry

     iteration #  7     ecut=    80.00 Ry     beta= 0.70
     Davidson diagonalization with overlap
     ethr =  1.34E-09,  avg # of iterations =  2.7

     total cpu time spent up to now is        3.4 secs

     End of self-consistent calculation

          k = 0.0000 0.0000 0.0000 (  2287 PWs)   bands (ev):

   -30.0828   0.8872   3.7130   7.0187  15.0469  17.5677  28.3556  28.3556
    30.6875  30.6876  32.5027  32.5028

          k = 0.0000 0.0000 0.1023 (  2269 PWs)   bands (ev):

   -30.0828   0.9232   3.4403   7.8150  12.8436  20.3350  28.4044  28.4044
    29.0857  30.8565  30.8565  31.9955

          k = 0.0000 0.0000-0.2047 (  2276 PWs)   bands (ev):

   -30.0828   0.9626   3.2120   9.0719  10.9497  24.1500  24.9048  28.4573
    28.4573  31.1444  31.1447  31.6075

          k = 0.0000 0.1155 0.0000 (  2275 PWs)   bands (ev):

   -30.0559   1.2089   4.0476   7.2003  15.3393  17.6154  25.6773  26.7080
    28.8593  29.0814  30.7579  30.9063

          k = 0.0000 0.1155 0.1023 (  2283 PWs)   bands (ev):

   -30.0558   1.2542   3.7357   8.0400  13.0649  20.3783  25.7915  26.7956
    27.8220  29.2575  29.6989  30.2444

          k = 0.0000 0.1155-0.2047 (  2282 PWs)   bands (ev):

   -30.0558   1.3048   3.4766   9.3941  11.0818  24.2219  24.3874  26.6125
    26.9207  27.3326  29.1582  30.7620

          k = 0.0000 0.2309 0.0000 (  2297 PWs)   bands (ev):

   -29.9849   2.1651   5.0440   7.7358  16.1631  17.4953  21.9748  24.0811
    24.7658  24.8674  28.8463  29.5085

          k = 0.0000 0.2309 0.1023 (  2292 PWs)   bands (ev):

   -29.9849   2.2376   4.6119   8.6844  13.7456  19.5374  22.8756  23.4219
    24.8638  25.8480  27.7696  28.9437

          k = 0.0000 0.2309-0.2047 (  2286 PWs)   bands (ev):

   -29.9849   2.3263   4.2561  10.3358  11.4782  21.0598  22.2279  24.9896
    25.1919  25.8796  27.2316  27.8377

          k = 0.0000 0.3464 0.0000 (  2291 PWs)   bands (ev):

   -29.8965   3.7239   6.6760   8.5857  15.4055  17.6290  19.7079  20.2218
    21.5007  23.3285  27.1605  27.3964

          k = 0.0000 0.3464 0.1023 (  2276 PWs)   bands (ev):

   -29.8964   3.8389   6.0346   9.6482  14.6603  16.5553  19.2208  21.6426
    23.3050  23.4249  26.3730  27.0435

          k = 0.0000 0.3464-0.2047 (  2264 PWs)   bands (ev):

   -29.8964   4.0105   5.4989  11.6792  12.1490  17.0784  18.4510  23.5428
    23.5822  24.7335  25.8469  25.9104

          k = 0.0000 0.4619 0.0000 (  2275 PWs)   bands (ev):

   -29.8244   5.7922   8.8176   9.6121  12.3782  15.4954  17.5739  20.0125
    21.8932  22.4582  25.1226  26.5170

          k = 0.0000 0.4619 0.1023 (  2274 PWs)   bands (ev):

   -29.8244   5.9491   7.9229  10.5690  12.3968  16.2299  16.7401  18.5878
    22.5516  23.5320  24.9533  25.5328

          k = 0.0000 0.4619-0.2047 (  2278 PWs)   bands (ev):

   -29.8244   6.3224   7.0537  11.8240  12.4597  14.6649  16.6693  20.1812
    21.4116  22.6637  25.0163  26.3380

          k = 0.0000-0.5774 0.0000 (  2254 PWs)   bands (ev):

   -29.7967   7.5430   9.3651  10.6906  11.2959  12.8265  16.3770  22.0344
    22.1672  22.1885  24.1198  24.6231

          k = 0.0000-0.5774 0.1023 (  2282 PWs)   bands (ev):

   -29.7967   7.7364   9.2729  10.0525  11.0590  14.3050  16.6505  19.7680
    20.9891  22.2595  24.9370  25.2535

          k = 0.0000-0.5774-0.2047 (  2268 PWs)   bands (ev):

   -29.7967   8.0372   9.2149   9.3190  11.1488  16.0867  17.1079  17.7907
    19.6136  22.3694  24.7397  26.4704

          k = 0.1000 0.1732 0.0000 (  2291 PWs)   bands (ev):

   -30.0069   1.8480   4.7132   7.5605  15.9079  17.6402  23.0073  24.4504
    25.9516  26.6906  27.7493  28.0650

          k = 0.1000 0.1732 0.1023 (  2294 PWs)   bands (ev):

   -30.0069   1.9122   4.3175   8.4920  13.4780  20.3802  23.1790  24.6305
    25.2206  25.7380  28.5905  29.4162

          k = 0.1000 0.1732-0.2047 (  2282 PWs)   bands (ev):

   -30.0068   1.9867   3.9993  10.0275  11.3504  22.9568  23.2962  24.4223
    24.5151  25.6938  27.3421  30.8239

          k = 0.1000 0.2887 0.0000 (  2282 PWs)   bands (ev):

   -29.9271   3.1075   6.0288   8.2690  16.6542  17.3049  19.9956  21.6414
    22.7413  23.3325  25.8532  25.9426

          k = 0.1000 0.2887 0.1023 (  2280 PWs)   bands (ev):

   -29.9271   3.2075   5.4655   9.3276  14.3483  18.2674  21.0974  21.3248
    23.0123  23.7509  25.4204  27.5841

          k = 0.1000 0.2887-0.2047 (  2274 PWs)   bands (ev):

   -29.9271   3.3397   5.0164  11.2290  11.8915  19.1643  20.2578  21.7043
    22.9668  25.6436  26.5289  27.7065

          k = 0.1000 0.4041 0.0000 (  2279 PWs)   bands (ev):

   -29.8468   4.9366   7.9460   9.2682  14.0890  17.3453  18.5006  18.9397
    20.0735  22.9186  24.5820  24.9829

          k = 0.1000 0.4041 0.1023 (  2276 PWs)   bands (ev):

   -29.8468   5.0819   7.1326  10.3852  14.1723  16.1616  17.6862  19.1415
    21.4010  22.9070  24.6434  26.1648

          k = 0.1000 0.4041-0.2047 (  2276 PWs)   bands (ev):

   -29.8468   5.3406   6.4504  12.2169  12.9101  15.3807  17.1948  20.1520
    21.5663  23.5369  23.6327  27.5920

          k = 0.1000 0.5196 0.0000 (  2276 PWs)   bands (ev):

   -29.7969   7.1280   9.7488  10.5694  11.3935  14.0228  16.5313  18.9140
    21.4929  23.1804  23.8621  25.0332

          k = 0.1000 0.5196 0.1023 (  2271 PWs)   bands (ev):

   -29.7969   7.2897   9.1785  10.7650  11.2620  15.4416  16.4997  17.7882
    21.1379  22.2753  22.8093  26.0330

          k = 0.1000 0.5196-0.2047 (  2266 PWs)   bands (ev):

   -29.7969   7.8449   8.0906  11.0988  11.6085  15.5098  16.8627  17.9997
    19.7586  21.8217  22.2803  27.6709

          k = 0.2000 0.3464 0.0000 (  2280 PWs)   bands (ev):

   -29.8555   4.6450   7.6383   9.1745  16.1498  16.3556  18.3274  19.6609
    20.8972  21.2629  22.6357  24.6708

          k = 0.2000 0.3464 0.1023 (  2275 PWs)   bands (ev):

   -29.8555   4.7921   6.8301  10.4449  14.8346  16.5719  18.5073  18.9636
    19.9405  23.0001  24.2339  25.0501

          k = 0.2000 0.3464-0.2047 (  2262 PWs)   bands (ev):

   -29.8554   5.0103   6.2456  12.5581  12.5998  16.8620  17.9064  19.2262
    19.4729  24.7247  25.4759  25.4991

          k = 0.2000 0.4619 0.0000 (  2267 PWs)   bands (ev):

   -29.7972   6.6979   9.7518  10.3985  13.0158  15.3908  16.3659  17.3567
    19.9392  21.5012  21.9446  24.9123

          k = 0.2000 0.4619 0.1023 (  2269 PWs)   bands (ev):

   -29.7972   6.8795   8.7257  11.5128  13.1382  15.2597  16.4014  17.1193
    19.2853  21.1756  23.0004  25.3131

          k = 0.2000 0.4619-0.2047 (  2270 PWs)   bands (ev):

   -29.7972   7.3028   7.8476  12.7208  13.3113  14.3456  15.8722  17.9929
    18.4385  22.0136  22.7479  25.1342

          k = 0.2000 0.5774 0.0000 (  2260 PWs)   bands (ev):

   -29.7749   8.5280  10.1480  11.6067  12.1390  13.3182  15.2868  16.2872
    19.6737  21.8609  23.0806  25.0619

          k = 0.2000 0.5774 0.1023 (  2262 PWs)   bands (ev):

   -29.7749   8.7200  10.1298  11.0002  11.6812  14.4366  15.7715  16.2686
    19.7579  20.9935  22.1453  24.0037

          k = 0.2000 0.5774-0.2047 (  2252 PWs)   bands (ev):

   -29.7749   9.0198  10.1399  10.2594  11.6295  15.2371  15.6352  17.4086
    19.3978  19.5657  21.5732  25.0571

          k = 0.3000 0.5196 0.0000 (  2258 PWs)   bands (ev):

   -29.7666   8.8828  11.2309  11.8972  12.2279  13.3473  14.5111  16.1189
    17.2081  21.1386  23.3060  25.7689

          k = 0.3000 0.5196 0.1023 (  2258 PWs)   bands (ev):

   -29.7666   9.0916  10.6355  11.7454  12.9359  13.1909  13.9091  16.8277
    18.4243  20.3458  22.7565  24.3898

          k = 0.3000 0.5196-0.2047 (  2260 PWs)   bands (ev):

   -29.7666   9.5982   9.8269  12.0099  12.7842  13.1182  13.8088  18.1425
    18.8582  20.2485  21.8355  22.4380

          k = 0.0000 0.1155-0.1023 (  2283 PWs)   bands (ev):

   -30.0558   1.2544   3.7342   8.0457  13.0500  20.4339  25.8182  26.8132
    27.3749  29.1754  29.6612  30.7521

          k = 0.0000 0.2309-0.1023 (  2292 PWs)   bands (ev):

   -29.9849   2.2401   4.5976   8.7369  13.5968  20.2716  22.2355  22.8394
    24.8697  26.6621  27.7749  28.3219

          k = 0.0000 0.3464-0.1023 (  2276 PWs)   bands (ev):

   -29.8964   3.8526   5.9665   9.8705  13.9380  18.0183  18.1675  22.5126
    22.7523  23.4267  25.6630  26.3789

          k = 0.0000 0.4619-0.1023 (  2274 PWs)   bands (ev):

   -29.8244   6.0106   7.6614  11.2512  12.3144  14.5276  17.6367  19.9622
    22.4789  22.5521  23.8384  25.5358

          k =-0.1000 0.2887-0.1023 (  2280 PWs)   bands (ev):

   -29.9271   3.2116   5.4435   9.4030  14.0988  19.3988  20.3168  20.4796
    23.5793  24.1201  25.4644  27.3640

          k =-0.1000 0.4041-0.1023 (  2276 PWs)   bands (ev):

   -29.8468   5.1078   7.0159  10.7444  13.6133  16.2368  17.6882  19.8365
    20.8969  23.3439  24.1851  26.3048

          k =-0.1000 0.5196-0.1023 (  2271 PWs)   bands (ev):

   -29.7969   7.3938   8.7187  11.1810  11.8105  13.8446  17.2366  18.6889
    20.3456  22.4428  22.7788  25.9355

          k =-0.2000 0.4619-0.1023 (  2269 PWs)   bands (ev):

   -29.7972   6.9141   8.5774  11.9940  13.0235  14.5795  16.1845  18.0038
    19.3780  20.6946  23.6305  24.2691

     the Fermi energy is    20.0525 ev

!    total energy              =     -38.60813180 Ry
     estimated scf accuracy    <          6.8E-09 Ry
     smearing contrib. (-TS)   =      -0.00035167 Ry
     internal energy E=F+TS    =     -38.60778013 Ry

     The total energy is F=E-TS. E is the sum of the following terms:
     one-electron contribution =      14.24032610 Ry
     hartree contribution      =       4.74723636 Ry
     xc contribution           =     -14.55625357 Ry
     ewald contribution        =     -43.03908901 Ry

     convergence has been achieved in   7 iterations

     Forces acting on atoms (cartesian axes, Ry/au):

     atom    1 type  1   force =     0.00000000    0.00000000    0.36756068
     atom    2 type  1   force =     0.00000000   -0.00000000   -0.36756068
     atom    3 type  1   force =     0.00000000    0.00000000    0.00000000
     atom    4 type  2   force =     0.00000000    0.00000000    0.00000000
     The non-local contrib.  to forces
     atom    1 type  1   force =     0.00000000   -0.00000000    0.24221379
     atom    2 type  1   force =     0.00000000   -0.00000000   -0.24221379
     atom    3 type  1   force =     0.00000000    0.00000000    0.00000000
     atom    4 type  2   force =     0.00000000    0.00000000    0.00000000
     The ionic contribution  to forces
     atom    1 type  1   force =     0.00000002   -0.00000001    3.60066182
     atom    2 type  1   force =    -0.00000002    0.00000001   -3.60066182
     atom    3 type  1   force =     0.00000000    0.00000000    0.00000000
     atom    4 type  2   force =    -0.00000000   -0.00000000    0.00000000
     The local contribution  to forces
     atom    1 type  1   force =    -0.00000002    0.00000001   -3.46226136
     atom    2 type  1   force =     0.00000002   -0.00000001    3.46226136
     atom    3 type  1   force =    -0.00000000   -0.00000000   -0.00000000
     atom    4 type  2   force =    -0.00000000   -0.00000000    0.00000000
     The core correction contribution to forces
     atom    1 type  1   force =    -0.00000000    0.00000000   -0.01315908
     atom    2 type  1   force =     0.00000000   -0.00000000    0.01315908
     atom    3 type  1   force =    -0.00000000    0.00000000   -0.00000000
     atom    4 type  2   force =     0.00000000    0.00000000    0.00000000
     The Hubbard contrib.    to forces
     atom    1 type  1   force =     0.00000000    0.00000000    0.00000000
     atom    2 type  1   force =     0.00000000    0.00000000    0.00000000
     atom    3 type  1   force =     0.00000000    0.00000000    0.00000000
     atom    4 type  2   force =     0.00000000    0.00000000    0.00000000
     The SCF correction term to forces
     atom    1 type  1   force =     0.00000000   -0.00000000    0.00010551
     atom    2 type  1   force =    -0.00000000    0.00000000   -0.00010551
     atom    3 type  1   force =    -0.00000000   -0.00000000    0.00000000
     atom    4 type  2   force =    -0.00000000    0.00000000   -0.00000000

     Total force =     0.519809     Total SCF correction =     0.000149


     Computing stress (Cartesian axis) and pressure

          total   stress  (Ry/bohr**3)                   (kbar)     P=     2276.30
   0.01481664   0.00000000  -0.00000000         2179.60        0.00       -0.00
   0.00000000   0.01481664  -0.00000000            0.00     2179.60       -0.00
  -0.00000000  -0.00000000   0.01678856           -0.00       -0.00     2469.68


     BFGS Geometry Optimization
     Energy error            =      0.0E+00 Ry
     Gradient error          =      3.7E-01 Ry/Bohr
     Cell gradient error     =      2.0E+03 kbar

     number of scf cycles    =   1
     number of bfgs steps    =   0

     enthalpy           new  =     -37.9683561758 Ry

     new trust radius        =       0.5000000000 bohr
ibrav =      4
 celldm(1) =      5.15787957
 celldm(3) =      2.49972814
Input lattice vectors:
     1.15538460     0.00000000    -0.00000000
    -0.57769230     1.00059242     0.00000000
    -0.00000000    -0.00000000     2.88814739
New lattice vectors in INITIAL alat:
     1.15538460     0.00000000     0.00000000
    -0.57769230     1.00059242     0.00000000
     0.00000000     0.00000000     2.88814739
New lattice vectors in NEW alat (for information only):
     1.00000000     0.00000000     0.00000000
    -0.50000000     0.86602540     0.00000000
     0.00000000     0.00000000     2.49972814
Discrepancy in bohr =     0.000000    0.000000    0.000000
     new conv_thr            =       0.0000000100 Ry

     new unit-cell volume =    297.05509 a.u.^3 (    44.01902 Ang^3 )
     density =      3.44026 g/cm^3

CELL_PARAMETERS (alat=  4.46421007)
   1.155384600   0.000000000   0.000000000
  -0.577692300   1.000592415   0.000000000
   0.000000000   0.000000000   2.888147393

ATOMIC_POSITIONS (crystal)
Si            0.3333333300        0.6666666700        0.2011904658
Si            0.6666666700        0.3333333300        0.7988095342
Si            0.0000000000        0.0000000000        0.5000000000
Li            0.0000000000        0.0000000000        0.0000000000



     Writing config-only to output data dir ./output/SiLi.save/
     NEW-OLD atomic charge density approx. for the potential
     extrapolated charge   20.49293, renormalised to   15.00000

     total cpu time spent up to now is        4.4 secs

     Self-consistent Calculation

     iteration #  1     ecut=    80.00 Ry     beta= 0.70
     Davidson diagonalization with overlap
     c_bands:  1 eigenvalues not converged
     c_bands:  2 eigenvalues not converged
     c_bands:  1 eigenvalues not converged
     c_bands:  1 eigenvalues not converged
     c_bands:  1 eigenvalues not converged
     c_bands:  2 eigenvalues not converged
     c_bands:  1 eigenvalues not converged
     c_bands:  1 eigenvalues not converged
     c_bands:  1 eigenvalues not converged
     c_bands:  2 eigenvalues not converged
     c_bands:  2 eigenvalues not converged
     c_bands:  2 eigenvalues not converged
     c_bands:  1 eigenvalues not converged
     c_bands:  1 eigenvalues not converged
     c_bands:  1 eigenvalues not converged
     c_bands:  1 eigenvalues not converged
     c_bands:  1 eigenvalues not converged
     c_bands:  1 eigenvalues not converged
     c_bands:  1 eigenvalues not converged
     ethr =  1.00E-06,  avg # of iterations = 16.8

     total cpu time spent up to now is        5.7 secs

     total energy              =     -32.52257819 Ry
     estimated scf accuracy    <       7.29790859 Ry

     iteration #  2     ecut=    80.00 Ry     beta= 0.70
     Davidson diagonalization with overlap
     ethr =  1.00E-02,  avg # of iterations =  7.3

     total cpu time spent up to now is        6.3 secs

     total energy              =     -37.26116151 Ry
     estimated scf accuracy    <      61.09374679 Ry

     iteration #  3     ecut=    80.00 Ry     beta= 0.70
     Davidson diagonalization with overlap
     ethr =  1.00E-02,  avg # of iterations =  4.0

     total cpu time spent up to now is        6.8 secs

     total energy              =     -39.78760021 Ry
     estimated scf accuracy    <       7.99667347 Ry

     iteration #  4     ecut=    80.00 Ry     beta= 0.70
     Davidson diagonalization with overlap
     ethr =  1.00E-02,  avg # of iterations =  2.0

     total cpu time spent up to now is        7.0 secs

     total energy              =     -39.33955329 Ry
     estimated scf accuracy    <       3.46983490 Ry

     iteration #  5     ecut=    80.00 Ry     beta= 0.70
     Davidson diagonalization with overlap
     ethr =  1.00E-02,  avg # of iterations =  2.0

     total cpu time spent up to now is        7.3 secs

     total energy              =     -39.41082255 Ry
     estimated scf accuracy    <       0.45471361 Ry

     iteration #  6     ecut=    80.00 Ry     beta= 0.70
     Davidson diagonalization with overlap
     ethr =  3.03E-03,  avg # of iterations =  2.5

     total cpu time spent up to now is        7.7 secs

     total energy              =     -39.49623080 Ry
     estimated scf accuracy    <       0.01371363 Ry

     iteration #  7     ecut=    80.00 Ry     beta= 0.70
     Davidson diagonalization with overlap
     ethr =  9.14E-05,  avg # of iterations =  6.2

     total cpu time spent up to now is        8.2 secs

     total energy              =     -39.49267112 Ry
     estimated scf accuracy    <       0.01966170 Ry

     iteration #  8     ecut=    80.00 Ry     beta= 0.70
     Davidson diagonalization with overlap
     ethr =  9.14E-05,  avg # of iterations =  2.0

     total cpu time spent up to now is        8.5 secs

     total energy              =     -39.49675332 Ry
     estimated scf accuracy    <       0.00300752 Ry

     iteration #  9     ecut=    80.00 Ry     beta= 0.70
     Davidson diagonalization with overlap
     ethr =  2.01E-05,  avg # of iterations =  1.4

     total cpu time spent up to now is        8.8 secs

     total energy              =     -39.49678986 Ry
     estimated scf accuracy    <       0.00043725 Ry

     iteration # 10     ecut=    80.00 Ry     beta= 0.70
     Davidson diagonalization with overlap
     ethr =  2.91E-06,  avg # of iterations =  3.4

     total cpu time spent up to now is        9.2 secs

     total energy              =     -39.49687606 Ry
     estimated scf accuracy    <       0.00002127 Ry

     iteration # 11     ecut=    80.00 Ry     beta= 0.70
     Davidson diagonalization with overlap
     ethr =  1.42E-07,  avg # of iterations =  1.9

     total cpu time spent up to now is        9.5 secs

     total energy              =     -39.49687007 Ry
     estimated scf accuracy    <       0.00002987 Ry

     iteration # 12     ecut=    80.00 Ry     beta= 0.70
     Davidson diagonalization with overlap
     ethr =  1.42E-07,  avg # of iterations =  1.6

     total cpu time spent up to now is        9.8 secs

     total energy              =     -39.49687333 Ry
     estimated scf accuracy    <       0.00000018 Ry

     iteration # 13     ecut=    80.00 Ry     beta= 0.70
     Davidson diagonalization with overlap
     ethr =  1.22E-09,  avg # of iterations =  3.8

     total cpu time spent up to now is       10.2 secs

     total energy              =     -39.49687345 Ry
     estimated scf accuracy    <       0.00000003 Ry

     iteration # 14     ecut=    80.00 Ry     beta= 0.70
     Davidson diagonalization with overlap
     ethr =  1.81E-10,  avg # of iterations =  1.8

     total cpu time spent up to now is       10.5 secs

     End of self-consistent calculation

          k = 0.0000 0.0000 0.0000 (  2287 PWs)   bands (ev):

   -34.2947  -2.9103  -0.6003   1.6874   7.9797  10.5229  19.3347  19.3347
    20.0757  20.0757  21.5453  22.0700

          k = 0.0000 0.0000 0.0866 (  2269 PWs)   bands (ev):

   -34.2938  -2.8497  -0.9118   2.3303   6.5637  12.3349  18.9337  19.4769
    19.4769  20.0950  20.0951  21.3996

          k = 0.0000 0.0000-0.1731 (  2276 PWs)   bands (ev):

   -34.2941  -2.7787  -1.1706   3.1605   5.3441  14.5907  16.4007  19.7821
    19.7822  19.9232  19.9232  21.2217

          k = 0.0000 0.0999 0.0000 (  2275 PWs)   bands (ev):

   -34.2879  -2.6583  -0.3440   1.8939   8.2163  10.6572  16.5710  17.7740
    18.7133  19.4306  20.1005  20.6960

          k = 0.0000 0.0999 0.0866 (  2283 PWs)   bands (ev):

   -34.2881  -2.5948  -0.6698   2.5558   6.7673  12.4903  16.6676  17.9440
    17.9446  19.0412  19.2561  20.7059

          k = 0.0000 0.0999-0.1731 (  2282 PWs)   bands (ev):

   -34.2881  -2.5198  -0.9385   3.4158   5.5188  14.7907  16.1449  17.1024
    17.7663  18.3890  18.4968  20.6851

          k = 0.0000 0.1999 0.0000 (  2297 PWs)   bands (ev):

   -34.2724  -1.9048   0.4223   2.5083   8.9167  10.8869  13.1111  15.1466
    16.1305  16.2113  18.7244  19.1574

          k = 0.0000 0.1999 0.0866 (  2292 PWs)   bands (ev):

   -34.2722  -1.8322   0.0515   3.2285   7.3650  12.3452  13.7013  14.4373
    16.3843  16.9284  17.7379  19.3164

          k = 0.0000 0.1999-0.1731 (  2286 PWs)   bands (ev):

   -34.2720  -1.7455  -0.2452   4.1777   6.0315  13.1209  13.7186  15.4672
    16.8618  16.9287  17.0146  18.6508

          k = 0.0000 0.2998 0.0000 (  2291 PWs)   bands (ev):

   -34.2524  -0.6580   1.6892   3.5067   8.9961  10.0881  11.5642  11.9523
    13.5548  15.0735  17.6388  17.9002

          k = 0.0000 0.2998 0.0866 (  2276 PWs)   bands (ev):

   -34.2518  -0.5695   1.2364   4.3241   8.2235   9.3635  11.1070  13.7930
    14.4001  15.2467  16.6134  17.5892

          k = 0.0000 0.2998-0.1731 (  2264 PWs)   bands (ev):

   -34.2512  -0.4627   0.8969   5.4307   6.7745   9.5928  10.6876  15.0686
    15.5458  15.7432  15.7797  17.0226

          k = 0.0000 0.3998 0.0000 (  2275 PWs)   bands (ev):

   -34.2357   1.0645   3.4244   4.6954   6.2213   8.5020   9.7804  11.8931
    13.8897  14.3870  16.3689  16.9766

          k = 0.0000 0.3998 0.0866 (  2274 PWs)   bands (ev):

   -34.2356   1.1784   2.8254   5.6308   6.2577   8.0225   9.5743  11.5963
    14.5600  14.7614  15.7064  15.9329

          k = 0.0000 0.3998-0.1731 (  2278 PWs)   bands (ev):

   -34.2358   1.3142   2.4466   6.2473   6.7244   7.2589   9.2352  12.1510
    13.2157  15.0676  15.0853  17.2705

          k = 0.0000-0.4997 0.0000 (  2254 PWs)   bands (ev):

   -34.2286   3.0793   3.3472   5.3184   6.0691   6.2053   8.4416  13.4326
    14.1578  14.2883  15.3691  15.7708

          k = 0.0000-0.4997 0.0866 (  2282 PWs)   bands (ev):

   -34.2298   3.2349   3.3851   4.7980   5.2889   7.7782   8.7582  12.1839
    12.5185  14.3304  15.7061  16.6277

          k = 0.0000-0.4997-0.1731 (  2268 PWs)   bands (ev):

   -34.2292   3.3255   3.7659   3.9732   5.2106   9.0225   9.6574  10.1216
    11.7625  14.8420  14.8533  18.5500

          k = 0.0866 0.1499 0.0000 (  2291 PWs)   bands (ev):

   -34.2773  -2.1555   0.1674   2.3047   8.6858  10.8831  14.7483  14.9603
    16.9515  17.4660  17.7222  18.2515

          k = 0.0866 0.1499 0.0866 (  2294 PWs)   bands (ev):

   -34.2773  -2.0864  -0.1869   3.0035   7.1711  12.7113  14.8934  15.0725
    16.3599  16.5059  18.4870  19.1390

          k = 0.0866 0.1499-0.1731 (  2282 PWs)   bands (ev):

   -34.2769  -2.0033  -0.4756   3.9244   5.8646  14.8206  14.9561  15.3583
    15.7035  15.8857  17.4471  20.2184

          k = 0.0866 0.2499 0.0000 (  2282 PWs)   bands (ev):

   -34.2589  -1.1551   1.1844   3.1165   9.5847  10.5690  12.0771  13.3279
    13.6516  14.8682  15.9257  16.8980

          k = 0.0866 0.2499 0.0866 (  2280 PWs)   bands (ev):

   -34.2588  -1.0739   0.7685   3.8911   7.9410  11.1096  12.6650  13.4561
    14.1533  14.8865  15.9183  17.7915

          k = 0.0866 0.2499-0.1731 (  2274 PWs)   bands (ev):

   -34.2585  -0.9745   0.4434   4.9330   6.5255  11.4814  12.2102  13.8459
    14.3766  15.9358  16.8729  17.2830

          k = 0.0866 0.3498 0.0000 (  2279 PWs)   bands (ev):

   -34.2409   0.3314   2.6914   4.2773   7.7126  10.1393  10.6805  11.5301
    12.1598  13.8325  14.9954  16.0466

          k = 0.0866 0.3498 0.0866 (  2276 PWs)   bands (ev):

   -34.2407   0.4320   2.1704   5.1627   7.8179   8.8787   9.9123  12.3355
    12.9352  13.9706  15.4703  16.1526

          k = 0.0866 0.3498-0.1731 (  2276 PWs)   bands (ev):

   -34.2406   0.5564   1.7986   6.4024   7.1542   8.1785   9.6175  12.8467
    13.2894  13.7889  14.9964  17.4255

          k = 0.0866 0.4497 0.0000 (  2276 PWs)   bands (ev):

   -34.2295   2.2745   4.3863   4.8392   5.9926   7.3125   8.9360  11.8438
    12.9625  14.2279  14.5386  15.6242

          k = 0.0866 0.4497 0.0866 (  2271 PWs)   bands (ev):

   -34.2294   2.4096   3.7889   5.1856   5.9776   7.7014   9.2827  11.3270
    12.5702  13.2254  14.1861  16.3876

          k = 0.0866 0.4497-0.1731 (  2266 PWs)   bands (ev):

   -34.2292   2.5624   3.4876   5.1109   5.9860   8.3910   9.6429  11.0070
    11.7243  12.5448  13.8768  17.7974

          k = 0.1731 0.2998 0.0000 (  2280 PWs)   bands (ev):

   -34.2428   0.0861   2.4436   4.1144   9.6494   9.7259  10.7637  12.0251
    12.4743  12.8375  12.9621  15.3237

          k = 0.1731 0.2998 0.0866 (  2275 PWs)   bands (ev):

   -34.2426   0.1798   1.9552   4.9669   8.6992   9.9762  10.2132  11.3897
    12.0038  14.2514  14.4916  15.5854

          k = 0.1731 0.2998-0.1731 (  2262 PWs)   bands (ev):

   -34.2420   0.3027   1.5804   6.1717   7.2821  10.0987  10.3866  10.6920
    11.9139  15.5728  15.8479  16.0510

          k = 0.1731 0.3998 0.0000 (  2267 PWs)   bands (ev):

   -34.2293   1.8027   4.1669   5.3672   6.8638   8.8390   9.3670  10.2405
    11.7637  12.4038  12.9291  15.3003

          k = 0.1731 0.3998 0.0866 (  2269 PWs)   bands (ev):

   -34.2293   1.9184   3.5489   6.3194   6.9438   8.4317   9.2071  10.3805
    10.7914  12.7054  13.6751  15.7980

          k = 0.1731 0.3998-0.1731 (  2270 PWs)   bands (ev):

   -34.2293   2.0718   3.1342   6.9664   7.4383   7.9778   8.9229   9.6630
    11.0033  12.8358  14.1809  15.2774

          k = 0.1731 0.4997 0.0000 (  2260 PWs)   bands (ev):

   -34.2240   3.8340   4.0693   6.0280   6.7997   6.9089   8.2514   9.3458
    11.5051  12.5745  14.1176  15.4112

          k = 0.1731 0.4997 0.0866 (  2262 PWs)   bands (ev):

   -34.2241   3.9922   4.1162   5.5289   5.9364   8.3845   8.7091   9.3567
    10.9143  12.5717  13.3092  14.5063

          k = 0.1731 0.4997-0.1731 (  2252 PWs)   bands (ev):

   -34.2237   4.0844   4.5013   4.7207   5.7987   9.0321   9.4119  10.0644
    10.3979  10.9041  13.1460  15.0374

          k = 0.2597 0.4497 0.0000 (  2258 PWs)   bands (ev):

   -34.2220   3.7328   5.8162   6.0224   6.3597   7.2582   8.4639   9.0479
     9.2488  11.4911  14.3228  15.9128

          k = 0.2597 0.4497 0.0866 (  2258 PWs)   bands (ev):

   -34.2221   3.8579   5.2654   6.2149   6.5351   7.3591   7.8029   9.1731
    10.6630  11.3887  13.4531  15.0090

          k = 0.2597 0.4497-0.1731 (  2260 PWs)   bands (ev):

   -34.2221   4.0530   4.8398   6.3519   6.7903   7.0253   7.5581   9.8893
    11.0975  12.0365  12.8373  13.2016

          k = 0.0000 0.0999-0.0866 (  2283 PWs)   bands (ev):

   -34.2881  -2.5949  -0.6694   2.5551   6.7681  12.4853  16.7246  17.9381
    17.9381  19.0553  19.2552  20.1404

          k = 0.0000 0.1999-0.0866 (  2292 PWs)   bands (ev):

   -34.2722  -1.8335   0.0555   3.2225   7.3671  12.5315  13.2676  14.7010
    16.3802  17.1036  17.7450  18.8395

          k = 0.0000 0.2998-0.0866 (  2276 PWs)   bands (ev):

   -34.2518  -0.5746   1.2528   4.3019   8.0778   9.7790  10.8876  13.5288
    14.4998  15.2444  16.6181  17.2791

          k = 0.0000 0.3998-0.0866 (  2274 PWs)   bands (ev):

   -34.2356   1.1605   2.8946   5.4649   6.2986   7.9652  10.3099  10.9327
    14.1947  14.5590  15.9351  16.0693

          k =-0.0866 0.2499-0.0866 (  2280 PWs)   bands (ev):

   -34.2588  -1.0756   0.7741   3.8832   7.9281  11.3361  12.3852  13.3072
    14.2676  14.9854  16.0005  17.6245

          k =-0.0866 0.3498-0.0866 (  2276 PWs)   bands (ev):

   -34.2407   0.4241   2.1974   5.1272   7.6280   9.2263  10.0052  12.1354
    12.6434  14.2672  14.7615  16.9017

          k =-0.0866 0.4497-0.0866 (  2271 PWs)   bands (ev):

   -34.2294   2.3735   4.0193   4.8170   6.1720   7.5401   9.6900  11.2831
    12.0185  13.4668  14.0507  16.4904

          k =-0.1731 0.3998-0.0866 (  2269 PWs)   bands (ev):

   -34.2293   1.9091   3.5880   6.2007   6.9489   8.5853   9.1814  10.3220
    11.1208  12.0330  14.2454  14.9496

     the Fermi energy is    12.0647 ev

!    total energy              =     -39.49687344 Ry
     estimated scf accuracy    <          1.0E-08 Ry
     smearing contrib. (-TS)   =      -0.00083182 Ry
     internal energy E=F+TS    =     -39.49604162 Ry

     The total energy is F=E-TS. E is the sum of the following terms:
     one-electron contribution =       7.85568805 Ry
     hartree contribution      =       3.86817589 Ry
     xc contribution           =     -13.23782640 Ry
     ewald contribution        =     -37.98207916 Ry

     convergence has been achieved in  14 iterations

     Forces acting on atoms (cartesian axes, Ry/au):

     atom    1 type  1   force =     0.00000000   -0.00000000    0.15346272
     atom    2 type  1   force =     0.00000000   -0.00000000   -0.15346272
     atom    3 type  1   force =     0.00000000    0.00000000    0.00000000
     atom    4 type  2   force =     0.00000000    0.00000000    0.00000000
     The non-local contrib.  to forces
     atom    1 type  1   force =     0.00000000    0.00000000    0.20762354
     atom    2 type  1   force =     0.00000000    0.00000000   -0.20762354
     atom    3 type  1   force =     0.00000000    0.00000000    0.00000000
     atom    4 type  2   force =     0.00000000    0.00000000    0.00000000
     The ionic contribution  to forces
     atom    1 type  1   force =     0.00000001   -0.00000001    1.74345824
     atom    2 type  1   force =    -0.00000001    0.00000001   -1.74345824
     atom    3 type  1   force =    -0.00000000    0.00000000    0.00000000
     atom    4 type  2   force =    -0.00000000   -0.00000000   -0.00000000
     The local contribution  to forces
     atom    1 type  1   force =    -0.00000001    0.00000000   -1.78617837
     atom    2 type  1   force =     0.00000001   -0.00000000    1.78617837
     atom    3 type  1   force =     0.00000000    0.00000000   -0.00000000
     atom    4 type  2   force =    -0.00000000   -0.00000000   -0.00000000
     The core correction contribution to forces
     atom    1 type  1   force =    -0.00000000    0.00000000   -0.01158780
     atom    2 type  1   force =     0.00000000   -0.00000000    0.01158780
     atom    3 type  1   force =     0.00000000    0.00000000   -0.00000000
     atom    4 type  2   force =     0.00000000    0.00000000    0.00000000
     The Hubbard contrib.    to forces
     atom    1 type  1   force =     0.00000000    0.00000000    0.00000000
     atom    2 type  1   force =     0.00000000    0.00000000    0.00000000
     atom    3 type  1   force =     0.00000000    0.00000000    0.00000000
     atom    4 type  2   force =     0.00000000    0.00000000    0.00000000
     The SCF correction term to forces
     atom    1 type  1   force =    -0.00000000    0.00000000    0.00014712
     atom    2 type  1   force =     0.00000000   -0.00000000   -0.00014712
     atom    3 type  1   force =     0.00000000    0.00000000   -0.00000000
     atom    4 type  2   force =    -0.00000000   -0.00000000    0.00000000

     Total force =     0.217029     Total SCF correction =     0.000208


     Computing stress (Cartesian axis) and pressure

          total   stress  (Ry/bohr**3)                   (kbar)     P=      364.60
   0.00216988   0.00000000  -0.00000000          319.20        0.00       -0.00
   0.00000000   0.00216988  -0.00000000            0.00      319.20       -0.00
   0.00000000   0.00000000   0.00309569            0.00        0.00      455.39

     Energy error            =      5.2E-01 Ry
     Gradient error          =      1.5E-01 Ry/Bohr
     Cell gradient error     =      1.8E+02 kbar

     number of scf cycles    =   2
     number of bfgs steps    =   1

     enthalpy           old  =     -37.9683561758 Ry
     enthalpy           new  =     -38.4872037010 Ry

     CASE: enthalpy          _new < enthalpy          _old

     new trust radius        =       0.2298626152 bohr
ibrav =      4
 celldm(1) =      5.04014368
 celldm(3) =      2.57325645
Input lattice vectors:
     1.12901132     0.00000000    -0.00000000
    -0.56450566     0.97775248     0.00000000
    -0.00000000    -0.00000000     2.90523564
New lattice vectors in INITIAL alat:
     1.12901132     0.00000000     0.00000000
    -0.56450566     0.97775248     0.00000000
     0.00000000     0.00000000     2.90523564
New lattice vectors in NEW alat (for information only):
     1.00000000     0.00000000     0.00000000
    -0.50000000     0.86602540     0.00000000
     0.00000000     0.00000000     2.57325645
Discrepancy in bohr =     0.000000    0.000000    0.000000
     new conv_thr            =       0.0000000100 Ry

     new unit-cell volume =    285.32673 a.u.^3 (    42.28106 Ang^3 )
     density =      3.58168 g/cm^3

CELL_PARAMETERS (alat=  4.46421007)
   1.129011315   0.000000000   0.000000000
  -0.564505658   0.977752480   0.000000000
   0.000000000   0.000000000   2.905235645

ATOMIC_POSITIONS (crystal)
Si            0.3333333300        0.6666666700        0.2190185373
Si            0.6666666700        0.3333333300        0.7809814627
Si            0.0000000000        0.0000000000        0.5000000000
Li            0.0000000000        0.0000000000        0.0000000000



     Writing config-only to output data dir ./output/SiLi.save/
     NEW-OLD atomic charge density approx. for the potential
     extrapolated charge   14.38369, renormalised to   15.00000

     total cpu time spent up to now is       11.5 secs

     Self-consistent Calculation

     iteration #  1     ecut=    80.00 Ry     beta= 0.70
     Davidson diagonalization with overlap
     c_bands:  1 eigenvalues not converged
     c_bands:  1 eigenvalues not converged
     ethr =  1.00E-06,  avg # of iterations = 12.0

     total cpu time spent up to now is       12.4 secs

     total energy              =     -39.52527619 Ry
     estimated scf accuracy    <       0.00255594 Ry

     iteration #  2     ecut=    80.00 Ry     beta= 0.70
     Davidson diagonalization with overlap
     ethr =  1.70E-05,  avg # of iterations =  4.5

     total cpu time spent up to now is       12.9 secs

     total energy              =     -39.52672998 Ry
     estimated scf accuracy    <       0.07051404 Ry

     iteration #  3     ecut=    80.00 Ry     beta= 0.70
     Davidson diagonalization with overlap
     ethr =  1.70E-05,  avg # of iterations =  3.1

     total cpu time spent up to now is       13.3 secs

     total energy              =     -39.52832043 Ry
     estimated scf accuracy    <       0.00889361 Ry

     iteration #  4     ecut=    80.00 Ry     beta= 0.70
     Davidson diagonalization with overlap
     ethr =  1.70E-05,  avg # of iterations =  2.2

     total cpu time spent up to now is       13.6 secs

     total energy              =     -39.52901544 Ry
     estimated scf accuracy    <       0.00032343 Ry

     iteration #  5     ecut=    80.00 Ry     beta= 0.70
     Davidson diagonalization with overlap
     ethr =  2.16E-06,  avg # of iterations =  3.7

     total cpu time spent up to now is       14.0 secs

     total energy              =     -39.52905002 Ry
     estimated scf accuracy    <       0.00001804 Ry

     iteration #  6     ecut=    80.00 Ry     beta= 0.70
     Davidson diagonalization with overlap
     ethr =  1.20E-07,  avg # of iterations =  3.4

     total cpu time spent up to now is       14.4 secs

     total energy              =     -39.52905693 Ry
     estimated scf accuracy    <       0.00000394 Ry

     iteration #  7     ecut=    80.00 Ry     beta= 0.70
     Davidson diagonalization with overlap
     ethr =  2.62E-08,  avg # of iterations =  1.5

     total cpu time spent up to now is       14.7 secs

     total energy              =     -39.52905739 Ry
     estimated scf accuracy    <       0.00000002 Ry

     iteration #  8     ecut=    80.00 Ry     beta= 0.70
     Davidson diagonalization with overlap
     ethr =  1.30E-10,  avg # of iterations =  3.9

     total cpu time spent up to now is       15.0 secs

     End of self-consistent calculation

          k = 0.0000 0.0000 0.0000 (  2287 PWs)   bands (ev):

   -33.4507  -3.1870  -0.7078   2.3022   7.8657  11.2168  20.4592  20.4592
    21.1583  21.1583  21.8547  23.6148

          k = 0.0000 0.0000 0.0861 (  2269 PWs)   bands (ev):

   -33.4500  -3.1613  -0.8631   2.7549   6.7817  12.7248  19.2297  20.5605
    20.5606  21.1880  21.1881  22.7421

          k = 0.0000 0.0000-0.1721 (  2276 PWs)   bands (ev):

   -33.4504  -3.1340  -1.0017   3.3445   5.8130  14.7058  16.8706  20.7036
    20.7036  21.1783  21.1784  22.4436

          k = 0.0000 0.1023 0.0000 (  2275 PWs)   bands (ev):

   -33.4430  -2.9197  -0.4397   2.5265   8.1137  11.3515  17.4178  18.7733
    19.6038  20.7626  21.0601  21.5003

          k = 0.0000 0.1023 0.0861 (  2283 PWs)   bands (ev):

   -33.4433  -2.8922  -0.6038   2.9951   6.9976  12.8805  17.4596  18.8846
    18.8900  19.6649  20.4869  21.5076

          k = 0.0000 0.1023-0.1721 (  2282 PWs)   bands (ev):

   -33.4433  -2.8630  -0.7493   3.6110   6.0001  14.9062  16.6598  17.8099
    19.0449  19.0695  20.0772  21.5145

          k = 0.0000 0.2046 0.0000 (  2297 PWs)   bands (ev):

   -33.4249  -2.1203   0.3618   3.1940   8.8492  11.5517  13.7332  15.8057
    17.1444  17.5242  19.5538  19.8168

          k = 0.0000 0.2046 0.0861 (  2292 PWs)   bands (ev):

   -33.4247  -2.0874   0.1704   3.7103   7.6348  12.7275  14.2898  15.3442
    17.2628  17.9075  18.9059  19.6524

          k = 0.0000 0.2046-0.1721 (  2286 PWs)   bands (ev):

   -33.4246  -2.0526   0.0051   4.4057   6.5514  13.4469  14.7061  15.8274
    17.4281  17.6027  18.4588  19.4387

          k = 0.0000 0.3068 0.0000 (  2291 PWs)   bands (ev):

   -33.4018  -0.7957   1.6868   4.2846   9.3102  10.1652  11.9608  12.8014
    14.7087  15.9658  18.3981  18.4075

          k = 0.0000 0.3068 0.0861 (  2276 PWs)   bands (ev):

   -33.4013  -0.7538   1.4479   4.8738   8.6059   9.6034  11.8022  14.4531
    15.1893  16.0855  17.7343  18.4049

          k = 0.0000 0.3068-0.1721 (  2264 PWs)   bands (ev):

   -33.4008  -0.7100   1.2524   5.7067   7.3761   9.7968  11.5098  15.8124
    16.2576  16.2991  17.2706  17.3867

          k = 0.0000 0.4091 0.0000 (  2275 PWs)   bands (ev):

   -33.3828   1.0409   3.5064   5.6440   6.3049   8.8004  10.6942  12.0803
    14.7206  15.2565  16.7031  17.7123

          k = 0.0000 0.4091 0.0861 (  2274 PWs)   bands (ev):

   -33.3825   1.0960   3.1934   6.2737   6.3426   8.6200   9.9197  12.3520
    15.3768  15.4070  16.2659  17.0262

          k = 0.0000 0.4091-0.1721 (  2278 PWs)   bands (ev):

   -33.3826   1.1507   2.9679   6.2995   7.4212   7.6512   9.7290  12.7748
    14.0498  15.5531  16.5530  17.5226

          k = 0.0000-0.5114 0.0000 (  2254 PWs)   bands (ev):

   -33.3748   3.3378   3.3837   5.4502   6.4110   6.8816   9.3418  13.7673
    14.4339  15.0199  16.0840  16.4427

          k = 0.0000-0.5114 0.0861 (  2282 PWs)   bands (ev):

   -33.3757   3.3710   3.4687   5.3876   5.4916   8.2437   9.5197  12.5822
    13.1377  15.1399  16.7911  16.9966

          k = 0.0000-0.5114-0.1721 (  2268 PWs)   bands (ev):

   -33.3751   3.3664   3.6432   4.8974   5.4469   9.4894  10.0685  10.6926
    12.6118  15.3181  16.3132  17.4135

          k = 0.0886 0.1534 0.0000 (  2291 PWs)   bands (ev):

   -33.4307  -2.3864   0.0951   2.9725   8.6063  11.5692  15.5199  15.7079
    17.6381  18.2598  19.0671  19.7594

          k = 0.0886 0.1534 0.0861 (  2294 PWs)   bands (ev):

   -33.4306  -2.3555  -0.0864   3.4718   7.4263  13.0979  15.5887  15.7783
    17.3432  17.5442  19.2829  20.3499

          k = 0.0886 0.1534-0.1721 (  2282 PWs)   bands (ev):

   -33.4303  -2.3223  -0.2459   4.1417   6.3709  15.0103  15.4417  15.9922
    16.6895  17.1156  18.1855  21.3855

          k = 0.0886 0.2557 0.0000 (  2282 PWs)   bands (ev):

   -33.4095  -1.3242   1.1587   3.8552   9.5565  11.0919  12.7075  14.1025
    14.2863  15.9652  16.6357  18.3149

          k = 0.0886 0.2557 0.0861 (  2280 PWs)   bands (ev):

   -33.4094  -1.2863   0.9406   4.4146   8.2537  11.4685  13.5508  14.0019
    14.6442  15.8189  16.9446  18.8744

          k = 0.0886 0.2557-0.1721 (  2274 PWs)   bands (ev):

   -33.4090  -1.2457   0.7556   5.1919   7.0855  11.7616  13.1916  14.2743
    15.4195  16.4846  17.4981  18.1370

          k = 0.0886 0.3580 0.0000 (  2279 PWs)   bands (ev):

   -33.3887   0.2569   2.7354   5.1351   7.9561  10.5070  10.9699  12.3443
    12.8520  14.5564  15.6892  17.3868

          k = 0.0886 0.3580 0.0861 (  2276 PWs)   bands (ev):

   -33.3884   0.3056   2.4592   5.7643   8.0601   9.3264  10.4410  13.1926
    13.4080  14.7375  16.2671  16.8411

          k = 0.0886 0.3580-0.1721 (  2276 PWs)   bands (ev):

   -33.3883   0.3565   2.2413   6.6884   7.8140   8.3827  10.3232  13.2257
    14.2552  14.5560  15.8176  17.9842

          k = 0.0886 0.4602 0.0000 (  2276 PWs)   bands (ev):

   -33.3755   2.3397   4.6419   5.0439   6.6807   7.5672   9.9119  12.3454
    13.2124  14.7872  15.2652  16.4728

          k = 0.0886 0.4602 0.0861 (  2271 PWs)   bands (ev):

   -33.3754   2.4040   4.3061   5.1823   6.5439   8.2704   9.8620  12.0141
    12.9194  13.9852  14.8298  17.3138

          k = 0.0886 0.4602-0.1721 (  2266 PWs)   bands (ev):

   -33.3753   2.4633   4.1496   5.1107   6.5603   8.8225  10.1580  11.5722
    12.6742  12.8956  14.7879  18.7421

          k = 0.1771 0.3068 0.0000 (  2280 PWs)   bands (ev):

   -33.3908  -0.0051   2.4755   4.9421   9.9929  10.0994  11.0343  12.4516
    13.0608  13.6954  14.0300  16.4757

          k = 0.1771 0.3068 0.0861 (  2275 PWs)   bands (ev):

   -33.3907   0.0402   2.2155   5.5609   9.0611  10.3398  10.6560  12.2104
    12.5544  15.0601  15.2158  16.5526

          k = 0.1771 0.3068-0.1721 (  2262 PWs)   bands (ev):

   -33.3901   0.0908   1.9978   6.4723   7.9074  10.4587  10.5692  11.9034
    12.4252  16.4244  16.5272  16.8469

          k = 0.1771 0.4091 0.0000 (  2267 PWs)   bands (ev):

   -33.3754   1.8247   4.2816   6.3530   7.0269   9.2648   9.7370  11.1151
    12.1841  12.8326  13.8118  16.2607

          k = 0.1771 0.4091 0.0861 (  2269 PWs)   bands (ev):

   -33.3754   1.8817   3.9569   6.9702   7.1087   9.2052   9.4506  11.0209
    11.2596  13.3831  14.5043  16.5028

          k = 0.1771 0.4091-0.1721 (  2270 PWs)   bands (ev):

   -33.3753   1.9431   3.7114   7.0500   8.1649   8.3527   9.6211  10.1523
    11.5041  13.5293  14.8843  16.1159

          k = 0.1771 0.5114 0.0000 (  2260 PWs)   bands (ev):

   -33.3693   4.1212   4.1564   6.1871   7.1663   7.6522   9.2235   9.6824
    11.9208  13.6340  14.5084  15.6610

          k = 0.1771 0.5114 0.0861 (  2262 PWs)   bands (ev):

   -33.3695   4.1527   4.2473   6.1269   6.2429   8.8768   9.4475   9.8280
    11.5382  13.0436  13.9419  15.3251

          k = 0.1771 0.5114-0.1721 (  2252 PWs)   bands (ev):

   -33.3691   4.1538   4.4176   5.6865   6.1327   9.2093  10.4353  10.6435
    10.7822  11.4284  13.8011  15.8542

          k = 0.2657 0.4602 0.0000 (  2258 PWs)   bands (ev):

   -33.3670   3.8919   6.1260   6.4165   6.5955   8.0032   8.7797   9.5831
     9.9712  12.4688  14.6550  16.6849

          k = 0.2657 0.4602 0.0861 (  2258 PWs)   bands (ev):

   -33.3673   3.9543   5.8404   6.4776   6.6801   7.9252   8.5587   9.5956
    11.1957  12.2328  14.0350  15.6219

          k = 0.2657 0.4602-0.1721 (  2260 PWs)   bands (ev):

   -33.3671   4.0268   5.6150   6.4818   6.7855   8.0021   8.0743  10.4290
    11.4692  12.6904  13.5210  13.9443

          k = 0.0000 0.1023-0.0861 (  2283 PWs)   bands (ev):

   -33.4433  -2.8923  -0.6036   2.9946   6.9983  12.8783  17.4617  18.8800
    18.8882  19.7280  20.5183  21.3340

          k = 0.0000 0.2046-0.0861 (  2292 PWs)   bands (ev):

   -33.4247  -2.0880   0.1726   3.7065   7.6353  12.9733  13.7490  15.6168
    17.2573  18.3362  18.9243  19.3962

          k = 0.0000 0.3068-0.0861 (  2276 PWs)   bands (ev):

   -33.4013  -0.7561   1.4562   4.8645   8.4188  10.0397  11.5353  14.2408
    15.3352  16.0824  17.7447  17.8545

          k = 0.0000 0.4091-0.0861 (  2274 PWs)   bands (ev):

   -33.3825   1.0888   3.2253   6.1647   6.4083   8.3759  10.7439  11.7297
    14.7793  15.3754  16.5068  17.0309

          k =-0.0886 0.2557-0.0861 (  2280 PWs)   bands (ev):

   -33.4093  -1.2871   0.9435   4.4104   8.2360  11.7454  12.9288  14.0332
    14.9736  15.9370  16.9136  18.6945

          k =-0.0886 0.3580-0.0861 (  2276 PWs)   bands (ev):

   -33.3884   0.3022   2.4720   5.7621   7.8727   9.6137  10.5307  12.9755
    13.2022  15.1111  15.3748  18.0107

          k =-0.0886 0.4602-0.0861 (  2271 PWs)   bands (ev):

   -33.3754   2.3907   4.4602   4.9798   6.7029   7.9239  10.5329  11.8003
    12.4707  13.9605  14.9016  17.5356

          k =-0.1771 0.4091-0.0861 (  2269 PWs)   bands (ev):

   -33.3754   1.8781   3.9743   6.9383   7.0945   9.0478   9.6428  10.9867
    11.7094  12.5810  15.1202  15.6799

     the Fermi energy is    12.6617 ev

!    total energy              =     -39.52905741 Ry
     estimated scf accuracy    <          5.6E-10 Ry
     smearing contrib. (-TS)   =      -0.00053700 Ry
     internal energy E=F+TS    =     -39.52852041 Ry

     The total energy is F=E-TS. E is the sum of the following terms:
     one-electron contribution =       9.66622948 Ry
     hartree contribution      =       3.27248119 Ry
     xc contribution           =     -13.35981581 Ry
     ewald contribution        =     -39.10741527 Ry

     convergence has been achieved in   8 iterations

     Forces acting on atoms (cartesian axes, Ry/au):

     atom    1 type  1   force =    -0.00000000   -0.00000000    0.09384344
     atom    2 type  1   force =     0.00000000    0.00000000   -0.09384344
     atom    3 type  1   force =     0.00000000    0.00000000    0.00000000
     atom    4 type  2   force =     0.00000000   -0.00000000    0.00000000
     The non-local contrib.  to forces
     atom    1 type  1   force =     0.00000000   -0.00000000    0.16658867
     atom    2 type  1   force =     0.00000000    0.00000000   -0.16658867
     atom    3 type  1   force =     0.00000000    0.00000000    0.00000000
     atom    4 type  2   force =     0.00000000    0.00000000    0.00000000
     The ionic contribution  to forces
     atom    1 type  1   force =     0.00000001   -0.00000000    0.79692579
     atom    2 type  1   force =    -0.00000001    0.00000000   -0.79692579
     atom    3 type  1   force =     0.00000000    0.00000000    0.00000000
     atom    4 type  2   force =    -0.00000000    0.00000000    0.00000000
     The local contribution  to forces
     atom    1 type  1   force =    -0.00000001    0.00000000   -0.86189716
     atom    2 type  1   force =     0.00000001   -0.00000000    0.86189716
     atom    3 type  1   force =     0.00000000    0.00000000   -0.00000000
     atom    4 type  2   force =    -0.00000000   -0.00000000   -0.00000000
     The core correction contribution to forces
     atom    1 type  1   force =    -0.00000000    0.00000000   -0.00773890
     atom    2 type  1   force =     0.00000000   -0.00000000    0.00773890
     atom    3 type  1   force =     0.00000000    0.00000000   -0.00000000
     atom    4 type  2   force =     0.00000000    0.00000000    0.00000000
     The Hubbard contrib.    to forces
     atom    1 type  1   force =     0.00000000    0.00000000    0.00000000
     atom    2 type  1   force =     0.00000000    0.00000000    0.00000000
     atom    3 type  1   force =     0.00000000    0.00000000    0.00000000
     atom    4 type  2   force =     0.00000000    0.00000000    0.00000000
     The SCF correction term to forces
     atom    1 type  1   force =     0.00000000   -0.00000000   -0.00003497
     atom    2 type  1   force =    -0.00000000    0.00000000    0.00003497
     atom    3 type  1   force =     0.00000000   -0.00000000    0.00000000
     atom    4 type  2   force =    -0.00000000    0.00000000    0.00000000

     Total force =     0.132715     Total SCF correction =     0.000049


     Computing stress (Cartesian axis) and pressure

          total   stress  (Ry/bohr**3)                   (kbar)     P=      429.10
   0.00253066   0.00000000  -0.00000000          372.27        0.00       -0.00
   0.00000000   0.00253066  -0.00000000            0.00      372.27       -0.00
   0.00000000   0.00000000   0.00368963            0.00        0.00      542.76

     Energy error            =      7.2E-02 Ry
     Gradient error          =      9.4E-02 Ry/Bohr
     Cell gradient error     =      1.3E+02 kbar

     number of scf cycles    =   3
     number of bfgs steps    =   2

     enthalpy           old  =     -38.4872037010 Ry
     enthalpy           new  =     -38.5592515797 Ry

     CASE: enthalpy          _new < enthalpy          _old

     new trust radius        =       0.2543449033 bohr
ibrav =      4
 celldm(1) =      4.87648401
 celldm(3) =      2.72831125
Input lattice vectors:
     1.09235093     0.00000000     0.00000000
    -0.54617546     0.94600365     0.00000000
     0.00000000     0.00000000     2.98027333
New lattice vectors in INITIAL alat:
     1.09235093     0.00000000     0.00000000
    -0.54617546     0.94600365     0.00000000
     0.00000000     0.00000000     2.98027333
New lattice vectors in NEW alat (for information only):
     1.00000000     0.00000000     0.00000000
    -0.50000000     0.86602540     0.00000000
     0.00000000     0.00000000     2.72831125
Discrepancy in bohr =     0.000000    0.000000    0.000000
     new conv_thr            =       0.0000000094 Ry

     new unit-cell volume =    273.99646 a.u.^3 (    40.60209 Ang^3 )
     density =      3.72978 g/cm^3

CELL_PARAMETERS (alat=  4.46421007)
   1.092350927   0.000000000   0.000000000
  -0.546175464   0.946003653   0.000000000
   0.000000000   0.000000000   2.980273328

ATOMIC_POSITIONS (crystal)
Si            0.3333333300        0.6666666700        0.2386294160
Si            0.6666666700        0.3333333300        0.7613705840
Si            0.0000000000        0.0000000000        0.5000000000
Li            0.0000000000       -0.0000000000        0.0000000000



     Writing config-only to output data dir ./output/SiLi.save/
     NEW-OLD atomic charge density approx. for the potential
     extrapolated charge   14.37999, renormalised to   15.00000

     total cpu time spent up to now is       15.9 secs

     Self-consistent Calculation

     iteration #  1     ecut=    80.00 Ry     beta= 0.70
     Davidson diagonalization with overlap
     c_bands:  1 eigenvalues not converged
     c_bands:  1 eigenvalues not converged
     c_bands:  1 eigenvalues not converged
     ethr =  1.00E-06,  avg # of iterations = 13.0

     total cpu time spent up to now is       16.9 secs

     total energy              =     -39.51984885 Ry
     estimated scf accuracy    <       0.01937251 Ry

     iteration #  2     ecut=    80.00 Ry     beta= 0.70
     Davidson diagonalization with overlap
     ethr =  1.29E-04,  avg # of iterations =  3.5

     total cpu time spent up to now is       17.3 secs

     total energy              =     -39.50323862 Ry
     estimated scf accuracy    <       0.28955371 Ry

     iteration #  3     ecut=    80.00 Ry     beta= 0.70
     Davidson diagonalization with overlap
     ethr =  1.29E-04,  avg # of iterations =  3.3

     total cpu time spent up to now is       17.6 secs

     total energy              =     -39.53452899 Ry
     estimated scf accuracy    <       0.00047819 Ry

     iteration #  4     ecut=    80.00 Ry     beta= 0.70
     Davidson diagonalization with overlap
     ethr =  3.19E-06,  avg # of iterations =  4.8

     total cpu time spent up to now is       18.0 secs

     total energy              =     -39.53467371 Ry
     estimated scf accuracy    <       0.00003382 Ry

     iteration #  5     ecut=    80.00 Ry     beta= 0.70
     Davidson diagonalization with overlap
     ethr =  2.25E-07,  avg # of iterations =  2.0

     total cpu time spent up to now is       18.3 secs

     total energy              =     -39.53468058 Ry
     estimated scf accuracy    <       0.00001158 Ry

     iteration #  6     ecut=    80.00 Ry     beta= 0.70
     Davidson diagonalization with overlap
     ethr =  7.72E-08,  avg # of iterations =  1.2

     total cpu time spent up to now is       18.6 secs

     total energy              =     -39.53468112 Ry
     estimated scf accuracy    <       0.00000112 Ry

     iteration #  7     ecut=    80.00 Ry     beta= 0.70
     Davidson diagonalization with overlap
     ethr =  7.49E-09,  avg # of iterations =  2.7

     total cpu time spent up to now is       18.9 secs

     total energy              =     -39.53468140 Ry
     estimated scf accuracy    <       0.00000025 Ry

     iteration #  8     ecut=    80.00 Ry     beta= 0.70
     Davidson diagonalization with overlap
     ethr =  1.66E-09,  avg # of iterations =  1.3

     total cpu time spent up to now is       19.1 secs

     End of self-consistent calculation

          k = 0.0000 0.0000 0.0000 (  2287 PWs)   bands (ev):

   -32.6375  -3.6542  -0.9694   2.7073   7.5015  11.5980  21.2991  21.8898
    21.8898  22.3625  22.3625  23.1252

          k = 0.0000 0.0000 0.0839 (  2269 PWs)   bands (ev):

   -32.6366  -3.6480  -1.0235   2.9648   6.8024  12.7463  18.8744  21.9408
    21.9409  22.3804  22.3804  24.1583

          k = 0.0000 0.0000-0.1678 (  2276 PWs)   bands (ev):

   -32.6372  -3.6417  -1.0749   3.2776   6.1736  14.3135  16.8308  21.9997
    21.9997  22.3955  22.3959  23.9356

          k = 0.0000 0.1057 0.0000 (  2275 PWs)   bands (ev):

   -32.6280  -3.3669  -0.6836   2.9590   7.7681  11.7452  18.3783  19.9423
    20.7171  21.3251  22.3287  22.7194

          k = 0.0000 0.1057 0.0839 (  2283 PWs)   bands (ev):

   -32.6282  -3.3599  -0.7425   3.2295   7.0395  12.9162  18.2760  19.1033
    19.9911  20.7177  22.0558  22.5449

          k = 0.0000 0.1057-0.1678 (  2282 PWs)   bands (ev):

   -32.6284  -3.3527  -0.7981   3.5612   6.3856  14.5289  16.7614  18.6801
    20.0394  20.5445  21.8611  22.5119

          k = 0.0000 0.2114 0.0000 (  2297 PWs)   bands (ev):

   -32.6052  -2.5080   0.1704   3.7090   8.5613  11.9961  14.3895  16.6537
    18.2112  19.1227  20.4583  20.6820

          k = 0.0000 0.2114 0.0839 (  2292 PWs)   bands (ev):

   -32.6049  -2.4983   0.0973   4.0176   7.7433  12.9719  14.7788  16.3633
    18.2603  18.7325  20.0819  20.3857

          k = 0.0000 0.2114-0.1678 (  2286 PWs)   bands (ev):

   -32.6050  -2.4886   0.0295   4.4059   7.0141  13.8586  15.2392  16.2536
    17.8175  18.3121  20.1621  20.2110

          k = 0.0000 0.3171 0.0000 (  2291 PWs)   bands (ev):

   -32.5765  -1.0856   1.5819   4.9379   9.5464  10.1625  12.4355  13.5390
    15.9079  16.9693  19.0334  19.4594

          k = 0.0000 0.3171 0.0839 (  2276 PWs)   bands (ev):

   -32.5759  -1.0716   1.4856   5.2995   8.8674   9.9228  12.5391  14.7928
    16.1007  17.0191  18.8504  19.1529

          k = 0.0000 0.3171-0.1678 (  2264 PWs)   bands (ev):

   -32.5754  -1.0579   1.3992   5.7806   7.9907  10.1118  12.3214  16.3895
    16.7484  17.0733  17.6672  18.6965

          k = 0.0000 0.4228 0.0000 (  2275 PWs)   bands (ev):

   -32.5531   0.8865   3.5229   6.3574   6.6115   9.1530  11.4043  12.3348
    15.3132  16.2241  17.0758  18.3690

          k = 0.0000 0.4228 0.0839 (  2274 PWs)   bands (ev):

   -32.5524   0.9060   3.3988   6.3460   7.0339   9.1726  10.2817  13.0319
    16.0102  16.2743  16.6123  18.4091

          k = 0.0000 0.4228-0.1678 (  2278 PWs)   bands (ev):

   -32.5523   0.9243   3.2924   6.3400   7.8684   8.3105  10.1820  13.3416
    14.9554  16.3300  17.7349  18.1653

          k = 0.0000-0.5285 0.0000 (  2254 PWs)   bands (ev):

   -32.5433   3.3633   3.4084   5.5457   6.6004   7.9745  10.1271  13.9783
    14.4852  15.9759  16.4631  17.1409

          k = 0.0000-0.5285 0.0839 (  2282 PWs)   bands (ev):

   -32.5439   3.3973   3.4166   5.5681   6.0996   8.8824  10.1744  12.8919
    13.6785  16.0259  17.3950  18.1621

          k = 0.0000-0.5285-0.1678 (  2268 PWs)   bands (ev):

   -32.5431   3.3880   3.4742   5.5921   5.7712   9.9616  10.3963  11.3115
    13.4165  16.0824  17.7576  17.9145

          k = 0.0915 0.1586 0.0000 (  2291 PWs)   bands (ev):

   -32.6124  -2.7939  -0.1137   3.4600   8.2986  11.9886  16.2907  16.6358
    18.5179  19.3332  20.7447  21.3475

          k = 0.0915 0.1586 0.0839 (  2294 PWs)   bands (ev):

   -32.6124  -2.7851  -0.1818   3.7555   7.5114  13.1795  16.2648  16.6665
    18.2932  18.9831  19.6048  21.8733

          k = 0.0915 0.1586-0.1678 (  2282 PWs)   bands (ev):

   -32.6120  -2.7761  -0.2459   4.1255   6.8069  14.7972  15.9196  16.7764
    17.3923  18.7536  18.8354  22.7584

          k = 0.0915 0.2643 0.0000 (  2282 PWs)   bands (ev):

   -32.5861  -1.6532   1.0193   4.4517   9.3347  11.5856  13.2126  14.8177
    15.1077  17.2715  17.7348  19.9358

          k = 0.0915 0.2643 0.0839 (  2280 PWs)   bands (ev):

   -32.5859  -1.6410   0.9327   4.7941   8.4334  11.8828  14.2545  14.5826
    15.1743  17.0253  18.0188  20.2678

          k = 0.0915 0.2643-0.1678 (  2274 PWs)   bands (ev):

   -32.5855  -1.6287   0.8531   5.2392   7.6287  12.1716  14.1015  14.8259
    16.2024  17.1432  17.8869  19.1056

          k = 0.0915 0.3700 0.0000 (  2279 PWs)   bands (ev):

   -32.5604   0.0443   2.6988   5.8998   8.2457  10.8984  11.0136  13.0132
    13.9256  15.1651  16.6569  18.8422

          k = 0.0915 0.3700 0.0839 (  2276 PWs)   bands (ev):

   -32.5599   0.0613   2.5861   6.2745   8.3620   9.6883  11.0130  13.7126
    14.3796  15.3942  17.0542  17.6738

          k = 0.0915 0.3700-0.1678 (  2276 PWs)   bands (ev):

   -32.5595   0.0780   2.4862   6.7903   8.4098   8.8254  10.9673  13.6868
    15.1107  15.6857  16.6453  18.1604

          k = 0.0915 0.4757 0.0000 (  2276 PWs)   bands (ev):

   -32.5438   2.2813   4.8160   5.0851   7.5419   7.9457  10.8041  12.9568
    13.3698  15.2519  15.9192  17.0449

          k = 0.0915 0.4757 0.0839 (  2271 PWs)   bands (ev):

   -32.5437   2.3038   4.6786   5.1328   7.1952   8.8327  10.4545  12.6670
    13.3341  14.7167  15.5873  18.0221

          k = 0.0915 0.4757-0.1678 (  2266 PWs)   bands (ev):

   -32.5434   2.3244   4.6093   5.0952   7.2016   9.1726  10.7224  12.0424
    13.3907  13.7865  15.7347  19.6644

          k = 0.1831 0.3171 0.0000 (  2280 PWs)   bands (ev):

   -32.5629  -0.2373   2.4216   5.6718  10.2585  10.4671  11.2234  12.9792
    13.5424  14.7105  15.5306  17.6008

          k = 0.1831 0.3171 0.0839 (  2275 PWs)   bands (ev):

   -32.5628  -0.2215   2.3145   6.0588   9.3926  10.7078  11.0745  12.8850
    13.4663  15.6540  16.3445  17.5336

          k = 0.1831 0.3171-0.1678 (  2262 PWs)   bands (ev):

   -32.5619  -0.2051   2.2164   6.5857   8.5891  10.8517  10.9322  12.9562
    13.1959  17.1674  17.4220  17.5029

          k = 0.1831 0.4228 0.0000 (  2267 PWs)   bands (ev):

   -32.5438   1.7259   4.3467   7.1381   7.3817   9.7355  10.0198  12.1780
    12.6924  13.1238  14.9663  17.0759

          k = 0.1831 0.4228 0.0839 (  2269 PWs)   bands (ev):

   -32.5437   1.7465   4.2165   7.1368   7.8106   9.7090   9.9434  11.4570
    12.1336  14.0564  15.5335  17.0859

          k = 0.1831 0.4228-0.1678 (  2270 PWs)   bands (ev):

   -32.5433   1.7671   4.1016   7.1412   8.5768   9.0465  10.1263  10.8205
    12.2381  14.2731  15.6781  17.0053

          k = 0.1831 0.5285 0.0000 (  2260 PWs)   bands (ev):

   -32.5360   4.1915   4.2365   6.3270   7.4212   8.7912   9.5590  10.7387
    12.4392  14.6871  14.8010  15.9504

          k = 0.1831 0.5285 0.0839 (  2262 PWs)   bands (ev):

   -32.5364   4.2288   4.2428   6.3401   6.9347   9.4071   9.8117  10.9383
    12.1640  13.5709  14.5050  16.2085

          k = 0.1831 0.5285-0.1678 (  2252 PWs)   bands (ev):

   -32.5358   4.2222   4.2986   6.3547   6.6134   9.4386  11.0571  11.2456
    11.6691  12.1082  14.4270  16.7110

          k = 0.2746 0.4757 0.0000 (  2258 PWs)   bands (ev):

   -32.5333   3.9418   6.3837   6.6695   6.7061   9.0281   9.0815  10.0590
    11.2898  13.4248  14.8709  17.2538

          k = 0.2746 0.4757 0.0839 (  2258 PWs)   bands (ev):

   -32.5338   3.9647   6.2809   6.6648   6.7465   8.6449   9.3299  10.2384
    11.9815  13.0967  14.5377  16.1964

          k = 0.2746 0.4757-0.1678 (  2260 PWs)   bands (ev):

   -32.5332   3.9886   6.1948   6.6468   6.7794   8.5940   9.0896  10.9725
    12.0100  13.4642  14.1498  14.7858

          k = 0.0000 0.1057-0.0839 (  2283 PWs)   bands (ev):

   -32.6282  -3.3599  -0.7424   3.2293   7.0401  12.9161  18.1450  19.3259
    19.9853  20.7092  22.0936  22.4555

          k = 0.0000 0.2114-0.0839 (  2292 PWs)   bands (ev):

   -32.6049  -2.4985   0.0982   4.0158   7.7435  13.1669  14.2978  16.5948
    18.2572  19.6085  19.8620  20.4040

          k = 0.0000 0.3171-0.0839 (  2276 PWs)   bands (ev):

   -32.5759  -1.0723   1.4883   5.3002   8.6992  10.3135  12.1928  14.7142
    16.2737  17.0173  18.6416  19.1628

          k = 0.0000 0.4228-0.0839 (  2274 PWs)   bands (ev):

   -32.5524   0.9041   3.4053   6.3490   7.0787   8.7804  11.0295  12.5928
    15.2293  16.2734  16.9600  18.4136

          k =-0.0915 0.2643-0.0839 (  2280 PWs)   bands (ev):

   -32.5859  -1.6412   0.9337   4.7930   8.4181  12.1753  13.3910  14.7586
    15.6333  17.1936  18.0544  19.6131

          k =-0.0915 0.3700-0.0839 (  2276 PWs)   bands (ev):

   -32.5599   0.0603   2.5893   6.2958   8.1902   9.9730  10.9884  13.3972
    14.4428  15.6293  16.3067  18.9587

          k =-0.0915 0.4757-0.0839 (  2271 PWs)   bands (ev):

   -32.5436   2.3010   4.7373   5.0560   7.4200   8.3203  11.3130  12.1752
    13.1511  14.4452  15.8398  18.4627

          k =-0.1831 0.4228-0.0839 (  2269 PWs)   bands (ev):

   -32.5437   1.7457   4.2192   7.1476   7.8175   9.5006  10.0352  11.6147
    12.4834  13.3589  15.9032  16.5148

     the Fermi energy is    13.2147 ev

!    total energy              =     -39.53468143 Ry
     estimated scf accuracy    <          4.9E-09 Ry
     smearing contrib. (-TS)   =      -0.00097572 Ry
     internal energy E=F+TS    =     -39.53370570 Ry

     The total energy is F=E-TS. E is the sum of the following terms:
     one-electron contribution =      10.78007541 Ry
     hartree contribution      =       3.01627248 Ry
     xc contribution           =     -13.51394867 Ry
     ewald contribution        =     -39.81610492 Ry

     convergence has been achieved in   8 iterations

     Forces acting on atoms (cartesian axes, Ry/au):

     atom    1 type  1   force =    -0.00000000   -0.00000000    0.00436231
     atom    2 type  1   force =    -0.00000000   -0.00000000   -0.00436231
     atom    3 type  1   force =    -0.00000000   -0.00000000    0.00000000
     atom    4 type  2   force =     0.00000000    0.00000000    0.00000000
     The non-local contrib.  to forces
     atom    1 type  1   force =     0.00000000    0.00000000    0.09030302
     atom    2 type  1   force =     0.00000000    0.00000000   -0.09030302
     atom    3 type  1   force =    -0.00000000    0.00000000    0.00000000
     atom    4 type  2   force =    -0.00000000    0.00000000    0.00000000
     The ionic contribution  to forces
     atom    1 type  1   force =     0.00000001   -0.00000000   -0.41452679
     atom    2 type  1   force =    -0.00000001    0.00000000    0.41452679
     atom    3 type  1   force =     0.00000000    0.00000000    0.00000000
     atom    4 type  2   force =     0.00000000    0.00000000    0.00000000
     The local contribution  to forces
     atom    1 type  1   force =    -0.00000001    0.00000000    0.33035500
     atom    2 type  1   force =     0.00000001   -0.00000000   -0.33035500
     atom    3 type  1   force =     0.00000000   -0.00000000   -0.00000000
     atom    4 type  2   force =    -0.00000000   -0.00000000   -0.00000000
     The core correction contribution to forces
     atom    1 type  1   force =    -0.00000000    0.00000000   -0.00164919
     atom    2 type  1   force =     0.00000000   -0.00000000    0.00164919
     atom    3 type  1   force =    -0.00000000    0.00000000   -0.00000000
     atom    4 type  2   force =     0.00000000    0.00000000    0.00000000
     The Hubbard contrib.    to forces
     atom    1 type  1   force =     0.00000000    0.00000000    0.00000000
     atom    2 type  1   force =     0.00000000    0.00000000    0.00000000
     atom    3 type  1   force =     0.00000000    0.00000000    0.00000000
     atom    4 type  2   force =     0.00000000    0.00000000    0.00000000
     The SCF correction term to forces
     atom    1 type  1   force =     0.00000000   -0.00000000   -0.00011973
     atom    2 type  1   force =    -0.00000000    0.00000000    0.00011973
     atom    3 type  1   force =     0.00000000   -0.00000000    0.00000000
     atom    4 type  2   force =     0.00000000    0.00000000    0.00000000

     Total force =     0.006169     Total SCF correction =     0.000169


     Computing stress (Cartesian axis) and pressure

          total   stress  (Ry/bohr**3)                   (kbar)     P=      519.87
   0.00295565   0.00000000   0.00000000          434.79        0.00        0.00
   0.00000000   0.00295565   0.00000000            0.00      434.79        0.00
   0.00000000   0.00000000   0.00469064            0.00        0.00      690.02

     Energy error            =      4.4E-02 Ry
     Gradient error          =      4.4E-03 Ry/Bohr
     Cell gradient error     =      1.9E+02 kbar

     number of scf cycles    =   4
     number of bfgs steps    =   3

     enthalpy           old  =     -38.5592515797 Ry
     enthalpy           new  =     -38.6033863712 Ry

     CASE: enthalpy          _new < enthalpy          _old

     new trust radius        =       0.1728446686 bohr
ibrav =      4
 celldm(1) =      4.69987395
 celldm(3) =      2.97863250
Input lattice vectors:
     1.05278960     0.00000000     0.00000000
    -0.52639480     0.91174254     0.00000000
     0.00000000     0.00000000     3.13587333
New lattice vectors in INITIAL alat:
     1.05278960     0.00000000     0.00000000
    -0.52639480     0.91174254     0.00000000
     0.00000000     0.00000000     3.13587333
New lattice vectors in NEW alat (for information only):
     1.00000000     0.00000000     0.00000000
    -0.50000000     0.86602540     0.00000000
     0.00000000     0.00000000     2.97863250
Discrepancy in bohr =     0.000000    0.000000    0.000000
     new conv_thr            =       0.0000000004 Ry

     new unit-cell volume =    267.79730 a.u.^3 (    39.68347 Ang^3 )
     density =      3.81612 g/cm^3

CELL_PARAMETERS (alat=  4.46421007)
   1.052789604   0.000000000   0.000000000
  -0.526394802   0.911742542   0.000000000
   0.000000000   0.000000000   3.135873334

ATOMIC_POSITIONS (crystal)
Si            0.3333333300        0.6666666700        0.2493325885
Si            0.6666666700        0.3333333300        0.7506674115
Si           -0.0000000000        0.0000000000        0.5000000000
Li            0.0000000000       -0.0000000000        0.0000000000



     Writing config-only to output data dir ./output/SiLi.save/
     NEW-OLD atomic charge density approx. for the potential
     extrapolated charge   14.65292, renormalised to   15.00000

     total cpu time spent up to now is       20.0 secs

     Self-consistent Calculation

     iteration #  1     ecut=    80.00 Ry     beta= 0.70
     Davidson diagonalization with overlap
     c_bands:  1 eigenvalues not converged
     c_bands:  1 eigenvalues not converged
     ethr =  1.00E-06,  avg # of iterations = 13.0

     total cpu time spent up to now is       20.9 secs

     total energy              =     -39.50013500 Ry
     estimated scf accuracy    <       0.03586883 Ry

     iteration #  2     ecut=    80.00 Ry     beta= 0.70
     Davidson diagonalization with overlap
     ethr =  2.39E-04,  avg # of iterations =  3.7

     total cpu time spent up to now is       21.3 secs

     total energy              =     -39.46066165 Ry
     estimated scf accuracy    <       0.70238572 Ry

     iteration #  3     ecut=    80.00 Ry     beta= 0.70
     Davidson diagonalization with overlap
     ethr =  2.39E-04,  avg # of iterations =  3.3

     total cpu time spent up to now is       21.7 secs

     total energy              =     -39.52815298 Ry
     estimated scf accuracy    <       0.00342679 Ry

     iteration #  4     ecut=    80.00 Ry     beta= 0.70
[...]
        k(   44) = (   0.0000000   0.2232268  -0.0760644), wk =   0.0300000
        k(   45) = (   0.0000000   0.3348402  -0.0760644), wk =   0.0300000
        k(   46) = (   0.0000000   0.4464536  -0.0760644), wk =   0.0300000
        k(   47) = (  -0.0966600   0.2790335  -0.0760644), wk =   0.0600000
        k(   48) = (  -0.0966600   0.3906469  -0.0760644), wk =   0.0600000
        k(   49) = (  -0.0966600   0.5022603  -0.0760644), wk =   0.0600000
        k(   50) = (  -0.1933201   0.4464536  -0.0760644), wk =   0.0600000

     Dense  grid:    26141 G-vectors     FFT dimensions: (  27,  27,  90)

     Estimated max dynamical RAM per process >      18.13 MB

     Estimated total dynamical RAM >     145.00 MB

     Initial potential from superposition of free atoms

     starting charge      14.9936, renormalised to      15.0000
     Starting wfcs are   14 randomized atomic wfcs

     total cpu time spent up to now is       41.6 secs

     Self-consistent Calculation

     iteration #  1     ecut=    80.00 Ry     beta= 0.70
     Davidson diagonalization with overlap
     c_bands:  3 eigenvalues not converged
     c_bands:  4 eigenvalues not converged
     c_bands:  4 eigenvalues not converged
     c_bands:  1 eigenvalues not converged
     c_bands:  1 eigenvalues not converged
     c_bands:  1 eigenvalues not converged
     c_bands:  2 eigenvalues not converged
     c_bands:  1 eigenvalues not converged
     c_bands:  1 eigenvalues not converged
     c_bands:  1 eigenvalues not converged
     c_bands:  1 eigenvalues not converged
     c_bands:  1 eigenvalues not converged
     c_bands:  1 eigenvalues not converged
     c_bands:  1 eigenvalues not converged
     c_bands:  1 eigenvalues not converged
     c_bands:  1 eigenvalues not converged
     c_bands:  1 eigenvalues not converged
     c_bands:  1 eigenvalues not converged
     c_bands:  1 eigenvalues not converged
     c_bands:  1 eigenvalues not converged
     c_bands:  1 eigenvalues not converged
     c_bands:  1 eigenvalues not converged
     c_bands:  1 eigenvalues not converged
     ethr =  1.00E-06,  avg # of iterations = 18.0

     total cpu time spent up to now is       43.6 secs

     total energy              =     -39.26731954 Ry
     estimated scf accuracy    <       0.41037927 Ry

     iteration #  2     ecut=    80.00 Ry     beta= 0.70
     Davidson diagonalization with overlap
     ethr =  2.74E-03,  avg # of iterations =  4.1

     total cpu time spent up to now is       44.3 secs

     total energy              =     -38.68033427 Ry
     estimated scf accuracy    <       8.65032513 Ry

     iteration #  3     ecut=    80.00 Ry     beta= 0.70
     Davidson diagonalization with overlap
     ethr =  2.74E-03,  avg # of iterations =  3.1

     total cpu time spent up to now is       44.9 secs

     total energy              =     -39.55419564 Ry
     estimated scf accuracy    <       0.01110284 Ry

     iteration #  4     ecut=    80.00 Ry     beta= 0.70
     Davidson diagonalization with overlap
     ethr =  7.40E-05,  avg # of iterations =  5.2

     total cpu time spent up to now is       45.6 secs

     total energy              =     -39.55902486 Ry
     estimated scf accuracy    <       0.00207821 Ry

     iteration #  5     ecut=    80.00 Ry     beta= 0.70
     Davidson diagonalization with overlap
     ethr =  1.39E-05,  avg # of iterations =  2.1

     total cpu time spent up to now is       46.1 secs

     total energy              =     -39.55918284 Ry
     estimated scf accuracy    <       0.00008664 Ry

     iteration #  6     ecut=    80.00 Ry     beta= 0.70
     Davidson diagonalization with overlap
     ethr =  5.78E-07,  avg # of iterations =  4.0

     total cpu time spent up to now is       46.7 secs

     total energy              =     -39.55920112 Ry
     estimated scf accuracy    <       0.00000056 Ry

     iteration #  7     ecut=    80.00 Ry     beta= 0.70
     Davidson diagonalization with overlap
     ethr =  3.76E-09,  avg # of iterations =  4.0

     total cpu time spent up to now is       47.3 secs

     total energy              =     -39.55920171 Ry
     estimated scf accuracy    <       0.00000051 Ry

     iteration #  8     ecut=    80.00 Ry     beta= 0.70
     Davidson diagonalization with overlap
     ethr =  3.37E-09,  avg # of iterations =  1.5

     total cpu time spent up to now is       47.8 secs

     total energy              =     -39.55920177 Ry
     estimated scf accuracy    <          4.0E-09 Ry

     iteration #  9     ecut=    80.00 Ry     beta= 0.70
     Davidson diagonalization with overlap
     ethr =  2.70E-11,  avg # of iterations =  3.9

     total cpu time spent up to now is       48.3 secs

     total energy              =     -39.55920177 Ry
     estimated scf accuracy    <          3.2E-09 Ry

     iteration # 10     ecut=    80.00 Ry     beta= 0.70
     Davidson diagonalization with overlap
     ethr =  2.16E-11,  avg # of iterations =  1.1

     total cpu time spent up to now is       48.8 secs

     total energy              =     -39.55920177 Ry
     estimated scf accuracy    <          2.8E-10 Ry

     iteration # 11     ecut=    80.00 Ry     beta= 0.70
     Davidson diagonalization with overlap
     ethr =  1.86E-12,  avg # of iterations =  2.0

     total cpu time spent up to now is       49.2 secs

     End of self-consistent calculation

          k = 0.0000 0.0000 0.0000 (  3305 PWs)   bands (ev):

   -32.4219  -3.7278  -1.5670   1.6839   6.0191   9.9473  17.6333  19.7801
    25.1778  25.1778  25.2373  25.2373

          k = 0.0000 0.0000 0.0761 (  3318 PWs)   bands (ev):

   -32.4219  -3.7277  -1.5787   1.7644   5.7118  10.6178  15.9204  21.8043
    25.2215  25.2215  25.2494  25.2495

          k = 0.0000 0.0000-0.1521 (  3306 PWs)   bands (ev):

   -32.4219  -3.7276  -1.5903   1.8504   5.4397  11.4667  14.6040  23.8260
    25.2606  25.2606  25.2737  25.2737

          k = 0.0000 0.1116 0.0000 (  3297 PWs)   bands (ev):

   -32.4082  -3.4065  -1.2471   1.9820   6.3230  10.1594  17.8340  19.7947
    21.0409  22.7868  22.8593  24.6688

          k = 0.0000 0.1116 0.0761 (  3312 PWs)   bands (ev):

   -32.4082  -3.4057  -1.2620   2.0715   5.9926  10.8611  16.0828  20.8895
    21.9515  22.7868  22.8168  24.5073

          k = 0.0000 0.1116-0.1521 (  3320 PWs)   bands (ev):

   -32.4082  -3.4049  -1.2767   2.1676   5.7023  11.7567  14.7343  20.9963
    22.3804  22.8473  24.0954  24.3819

          k = 0.0000 0.2232 0.0000 (  3291 PWs)   bands (ev):

   -32.3722  -2.4463  -0.2916   2.8699   7.2320  10.7529  16.0248  17.9567
    18.6735  19.7389  20.8924  21.3662

          k = 0.0000 0.2232 0.0761 (  3284 PWs)   bands (ev):

   -32.3722  -2.4435  -0.3160   2.9858   6.8305  11.5427  15.8397  16.8497
    18.0279  20.8506  20.9235  22.4367

          k = 0.0000 0.2232-0.1521 (  3296 PWs)   bands (ev):

   -32.3722  -2.4408  -0.3396   3.1121   6.4856  12.5809  14.8491  16.4708
    18.0047  20.9363  20.9561  22.5126

          k = 0.0000 0.3348 0.0000 (  3271 PWs)   bands (ev):

   -32.3276  -0.8581   1.2862   4.3244   8.7209  10.8810  12.5110  13.7724
    16.0863  19.5409  19.8538  20.6575

          k = 0.0000 0.3348 0.0761 (  3283 PWs)   bands (ev):

   -32.3276  -0.8523   1.2470   4.4791   8.2031  11.1376  13.3807  13.5454
    15.8996  18.3683  19.5731  20.2418

          k = 0.0000 0.3348-0.1521 (  3272 PWs)   bands (ev):

   -32.3276  -0.8465   1.2091   4.6555   7.7593  11.4630  13.1395  14.4015
    16.0829  17.0242  19.6074  19.7910

          k = 0.0000 0.4465 0.0000 (  3260 PWs)   bands (ev):

   -32.2913   1.3388   3.4555   6.2247   7.5307   9.7157  10.8780  12.0865
    14.1564  17.0326  18.7316  18.8715

          k = 0.0000 0.4465 0.0761 (  3260 PWs)   bands (ev):

   -32.2913   1.3479   3.4020   6.3440   7.6519   9.6877  10.0863  12.6589
    14.9348  16.2213  18.7176  18.7643

          k = 0.0000 0.4465-0.1521 (  3270 PWs)   bands (ev):

   -32.2913   1.3578   3.3452   6.5070   7.8591   8.9750  10.2026  12.9690
    15.0625  16.4718  18.3900  18.7997

          k = 0.0000-0.5581 0.0000 (  3262 PWs)   bands (ev):

   -32.2774   4.0122   4.2111   5.7372   6.7643   8.3487   9.8445  13.3107
    13.8813  15.1433  17.6571  18.4621

          k = 0.0000-0.5581 0.0761 (  3262 PWs)   bands (ev):

   -32.2774   4.0411   4.1994   5.7661   6.4868   8.9301   9.8083  12.4451
    13.3368  16.7898  17.9682  18.4948

          k = 0.0000-0.5581-0.1521 (  3248 PWs)   bands (ev):

   -32.2774   4.0721   4.1877   5.7959   6.2795   9.6500   9.7897  11.3875
    13.2967  18.2148  18.5308  18.9692

          k = 0.0967 0.1674 0.0000 (  3283 PWs)   bands (ev):

   -32.3834  -2.7657  -0.6094   2.5751   6.9296  10.5686  17.7339  18.8029
    19.2800  19.7005  20.1933  21.2966

          k = 0.0967 0.1674 0.0761 (  3289 PWs)   bands (ev):

   -32.3834  -2.7636  -0.6306   2.6822   6.5530  11.3276  16.3132  18.7268
    18.8270  20.1825  20.6197  22.2868

          k = 0.0967 0.1674-0.1521 (  3306 PWs)   bands (ev):

   -32.3834  -2.7615  -0.6513   2.7985   6.2257  12.3215  14.9347  18.7170
    18.8098  20.1842  20.5698  23.4667

          k = 0.0967 0.2790 0.0000 (  3281 PWs)   bands (ev):

   -32.3430  -1.4915   0.6575   3.7479   8.1350  11.2385  14.1292  15.9228
    16.9000  17.9725  18.9267  19.7535

          k = 0.0967 0.2790 0.0761 (  3284 PWs)   bands (ev):

   -32.3430  -1.4869   0.6240   3.8885   7.6614  12.0389  14.2505  15.7519
    16.6142  17.2462  18.5868  20.4039

          k = 0.0967 0.2790-0.1521 (  3286 PWs)   bands (ev):

   -32.3430  -1.4823   0.5918   4.0446   7.2616  13.1237  14.0536  15.2873
    16.2936  17.1591  18.6013  19.7049

          k = 0.0967 0.3906 0.0000 (  3279 PWs)   bands (ev):

   -32.3026   0.4014   2.5337   5.4594   9.3570  10.1245  11.6858  12.8602
    14.6649  15.7948  17.9112  19.1863

          k = 0.0967 0.3906 0.0761 (  3276 PWs)   bands (ev):

   -32.3026   0.4093   2.4844   5.6326   9.2641   9.6003  11.7929  13.8232
    14.6717  15.7080  17.7409  18.0521

          k = 0.0967 0.3906-0.1521 (  3266 PWs)   bands (ev):

   -32.3026   0.4174   2.4358   5.8431   8.6992   9.8026  11.6366  14.7169
    14.9196  16.1232  16.6916  17.5287

          k = 0.0967 0.5023 0.0000 (  3260 PWs)   bands (ev):

   -32.2775   2.8869   4.9484   5.9096   7.5649   8.4069  10.8457  12.4275
    14.5383  14.8822  15.8309  17.5682

          k = 0.0967 0.5023 0.0761 (  3259 PWs)   bands (ev):

   -32.2775   2.8972   4.9034   5.9053   7.4656   8.8563  10.5248  12.0835
    14.6778  15.0132  15.9260  17.5838

          k = 0.0967 0.5023-0.1521 (  3258 PWs)   bands (ev):

   -32.2775   2.9098   4.8366   5.9029   7.6676   8.7166  10.8605  11.5902
    14.1041  15.0560  16.8330  18.1164

          k = 0.1933 0.3348 0.0000 (  3271 PWs)   bands (ev):

   -32.3069   0.0876   2.2239   5.1864   9.5982  11.4579  12.3062  13.5845
    13.9624  15.4172  16.5508  17.4599

          k = 0.1933 0.3348 0.0761 (  3280 PWs)   bands (ev):

   -32.3069   0.0950   2.1764   5.3630   8.9969  11.9712  12.3608  13.5660
    14.2195  15.3113  16.8206  17.4615

          k = 0.1933 0.3348-0.1521 (  3286 PWs)   bands (ev):

   -32.3069   0.1025   2.1310   5.5632   8.5248  12.2344  12.4206  13.7400
    14.2634  15.7637  16.3800  17.9511

          k = 0.1933 0.4465 0.0000 (  3272 PWs)   bands (ev):

   -32.2776   2.2716   4.3742   7.0689   8.4210  10.5433  11.0243  11.9969
    13.1995  13.4507  15.1297  16.5305

          k = 0.1933 0.4465 0.0761 (  3270 PWs)   bands (ev):

   -32.2776   2.2820   4.3143   7.2058   8.5405  10.3242  10.8123  11.8198
    12.9817  14.0112  16.1316  16.1958

          k = 0.1933 0.4465-0.1521 (  3272 PWs)   bands (ev):

   -32.2776   2.2931   4.2533   7.3785   8.7135   9.7874  10.9806  11.4893
    13.1692  14.3235  15.8768  16.7483

          k = 0.1933 0.5581 0.0000 (  3264 PWs)   bands (ev):

   -32.2664   4.9284   5.1247   6.6175   7.6708   9.2222  10.1677  11.5966
    13.2733  14.2499  14.7069  15.9330

          k = 0.1933 0.5581 0.0761 (  3259 PWs)   bands (ev):

   -32.2664   4.9561   5.1152   6.6401   7.4033   9.7383  10.1582  11.7342
    12.8866  13.6280  14.2547  16.3568

          k = 0.1933 0.5581-0.1521 (  3256 PWs)   bands (ev):

   -32.2664   4.9858   5.1059   6.6632   7.2029  10.0048  10.5208  11.8889
    12.3026  12.9279  14.3422  16.6558

          k = 0.2900 0.5023 0.0000 (  3264 PWs)   bands (ev):

   -32.2621   4.7244   6.7065   7.6613   7.7281   9.2279   9.5574  10.8395
    12.1741  13.4211  14.2446  16.3246

          k = 0.2900 0.5023 0.0761 (  3263 PWs)   bands (ev):

   -32.2621   4.7370   6.6540   7.6844   7.7006   9.2376   9.6076  10.8797
    12.5022  13.1563  14.1003  15.9253

          k = 0.2900 0.5023-0.1521 (  3266 PWs)   bands (ev):

   -32.2621   4.7498   6.6037   7.6684   7.7111   9.3112   9.5444  11.0943
    12.3714  13.5465  13.7923  15.1463

          k = 0.0000 0.1116-0.0761 (  3312 PWs)   bands (ev):

   -32.4082  -3.4057  -1.2620   2.0714   5.9930  10.8590  16.0928  21.0034
    21.5696  22.8147  23.1052  24.5248

          k = 0.0000 0.2232-0.0761 (  3284 PWs)   bands (ev):

   -32.3722  -2.4436  -0.3159   2.9856   6.8322  11.5339  15.7340  17.0535
    18.1180  20.4728  20.9222  22.1584

          k = 0.0000 0.3348-0.0761 (  3283 PWs)   bands (ev):

   -32.3276  -0.8524   1.2468   4.4822   8.1789  11.4442  12.4595  14.0478
    16.4352  18.0543  19.5722  19.8724

          k = 0.0000 0.4465-0.0761 (  3260 PWs)   bands (ev):

   -32.2913   1.3484   3.3958   6.3951   7.6245   9.3290  10.5419  12.6927
    14.2429  16.9876  18.7638  19.6336

          k =-0.0967 0.2790-0.0761 (  3284 PWs)   bands (ev):

   -32.3430  -1.4870   0.6241   3.8889   7.6599  12.0947  14.0055  15.8043
    16.7762  17.7830  18.7320  18.9371

          k =-0.0967 0.3906-0.0761 (  3276 PWs)   bands (ev):

   -32.3026   0.4093   2.4828   5.6461   8.9498  10.1204  11.4775  13.7223
    14.7662  15.9757  17.6534  18.3176

          k =-0.0967 0.5023-0.0761 (  3259 PWs)   bands (ev):

   -32.2775   2.8992   4.8788   5.9100   7.9223   8.1342  11.1789  11.8587
    14.0609  14.8598  16.9670  17.6632

          k =-0.1933 0.4465-0.0761 (  3270 PWs)   bands (ev):

   -32.2776   2.2824   4.3098   7.2456   8.4935  10.1911  11.2549  11.3691
    13.4636  13.8283  15.2876  16.5825

     the Fermi energy is    13.4654 ev

!    total energy              =     -39.55920177 Ry
     estimated scf accuracy    <          1.3E-13 Ry
     smearing contrib. (-TS)   =      -0.00012005 Ry
     internal energy E=F+TS    =     -39.55908172 Ry

     The total energy is F=E-TS. E is the sum of the following terms:
     one-electron contribution =      11.09029626 Ry
     hartree contribution      =       2.95124505 Ry
     xc contribution           =     -13.55274328 Ry
     ewald contribution        =     -40.04787974 Ry

     convergence has been achieved in  11 iterations

     Forces acting on atoms (cartesian axes, Ry/au):

     atom    1 type  1   force =    -0.00000000   -0.00000000   -0.00003339
     atom    2 type  1   force =     0.00000000    0.00000000    0.00003339
     atom    3 type  1   force =     0.00000000    0.00000000    0.00000000
     atom    4 type  2   force =     0.00000000   -0.00000000    0.00000000
     The non-local contrib.  to forces
     atom    1 type  1   force =     0.00000000    0.00000000    0.11538409
     atom    2 type  1   force =     0.00000000    0.00000000   -0.11538409
     atom    3 type  1   force =     0.00000000    0.00000000    0.00000000
     atom    4 type  2   force =     0.00000000    0.00000000    0.00000000
     The ionic contribution  to forces
     atom    1 type  1   force =     0.00000000   -0.00000000   -0.45147155
     atom    2 type  1   force =    -0.00000000    0.00000000    0.45147155
     atom    3 type  1   force =    -0.00000000    0.00000000    0.00000000
     atom    4 type  2   force =    -0.00000000    0.00000000    0.00000000
     The local contribution  to forces
     atom    1 type  1   force =    -0.00000001    0.00000001    0.34052331
     atom    2 type  1   force =     0.00000001   -0.00000001   -0.34052331
     atom    3 type  1   force =     0.00000000    0.00000000    0.00000000
     atom    4 type  2   force =     0.00000000    0.00000000   -0.00000000
     The core correction contribution to forces
     atom    1 type  1   force =    -0.00000000    0.00000000   -0.00446984
     atom    2 type  1   force =     0.00000000   -0.00000000    0.00446984
     atom    3 type  1   force =     0.00000000    0.00000000   -0.00000000
     atom    4 type  2   force =     0.00000000    0.00000000    0.00000000
     The Hubbard contrib.    to forces
     atom    1 type  1   force =     0.00000000    0.00000000    0.00000000
     atom    2 type  1   force =     0.00000000    0.00000000    0.00000000
     atom    3 type  1   force =     0.00000000    0.00000000    0.00000000
     atom    4 type  2   force =     0.00000000    0.00000000    0.00000000
     The SCF correction term to forces
     atom    1 type  1   force =     0.00000000    0.00000000    0.00000060
     atom    2 type  1   force =    -0.00000000   -0.00000000   -0.00000060
     atom    3 type  1   force =     0.00000000   -0.00000000   -0.00000000
     atom    4 type  2   force =    -0.00000000    0.00000000   -0.00000000

     Total force =     0.000047     Total SCF correction =     0.000001


     Computing stress (Cartesian axis) and pressure

          total   stress  (Ry/bohr**3)                   (kbar)     P=      514.69
   0.00342418   0.00000000  -0.00000000          503.71        0.00       -0.00
   0.00000000   0.00342418  -0.00000000            0.00      503.71       -0.00
   0.00000000   0.00000000   0.00364797            0.00        0.00      536.63


     Writing all to output data dir ./output/SiLi.save/

     init_run     :      0.87s CPU      0.95s WALL (       2 calls)
     electrons    :     34.85s CPU     39.46s WALL (      11 calls)
     update_pot   :      1.64s CPU      1.66s WALL (       9 calls)
     forces       :      1.43s CPU      1.48s WALL (      11 calls)
     stress       :      6.04s CPU      6.21s WALL (      11 calls)

     Called by init_run:
     wfcinit      :      0.31s CPU      0.32s WALL (       2 calls)
     potinit      :      0.20s CPU      0.22s WALL (       2 calls)
     hinit0       :      0.34s CPU      0.36s WALL (       2 calls)

     Called by electrons:
     c_bands      :     31.06s CPU     35.21s WALL (      97 calls)
     sum_band     :      3.42s CPU      3.57s WALL (      97 calls)
     v_of_rho     :      0.33s CPU      0.53s WALL (     107 calls)
     mix_rho      :      0.04s CPU      0.05s WALL (      97 calls)

     Called by c_bands:
     init_us_2    :      0.86s CPU      0.95s WALL (   10900 calls)
     init_us_2:cp :      0.85s CPU      0.94s WALL (   10900 calls)
     cegterg      :     28.62s CPU     30.06s WALL (    4850 calls)

     Called by *egterg:
     cdiaghg      :      3.55s CPU      3.73s WALL (   22563 calls)
     h_psi        :     21.96s CPU     23.04s WALL (   23163 calls)
     g_psi        :      0.14s CPU      0.16s WALL (   18213 calls)

     Called by h_psi:
     h_psi:calbec :      1.92s CPU      2.02s WALL (   23163 calls)
     vloc_psi     :     18.53s CPU     19.42s WALL (   23163 calls)
     add_vuspsi   :      1.37s CPU      1.44s WALL (   23163 calls)

     General routines
     calbec       :      2.29s CPU      2.39s WALL (   25913 calls)
     fft          :      0.40s CPU      0.67s WALL (    1344 calls)
     ffts         :      0.01s CPU      0.02s WALL (      97 calls)
     fftw         :     18.58s CPU     19.41s WALL (  424976 calls)

     Parallel routines

     PWSCF        :     45.12s CPU     50.40s WALL


   This run was terminated on:  12:17:27  29Dec2024            

=------------------------------------------------------------------------------=
   JOB DONE.
=------------------------------------------------------------------------------=
