
     Program PWSCF v.7.2 starts on 29Dec2024 at 12:16:36 

     This program is part of the open-source Quantum ESPRESSO suite
     for quantum simulation of materials; please cite
         "P. Giannozzi et al., J. Phys.:Condens. Matter 21 395502 (2009);
         "P. Giannozzi et al., J. Phys.:Condens. Matter 29 465901 (2017);
         "P. Giannozzi et al., J. Chem. Phys. 152 154105 (2020);
          URL http://www.quantum-espresso.org", 
     in publications or presentations arising from this work. More details at
     http://www.quantum-espresso.org/quote

     Parallel version (MPI & OpenMP), running on       8 processor cores
     Number of MPI processes:                 8
     Threads/MPI process:                     1

     MPI processes distributed on     1 nodes
     482238 MiB available memory on the printing compute node when the environment starts

     Waiting for input...
     Reading input from standard input

     Current dimensions of program PWSCF are:
     Max number of different atomic species (ntypx) = 10
     Max number of k-points (npk) =  40000
     Max angular momentum in pseudopotentials (lmaxx) =  4

     R & G space division:  proc/nbgrp/npool/nimage =       8
     Subspace diagonalization in iterative solution of the eigenvalue problem:
     a serial algorithm will be used


     Parallelization info
     --------------------
     sticks:   dense  smooth     PW     G-vecs:    dense   smooth      PW
     Min         114     114     38                 2242     2242     441
     Max         115     115     39                 2243     2243     443
     Sum         919     919    309                17939    17939    3537

     Using Slab Decomposition



     bravais-lattice index     =            7
     lattice parameter (alat)  =       5.8584  a.u.
     unit-cell volume          =     185.4870 (a.u.)^3
     number of atoms/cell      =            4
     number of atomic types    =            2
     number of electrons       =        13.00
     number of Kohn-Sham states=           11
     kinetic-energy cutoff     =      80.0000  Ry
     charge density cutoff     =     320.0000  Ry
     scf convergence threshold =      1.0E-08
     mixing beta               =       0.7000
     number of iterations used =            8  plain     mixing
     energy convergence thresh.=      1.0E-04
     force convergence thresh. =      1.0E-03
     press convergence thresh. =      1.0E+00
     Exchange-correlation= PBE
                           (   1   4   3   4   0   0   0)
     nstep                     =           50


     celldm(1)=   5.858427  celldm(2)=   0.000000  celldm(3)=   1.845016
     celldm(4)=   0.000000  celldm(5)=   0.000000  celldm(6)=   0.000000

     crystal axes: (cart. coord. in units of alat)
               a(1) = (   0.500000  -0.500000   0.922508 )  
               a(2) = (   0.500000   0.500000   0.922508 )  
               a(3) = (  -0.500000  -0.500000   0.922508 )  

     reciprocal axes: (cart. coord. in units 2 pi/alat)
               b(1) = (  1.000000 -1.000000  0.000000 )  
               b(2) = (  0.000000  1.000000  0.542001 )  
               b(3) = ( -1.000000  0.000000  0.542001 )  


     PseudoPot. # 1 for Si read from file:
     ../pseudo/Si_ONCV_PBE_sr.upf
     MD5 check sum: e543d271109d17c80368dfa7c482276d
     Pseudo is Norm-conserving + core correction, Zval =  4.0
     Generated using ONCVPSP code by D. R. Hamann
     Using radial grid of 1510 points,  6 beta functions with: 
                l(1) =   0
                l(2) =   0
                l(3) =   1
                l(4) =   1
                l(5) =   2
                l(6) =   2

     PseudoPot. # 2 for Li read from file:
     ../pseudo/Li_ONCV_PBE_sr.upf
     MD5 check sum: 50ff420e78310ffa21704f3361e624a4
     Pseudo is Norm-conserving, Zval =  3.0
     Generated using ONCVPSP code by D. R. Hamann
     Using radial grid of 1944 points,  4 beta functions with: 
                l(1) =   0
                l(2) =   0
                l(3) =   1
                l(4) =   1

     atomic species   valence    mass     pseudopotential
        Si             4.00    28.08550     Si( 1.00)
        Li             3.00     6.94100     Li( 1.00)

     16 Sym. Ops., with inversion, found



   Cartesian axes

     site n.     atom                  positions (alat units)
         1           Si  tau(   1) = (   0.0000000   0.0000000   0.0000000  )
         2           Li  tau(   2) = (   0.0000000   0.5000000   0.4612541  )
         3           Li  tau(   3) = (   0.0000000   0.5000000   1.3837623  )
         4           Li  tau(   4) = (   0.0000000   0.0000000   0.9225082  )

     number of k points=    90  Marzari-Vanderbilt smearing, width (Ry)=  0.0200
                       cart. coord. in units 2pi/alat
        k(    1) = (   0.0000000   0.0000000   0.0000000), wk =   0.0102041
        k(    2) = (  -0.2500000   0.0000000   0.1355001), wk =   0.0204082
        k(    3) = (   0.5000000   0.0000000  -0.2710003), wk =   0.0102041
        k(    4) = (   0.0000000   0.1428571   0.0774287), wk =   0.0408163
        k(    5) = (  -0.2500000   0.1428571   0.2129288), wk =   0.0204082
        k(    6) = (   0.5000000   0.1428571  -0.1935716), wk =   0.0204082
        k(    7) = (   0.2500000   0.1428571  -0.0580715), wk =   0.0204082
        k(    8) = (   0.0000000   0.2857143   0.1548573), wk =   0.0408163
        k(    9) = (  -0.2500000   0.2857143   0.2903575), wk =   0.0204082
        k(   10) = (   0.5000000   0.2857143  -0.1161430), wk =   0.0204082
        k(   11) = (   0.2500000   0.2857143   0.0193572), wk =   0.0204082
        k(   12) = (   0.0000000   0.4285714   0.2322860), wk =   0.0408163
        k(   13) = (  -0.2500000   0.4285714   0.3677861), wk =   0.0204082
        k(   14) = (   0.5000000   0.4285714  -0.0387143), wk =   0.0204082
        k(   15) = (   0.2500000   0.4285714   0.0967858), wk =   0.0204082
        k(   16) = (   0.1428571  -0.1428571   0.0000000), wk =   0.0204082
        k(   17) = (  -0.1071429  -0.1428571   0.1355001), wk =   0.0204082
        k(   18) = (   0.6428571  -0.1428571  -0.2710003), wk =   0.0204082
        k(   19) = (   0.3928571  -0.1428571  -0.1355001), wk =   0.0204082
        k(   20) = (  -0.1071429   0.0000000   0.2129288), wk =   0.0204082
        k(   21) = (   0.6428571   0.0000000  -0.1935716), wk =   0.0204082
        k(   22) = (   0.3928571   0.0000000  -0.0580715), wk =   0.0204082
        k(   23) = (   0.1428571   0.1428571   0.1548573), wk =   0.0204082
        k(   24) = (  -0.1071429   0.1428571   0.2903575), wk =   0.0204082
        k(   25) = (   0.6428571   0.1428571  -0.1161430), wk =   0.0204082
        k(   26) = (   0.3928571   0.1428571   0.0193572), wk =   0.0204082
        k(   27) = (   0.1428571   0.2857143   0.2322860), wk =   0.0408163
        k(   28) = (  -0.1071429   0.2857143   0.3677861), wk =   0.0204082
        k(   29) = (   0.6428571   0.2857143  -0.0387143), wk =   0.0204082
        k(   30) = (   0.3928571   0.2857143   0.0967858), wk =   0.0204082
        k(   31) = (   0.1428571  -0.5714286  -0.2322860), wk =   0.0408163
        k(   32) = (  -0.1071429  -0.5714286  -0.0967858), wk =   0.0204082
        k(   33) = (   0.6428571  -0.5714286  -0.5032863), wk =   0.0204082
        k(   34) = (   0.3928571  -0.5714286  -0.3677861), wk =   0.0204082
        k(   35) = (   0.1428571  -0.4285714  -0.1548573), wk =   0.0408163
        k(   36) = (  -0.1071429  -0.4285714  -0.0193572), wk =   0.0204082
        k(   37) = (   0.6428571  -0.4285714  -0.4258576), wk =   0.0204082
        k(   38) = (   0.3928571  -0.4285714  -0.2903575), wk =   0.0204082
        k(   39) = (   0.1428571  -0.2857143  -0.0774287), wk =   0.0408163
        k(   40) = (  -0.1071429  -0.2857143   0.0580715), wk =   0.0204082
        k(   41) = (   0.6428571  -0.2857143  -0.3484290), wk =   0.0204082
        k(   42) = (   0.3928571  -0.2857143  -0.2129288), wk =   0.0204082
        k(   43) = (   0.2857143  -0.2857143   0.0000000), wk =   0.0204082
        k(   44) = (   0.0357143  -0.2857143   0.1355001), wk =   0.0204082
        k(   45) = (   0.7857143  -0.2857143  -0.2710003), wk =   0.0204082
        k(   46) = (   0.5357143  -0.2857143  -0.1355001), wk =   0.0204082
        k(   47) = (   0.0357143  -0.1428571   0.2129288), wk =   0.0204082
        k(   48) = (   0.7857143  -0.1428571  -0.1935716), wk =   0.0204082
        k(   49) = (   0.5357143  -0.1428571  -0.0580715), wk =   0.0204082
        k(   50) = (   0.0357143   0.0000000   0.2903575), wk =   0.0204082
        k(   51) = (   0.7857143   0.0000000  -0.1161430), wk =   0.0204082
        k(   52) = (   0.5357143   0.0000000   0.0193572), wk =   0.0204082
        k(   53) = (   0.0357143   0.1428571   0.3677861), wk =   0.0204082
        k(   54) = (   0.7857143   0.1428571  -0.0387143), wk =   0.0204082
        k(   55) = (   0.5357143   0.1428571   0.0967858), wk =   0.0204082
        k(   56) = (   0.2857143  -0.7142857  -0.2322860), wk =   0.0204082
        k(   57) = (   0.0357143  -0.7142857  -0.0967858), wk =   0.0204082
        k(   58) = (   0.7857143  -0.7142857  -0.5032863), wk =   0.0204082
        k(   59) = (   0.5357143  -0.7142857  -0.3677861), wk =   0.0204082
        k(   60) = (   0.2857143  -0.5714286  -0.1548573), wk =   0.0408163
        k(   61) = (   0.0357143  -0.5714286  -0.0193572), wk =   0.0204082
        k(   62) = (   0.7857143  -0.5714286  -0.4258576), wk =   0.0204082
        k(   63) = (   0.5357143  -0.5714286  -0.2903575), wk =   0.0204082
        k(   64) = (   0.2857143  -0.4285714  -0.0774287), wk =   0.0408163
        k(   65) = (   0.0357143  -0.4285714   0.0580715), wk =   0.0204082
        k(   66) = (   0.7857143  -0.4285714  -0.3484290), wk =   0.0204082
        k(   67) = (   0.5357143  -0.4285714  -0.2129288), wk =   0.0204082
        k(   68) = (   0.4285714  -0.4285714   0.0000000), wk =   0.0204082
        k(   69) = (   0.1785714  -0.4285714   0.1355001), wk =   0.0204082
        k(   70) = (   0.9285714  -0.4285714  -0.2710003), wk =   0.0204082
        k(   71) = (   0.6785714  -0.4285714  -0.1355001), wk =   0.0204082
        k(   72) = (   0.1785714  -0.2857143   0.2129288), wk =   0.0204082
        k(   73) = (   0.9285714  -0.2857143  -0.1935716), wk =   0.0204082
        k(   74) = (   0.6785714  -0.2857143  -0.0580715), wk =   0.0204082
        k(   75) = (   0.1785714  -0.1428571   0.2903575), wk =   0.0204082
        k(   76) = (   0.9285714  -0.1428571  -0.1161430), wk =   0.0204082
        k(   77) = (   0.6785714  -0.1428571   0.0193572), wk =   0.0204082
        k(   78) = (   0.1785714   0.0000000   0.3677861), wk =   0.0204082
        k(   79) = (   0.9285714   0.0000000  -0.0387143), wk =   0.0204082
        k(   80) = (   0.6785714   0.0000000   0.0967858), wk =   0.0204082
        k(   81) = (   0.1785714  -0.8571429  -0.0967858), wk =   0.0204082
        k(   82) = (   0.9285714  -0.8571429  -0.5032863), wk =   0.0204082
        k(   83) = (   0.6785714  -0.8571429  -0.3677861), wk =   0.0204082
        k(   84) = (   0.1785714  -0.7142857  -0.0193572), wk =   0.0204082
        k(   85) = (   0.9285714  -0.7142857  -0.4258576), wk =   0.0204082
        k(   86) = (   0.6785714  -0.7142857  -0.2903575), wk =   0.0204082
        k(   87) = (   0.4285714  -0.5714286  -0.0774287), wk =   0.0204082
        k(   88) = (   0.1785714  -0.5714286   0.0580715), wk =   0.0204082
        k(   89) = (   0.9285714  -0.5714286  -0.3484290), wk =   0.0204082
        k(   90) = (   0.6785714  -0.5714286  -0.2129288), wk =   0.0204082

     Dense  grid:    17939 G-vectors     FFT dimensions: (  40,  40,  40)

     Estimated max dynamical RAM per process >      17.71 MB

     Estimated total dynamical RAM >     141.70 MB

     Initial potential from superposition of free atoms

     starting charge      12.9857, renormalised to      13.0000
     Starting wfcs are   10 randomized atomic wfcs +    1 random wfcs

     total cpu time spent up to now is        1.0 secs

     Self-consistent Calculation

     iteration #  1     ecut=    80.00 Ry     beta= 0.70
     Davidson diagonalization with overlap
     ethr =  1.00E-02,  avg # of iterations =  6.3

     Threshold (ethr) on eigenvalues was too large:
     Diagonalizing with lowered threshold

     Davidson diagonalization with overlap
     ethr =  1.35E-04,  avg # of iterations =  3.1

     total cpu time spent up to now is        2.8 secs

     total energy              =     -51.31665593 Ry
     estimated scf accuracy    <       0.01724310 Ry

     iteration #  2     ecut=    80.00 Ry     beta= 0.70
     Davidson diagonalization with overlap
     ethr =  1.33E-04,  avg # of iterations =  1.0

     total cpu time spent up to now is        3.4 secs

     total energy              =     -51.31742489 Ry
     estimated scf accuracy    <       0.00098088 Ry

     iteration #  3     ecut=    80.00 Ry     beta= 0.70
     Davidson diagonalization with overlap
     ethr =  7.55E-06,  avg # of iterations =  3.1

     total cpu time spent up to now is        4.2 secs

     total energy              =     -51.31746501 Ry
     estimated scf accuracy    <       0.00002768 Ry

     iteration #  4     ecut=    80.00 Ry     beta= 0.70
     Davidson diagonalization with overlap
     ethr =  2.13E-07,  avg # of iterations =  2.0

     total cpu time spent up to now is        4.9 secs

     total energy              =     -51.31746666 Ry
     estimated scf accuracy    <       0.00000042 Ry

     iteration #  5     ecut=    80.00 Ry     beta= 0.70
     Davidson diagonalization with overlap
     ethr =  3.26E-09,  avg # of iterations =  2.4

     total cpu time spent up to now is        5.6 secs

     End of self-consistent calculation

          k = 0.0000 0.0000 0.0000 (  2299 PWs)   bands (ev):

   -35.4747 -34.7283 -34.6013   0.5107  11.0467  12.6649  12.6649  14.0474
    14.3988  14.3988  16.2364

          k =-0.2500 0.0000 0.1355 (  2249 PWs)   bands (ev):

   -35.3774 -34.7596 -34.6557   0.9748   8.1204  10.1975  12.0585  12.3549
    16.7261  17.8777  18.1855

          k = 0.5000 0.0000-0.2710 (  2238 PWs)   bands (ev):

   -35.2543 -34.8008 -34.7260   1.7205   5.6753   9.4852  11.0996  13.1915
    14.6335  18.7176  21.6455

          k = 0.0000 0.1429 0.0774 (  2243 PWs)   bands (ev):

   -35.4400 -34.7399 -34.6200   0.6673  10.0644  10.8018  12.4025  13.0166
    15.3888  16.4961  17.4690

          k =-0.2500 0.1429 0.2129 (  2245 PWs)   bands (ev):

   -35.3277 -34.7885 -34.6716   1.2394   7.7414   9.0867  10.1413  13.9285
    16.2111  17.1392  20.5693

          k = 0.5000 0.1429-0.1936 (  2244 PWs)   bands (ev):

   -35.2414 -34.7968 -34.7382   1.9452   5.7880   8.6598  10.3465  13.4761
    14.9830  19.6536  20.0359

          k = 0.2500 0.1429-0.0581 (  2245 PWs)   bands (ev):

   -35.3735 -34.7481 -34.6671   1.0801   8.4082   9.5797  12.1075  13.0780
    15.0541  15.4674  19.6542

          k = 0.0000 0.2857 0.1549 (  2247 PWs)   bands (ev):

   -35.3530 -34.7671 -34.6700   1.1050   7.5466  10.0207  11.8104  12.4127
    16.7696  18.0779  18.1119

          k =-0.2500 0.2857 0.2904 (  2242 PWs)   bands (ev):

   -35.2525 -34.8131 -34.7120   1.8215   7.2331   7.7335   8.7720  14.7160
    16.3508  17.2519  22.1260

          k = 0.5000 0.2857-0.1161 (  2234 PWs)   bands (ev):

   -35.2097 -34.7887 -34.7676   2.5843   6.0453   7.6383   8.3430  13.8078
    16.0618  17.4060  21.0703

          k = 0.2500 0.2857 0.0194 (  2241 PWs)   bands (ev):

   -35.3184 -34.7587 -34.7015   1.5292   7.6268   8.7255  10.8209  13.5533
    14.0625  15.6084  20.7433

          k = 0.0000 0.4286 0.2323 (  2243 PWs)   bands (ev):

   -35.2685 -34.7952 -34.7186   1.6206   5.9164   9.5474  11.1809  12.9737
    15.0312  18.6383  20.6747

          k =-0.2500 0.4286 0.3678 (  2238 PWs)   bands (ev):

   -35.2102 -34.8077 -34.7517   2.3857   5.9930   7.8951   8.4424  14.1503
    15.9446  19.1057  20.0665

          k = 0.5000 0.4286-0.0387 (  2240 PWs)   bands (ev):

   -35.1806 -34.7970 -34.7799   3.4109   6.1416   6.6827   7.2778  13.1388
    16.5921  17.9523  20.0635

          k = 0.2500 0.4286 0.0968 (  2241 PWs)   bands (ev):

   -35.2445 -34.7754 -34.7502   2.1691   6.3873   7.9453   9.4282  13.6130
    15.2772  16.8100  21.0091

          k = 0.1429-0.1429 0.0000 (  2234 PWs)   bands (ev):

   -35.4238 -34.7369 -34.6352   0.7855   9.7646  10.4436  12.4227  12.9166
    14.7965  15.8904  18.0227

          k =-0.1071-0.1429 0.1355 (  2245 PWs)   bands (ev):

   -35.4094 -34.7569 -34.6308   0.7975   9.5665   9.9519  11.1455  13.9825
    15.1546  17.5119  18.1136

          k = 0.6429-0.1429-0.2710 (  2241 PWs)   bands (ev):

   -35.2646 -34.8062 -34.7098   1.6796   6.3842   8.8364   9.9169  13.6439
    15.5939  19.1361  20.6637

          k = 0.3929-0.1429-0.1355 (  2243 PWs)   bands (ev):

   -35.2854 -34.7713 -34.7225   1.6456   6.5229   8.8190  11.0756  13.2909
    14.9479  17.5219  19.5218

          k =-0.1071 0.0000 0.2129 (  2242 PWs)   bands (ev):

   -35.3955 -34.7878 -34.6172   0.7655   8.8430   9.9465  10.9002  14.2500
    16.3569  17.7050  18.3837

          k = 0.6429 0.0000-0.1936 (  2238 PWs)   bands (ev):

   -35.2503 -34.8347 -34.6996   1.6033   6.1441   8.1513  11.5439  12.9660
    16.9906  18.9130  21.9954

          k = 0.3929 0.0000-0.0581 (  2250 PWs)   bands (ev):

   -35.3126 -34.7504 -34.7211   1.4040   6.8190   8.6475  13.4168  13.7678
    15.4848  16.2384  17.2092

          k = 0.1429 0.1429 0.1549 (  2249 PWs)   bands (ev):

   -35.3921 -34.7645 -34.6386   0.8816   9.3952   9.4592  10.8059  14.2360
    15.1879  17.3340  18.8225

          k =-0.1071 0.1429 0.2904 (  2235 PWs)   bands (ev):

   -35.3275 -34.8300 -34.6381   1.0453   7.8864   9.0518   9.6426  15.4864
    16.4659  18.8471  20.1339

          k = 0.6429 0.1429-0.1161 (  2237 PWs)   bands (ev):

   -35.2149 -34.8498 -34.7150   1.9148   6.2038   7.3611   9.6316  15.6466
    16.6625  19.5749  20.5278

          k = 0.3929 0.1429 0.0194 (  2244 PWs)   bands (ev):

   -35.2971 -34.7529 -34.7294   1.5975   6.8714   8.3262  11.6857  14.2520
    14.6393  16.4909  18.3329

          k = 0.1429 0.2857 0.2323 (  2246 PWs)   bands (ev):

   -35.3049 -34.7957 -34.6846   1.3847   7.2317   8.9980  10.0133  13.8067
    16.0614  17.7054  20.7385

          k =-0.1071 0.2857 0.3678 (  2237 PWs)   bands (ev):

   -35.2465 -34.8551 -34.6844   1.5581   6.7197   7.7232   9.8460  14.9278
    17.5340  20.0253  20.2277

          k = 0.6429 0.2857-0.0387 (  2242 PWs)   bands (ev):

   -35.1846 -34.8357 -34.7494   2.5317   6.5360   6.9513   7.5462  15.3236
    18.1543  18.8838  20.5646

          k = 0.3929 0.2857 0.0968 (  2241 PWs)   bands (ev):

   -35.2477 -34.7772 -34.7440   2.1945   6.6293   7.8780   9.2199  13.4015
    15.1935  16.4109  21.6134

          k = 0.1429-0.5714-0.2323 (  2248 PWs)   bands (ev):

   -35.2406 -34.8075 -34.7293   1.9040   5.8625   8.7085  10.0377  13.5578
    15.2004  20.3461  20.6283

          k =-0.1071-0.5714-0.0968 (  2239 PWs)   bands (ev):

   -35.2255 -34.8249 -34.7287   1.9223   5.9201   7.5324  10.7033  14.9400
    16.2392  18.3166  19.6098

          k = 0.6429-0.5714-0.5033 (  2235 PWs)   bands (ev):

   -35.1819 -34.8000 -34.7801   3.0481   6.2524   7.0321   7.1581  13.9006
    17.1669  18.2540  20.3223

          k = 0.3929-0.5714-0.3678 (  2239 PWs)   bands (ev):

   -35.1971 -34.7922 -34.7711   2.9922   6.3465   6.9385   7.8041  13.6233
    15.9543  16.7959  19.8313

          k = 0.1429-0.4286-0.1549 (  2244 PWs)   bands (ev):

   -35.2665 -34.7792 -34.7321   1.7781   6.1829   8.7305  10.8051  13.3565
    14.9388  18.1994  19.6477

          k =-0.1071-0.4286-0.0194 (  2239 PWs)   bands (ev):

   -35.2845 -34.7511 -34.7443   1.6401   6.5796   8.0979  12.0429  14.5589
    15.1515  16.9851  17.3091

          k = 0.6429-0.4286-0.4259 (  2239 PWs)   bands (ev):

   -35.2100 -34.7882 -34.7641   2.7613   6.3568   7.3426   8.0532  13.3881
    15.9419  16.5876  21.0561

          k = 0.3929-0.4286-0.2904 (  2233 PWs)   bands (ev):

   -35.1892 -34.7936 -34.7775   3.0726   6.3434   6.7272   7.6824  13.8726
    16.2320  17.5245  18.4364

          k = 0.1429-0.2857-0.0774 (  2237 PWs)   bands (ev):

   -35.3520 -34.7532 -34.6808   1.2106   7.8962   9.3249  11.9017  13.1255
    14.9897  15.8557  19.5562

          k =-0.1071-0.2857 0.0581 (  2242 PWs)   bands (ev):

   -35.3638 -34.7481 -34.6760   1.1261   8.0129   9.4798  12.4267  13.1696
    15.1528  15.8490  18.7549

          k = 0.6429-0.2857-0.3484 (  2241 PWs)   bands (ev):

   -35.2471 -34.7874 -34.7361   2.1153   6.7707   7.7600   9.2225  13.4879
    15.2946  16.7498  21.8398

          k = 0.3929-0.2857-0.2129 (  2244 PWs)   bands (ev):

   -35.2317 -34.7907 -34.7463   2.2877   6.4330   7.7865   8.8960  13.5212
    15.3469  17.2266  21.2020

          k = 0.2857-0.2857 0.0000 (  2246 PWs)   bands (ev):

   -35.3027 -34.7626 -34.7106   1.6744   7.4214   8.5321  10.3775  13.4613
    14.2523  15.6995  20.9789

          k = 0.0357-0.2857 0.1355 (  2244 PWs)   bands (ev):

   -35.3578 -34.7615 -34.6706   1.0954   7.6559  10.0013  11.7991  12.6963
    16.4237  17.5397  18.1932

          k = 0.7857-0.2857-0.2710 (  2244 PWs)   bands (ev):

   -35.2701 -34.8084 -34.7017   1.6584   7.2059   8.1801   9.1184  14.6076
    16.0412  17.3563  22.2057

          k = 0.5357-0.2857-0.1355 (  2235 PWs)   bands (ev):

   -35.2028 -34.7977 -34.7657   2.6204   5.9961   7.6473   8.1096  13.9635
    16.2621  17.9199  20.5033

          k = 0.0357-0.1429 0.2129 (  2242 PWs)   bands (ev):

   -35.3848 -34.7879 -34.6259   0.8314   8.7529   9.6033  10.8947  13.9580
    16.7159  18.0503  18.6764

          k = 0.7857-0.1429-0.1936 (  2240 PWs)   bands (ev):

   -35.2669 -34.8552 -34.6670   1.3926   7.2680   8.0939   9.1198  15.9035
    17.7704  18.1813  21.1352

          k = 0.5357-0.1429-0.0581 (  2246 PWs)   bands (ev):

   -35.2288 -34.8063 -34.7414   2.0139   6.0045   7.4611  10.4062  15.3852
    15.9821  18.0519  18.4438

          k = 0.0357 0.0000 0.2904 (  2237 PWs)   bands (ev):

   -35.3545 -34.8351 -34.6120   0.8416   7.8310  10.0172  10.1319  15.0776
    15.8718  19.2650  19.2864

          k = 0.7857 0.0000-0.1161 (  2233 PWs)   bands (ev):

   -35.2315 -34.9067 -34.6543   1.3824   6.6643   7.6427  10.0656  15.0903
    19.2444  20.2331  20.5163

          k = 0.5357 0.0000 0.0194 (  2236 PWs)   bands (ev):

   -35.2401 -34.8100 -34.7309   1.7935   6.0407   7.3690  12.2432  15.0757
    16.0604  16.9535  18.6959

          k = 0.0357 0.1429 0.3678 (  2244 PWs)   bands (ev):

   -35.2806 -34.8829 -34.6333   1.1327   7.0487   8.6205   9.8446  15.2421
    17.3895  20.3546  20.9491

          k = 0.7857 0.1429-0.0387 (  2246 PWs)   bands (ev):

   -35.1931 -34.9231 -34.6719   1.6353   6.4240   7.6428   8.7433  17.2857
    19.0644  19.7279  20.7934

          k = 0.5357 0.1429 0.0968 (  2245 PWs)   bands (ev):

   -35.2301 -34.8064 -34.7400   2.0036   5.9257   7.6934  10.3855  14.8415
    15.7388  18.6752  18.8322

          k = 0.2857-0.7143-0.2323 (  2237 PWs)   bands (ev):

   -35.2360 -34.8160 -34.7228   1.9958   7.2579   7.3248   8.4833  14.6696
    16.6817  17.3323  21.3604

          k = 0.0357-0.7143-0.0968 (  2245 PWs)   bands (ev):

   -35.2165 -34.8917 -34.6796   1.5967   6.5285   7.0962  10.3964  14.9841
    18.9917  19.4579  21.2117

          k = 0.7857-0.7143-0.5033 (  2237 PWs)   bands (ev):

   -35.1885 -34.8797 -34.7109   2.0336   6.6430   7.0576   8.1375  17.2333
    18.5941  19.7287  20.2213

          k = 0.5357-0.7143-0.3678 (  2238 PWs)   bands (ev):

   -35.2047 -34.7976 -34.7639   2.6008   5.9627   7.8416   8.0960  13.8298
    15.9428  18.3005  19.9748

          k = 0.2857-0.5714-0.1549 (  2235 PWs)   bands (ev):

   -35.2006 -34.8058 -34.7606   2.5856   6.0640   7.6711   7.9394  14.1199
    16.4235  18.5011  19.8255

          k = 0.0357-0.5714-0.0194 (  2238 PWs)   bands (ev):

   -35.2259 -34.8312 -34.7242   1.8396   6.0222   7.1527  11.6449  15.3176
    16.5706  17.3785  19.2147

          k = 0.7857-0.5714-0.4259 (  2241 PWs)   bands (ev):

   -35.2107 -34.8152 -34.7464   2.2711   5.9829   7.5695   8.9655  14.7947
    16.1938  18.8116  20.3952

          k = 0.5357-0.5714-0.2904 (  2233 PWs)   bands (ev):

   -35.1812 -34.7908 -34.7859   3.3510   6.2559   6.5184   7.4164  13.9824
    16.3217  17.5373  17.7759

          k = 0.2857-0.4286-0.0774 (  2238 PWs)   bands (ev):

   -35.2345 -34.7777 -34.7552   2.3441   6.4160   7.7596   8.9116  13.5237
    15.5340  16.5912  21.3870

          k = 0.0357-0.4286 0.0581 (  2250 PWs)   bands (ev):

   -35.2911 -34.7564 -34.7348   1.5401   6.5042   8.3158  13.1530  13.9228
    15.4676  16.4353  17.5654

          k = 0.7857-0.4286-0.3484 (  2242 PWs)   bands (ev):

   -35.2441 -34.7875 -34.7412   2.0617   6.1297   8.4568   9.5978  13.3236
    15.0668  18.0080  21.5219

          k = 0.5357-0.4286-0.2129 (  2236 PWs)   bands (ev):

   -35.1803 -34.7903 -34.7873   3.3667   6.2441   6.5130   7.3860  13.8595
    16.6569  17.4573  17.8469

          k = 0.4286-0.4286 0.0000 (  2236 PWs)   bands (ev):

   -35.1936 -34.7948 -34.7706   3.1450   6.2408   7.1423   7.3991  13.0325
    16.4216  17.1163  21.3008

          k = 0.1786-0.4286 0.1355 (  2246 PWs)   bands (ev):

   -35.2608 -34.7766 -34.7380   1.8841   6.2613   8.4412  10.4118  13.4880
    15.0087  17.6195  20.1167

          k = 0.9286-0.4286-0.2710 (  2247 PWs)   bands (ev):

   -35.2575 -34.8027 -34.7207   1.7075   5.8569   9.2565  10.8983  12.9843
    15.1309  19.2484  20.9284

          k = 0.6786-0.4286-0.1355 (  2237 PWs)   bands (ev):

   -35.1920 -34.8029 -34.7694   2.7959   6.1433   7.4274   7.5305  14.0152
    16.9584  17.9821  19.5806

          k = 0.1786-0.2857 0.2129 (  2246 PWs)   bands (ev):

   -35.3034 -34.7889 -34.6907   1.4491   7.3523   8.7924   9.9585  13.8467
    15.7076  17.0346  21.3620

          k = 0.9286-0.2857-0.1936 (  2233 PWs)   bands (ev):

   -35.2600 -34.8483 -34.6791   1.4662   6.7348   7.9163  10.3824  14.1910
    17.7726  19.8426  20.2785

          k = 0.6786-0.2857-0.0581 (  2238 PWs)   bands (ev):

   -35.1856 -34.8463 -34.7399   2.4037   6.7483   7.0132   7.4144  15.6830
    18.5811  19.2094  20.0516

          k = 0.1786-0.1429 0.2904 (  2238 PWs)   bands (ev):

   -35.3112 -34.8267 -34.6539   1.1837   7.8607   8.6726   9.3529  15.6149
    16.6329  18.0620  20.6975

          k = 0.9286-0.1429-0.1161 (  2243 PWs)   bands (ev):

   -35.2375 -34.9194 -34.6387   1.2702   6.6016   8.4577   9.3687  15.9681
    17.4601  20.8423  21.8437

          k = 0.6786-0.1429 0.0194 (  2249 PWs)   bands (ev):

   -35.1946 -34.8808 -34.7060   1.9206   6.5375   6.7060   9.3197  17.1583
    17.8948  18.6721  20.2953

          k = 0.1786 0.0000 0.3678 (  2244 PWs)   bands (ev):

   -35.2748 -34.8788 -34.6415   1.1935   7.0635   8.2257  10.1036  14.8433
    18.2311  20.2179  20.4707

          k = 0.9286 0.0000-0.0387 (  2237 PWs)   bands (ev):

   -35.2002 -34.9759 -34.6228   1.2311   6.1561   8.9493   9.3135  15.9202
    16.4672  23.3668  23.9886

          k = 0.6786 0.0000 0.0968 (  2235 PWs)   bands (ev):

   -35.2172 -34.8780 -34.6908   1.6668   6.3345   7.1086  10.8198  14.6313
    18.6174  18.7262  21.8473

          k = 0.1786-0.8571-0.0968 (  2246 PWs)   bands (ev):

   -35.2168 -34.9132 -34.6606   1.4838   6.5871   8.1420   8.6837  17.1106
    18.0411  19.5514  21.6419

          k = 0.9286-0.8571-0.5033 (  2248 PWs)   bands (ev):

   -35.1975 -34.9573 -34.6404   1.3657   6.2496   8.3179   9.2142  16.2463
    17.6349  21.8235  22.3969

          k = 0.6786-0.8571-0.3678 (  2235 PWs)   bands (ev):

   -35.2359 -34.8440 -34.7021   1.7374   6.4818   7.7754   9.5225  15.1042
    16.6569  20.1544  20.4336

          k = 0.1786-0.7143-0.0194 (  2241 PWs)   bands (ev):

   -35.1891 -34.8901 -34.7022   1.9298   6.5885   6.9505   8.6108  17.6997
    18.2355  19.4034  20.4797

          k = 0.9286-0.7143-0.4259 (  2238 PWs)   bands (ev):

   -35.2227 -34.8824 -34.6819   1.6029   6.5703   7.2355  10.1297  15.1470
    18.4850  19.7017  20.9331

          k = 0.6786-0.7143-0.2904 (  2233 PWs)   bands (ev):

   -35.2332 -34.8078 -34.7315   2.1056   6.9516   7.4527   8.5936  14.2378
    16.2636  17.3547  21.1193

          k = 0.4286-0.5714-0.0774 (  2238 PWs)   bands (ev):

   -35.1776 -34.7911 -34.7900   3.3478   6.2890   6.5221   7.2341  13.4698
    16.9354  18.5879  18.8918

          k = 0.1786-0.5714 0.0581 (  2242 PWs)   bands (ev):

   -35.2122 -34.8215 -34.7410   2.1598   6.0312   7.2558   9.5309  15.6099
    16.4877  18.5552  18.8811

          k = 0.9286-0.5714-0.3484 (  2248 PWs)   bands (ev):

   -35.2430 -34.8158 -34.7219   1.7780   5.8029   8.4696  11.2176  13.2703
    15.6435  19.0165  21.2842

          k = 0.6786-0.5714-0.2129 (  2239 PWs)   bands (ev):

   -35.2122 -34.7914 -34.7611   2.6146   6.2439   7.5025   8.3433  13.6087
    15.5073  17.3073  20.2662

     the Fermi energy is    10.1565 ev

!    total energy              =     -51.31746675 Ry
     estimated scf accuracy    <          8.1E-09 Ry
     smearing contrib. (-TS)   =      -0.00032547 Ry
     internal energy E=F+TS    =     -51.31714127 Ry

     The total energy is F=E-TS. E is the sum of the following terms:
     one-electron contribution =     -11.00266108 Ry
     hartree contribution      =       8.08335922 Ry
     xc contribution           =     -14.12969197 Ry
     ewald contribution        =     -34.26814744 Ry

     convergence has been achieved in   5 iterations

     Forces acting on atoms (cartesian axes, Ry/au):

     atom    1 type  1   force =     0.00000000    0.00000000   -0.00000000
     atom    2 type  2   force =    -0.00000000    0.00000000    0.00000000
     atom    3 type  2   force =     0.00000000   -0.00000000    0.00000000
     atom    4 type  2   force =     0.00000000    0.00000000   -0.00000000
     The non-local contrib.  to forces
     atom    1 type  1   force =    -0.00000000   -0.00000000    0.00000000
     atom    2 type  2   force =    -0.00000000    0.00000000    0.00000000
     atom    3 type  2   force =    -0.00000000   -0.00000000    0.00000000
     atom    4 type  2   force =     0.00000000    0.00000000    0.00000000
     The ionic contribution  to forces
     atom    1 type  1   force =    -0.00000000   -0.00000000    0.00000000
     atom    2 type  2   force =     0.00000000    0.00000000    0.00000000
     atom    3 type  2   force =     0.00000000   -0.00000000    0.00000000
     atom    4 type  2   force =    -0.00000000   -0.00000000    0.00000000
     The local contribution  to forces
     atom    1 type  1   force =    -0.00000000   -0.00000000    0.00000000
     atom    2 type  2   force =    -0.00000000    0.00000000   -0.00000000
     atom    3 type  2   force =     0.00000000    0.00000000   -0.00000000
     atom    4 type  2   force =     0.00000000    0.00000000   -0.00000000
     The core correction contribution to forces
     atom    1 type  1   force =    -0.00000000   -0.00000000    0.00000000
     atom    2 type  2   force =     0.00000000    0.00000000    0.00000000
     atom    3 type  2   force =     0.00000000    0.00000000    0.00000000
     atom    4 type  2   force =     0.00000000    0.00000000    0.00000000
     The Hubbard contrib.    to forces
     atom    1 type  1   force =     0.00000000    0.00000000    0.00000000
     atom    2 type  2   force =     0.00000000    0.00000000    0.00000000
     atom    3 type  2   force =     0.00000000    0.00000000    0.00000000
     atom    4 type  2   force =     0.00000000    0.00000000    0.00000000
     The SCF correction term to forces
     atom    1 type  1   force =     0.00000000   -0.00000000    0.00000000
     atom    2 type  2   force =    -0.00000000   -0.00000000   -0.00000000
     atom    3 type  2   force =    -0.00000000    0.00000000    0.00000000
     atom    4 type  2   force =     0.00000000   -0.00000000   -0.00000000

     Total force =     0.000000     Total SCF correction =     0.000000


     Computing stress (Cartesian axis) and pressure

          total   stress  (Ry/bohr**3)                   (kbar)     P=     1090.65
   0.00768295   0.00000000  -0.00000000         1130.20        0.00       -0.00
   0.00000000   0.00768295   0.00000000            0.00     1130.20        0.00
  -0.00000000   0.00000000   0.00687629           -0.00        0.00     1011.54


     BFGS Geometry Optimization
     Energy error            =      0.0E+00 Ry
     Gradient error          =      1.1E-31 Ry/Bohr
     Cell gradient error     =      6.3E+02 kbar

     number of scf cycles    =   1
     number of bfgs steps    =   0

     enthalpy           new  =     -50.6870093535 Ry

     new trust radius        =       0.2917282766 bohr
ibrav =      7
 celldm(1) =      6.48586839
 celldm(3) =      1.81140817
Input lattice vectors:
     0.55355029    -0.55355029     1.00270552
     0.55355029     0.55355029     1.00270552
    -0.55355029    -0.55355029     1.00270552
New lattice vectors in INITIAL alat:
     0.55355029    -0.55355029     1.00270552
     0.55355029     0.55355029     1.00270552
    -0.55355029    -0.55355029     1.00270552
New lattice vectors in NEW alat (for information only):
     0.50000000    -0.50000000     0.90570409
     0.50000000     0.50000000     0.90570409
    -0.50000000    -0.50000000     0.90570409
Discrepancy in bohr =     0.000000    0.000000    0.000000
     new conv_thr            =       0.0000000100 Ry

     new unit-cell volume =    247.11023 a.u.^3 (    36.61796 Ang^3 )
     density =      2.21789 g/cm^3

CELL_PARAMETERS (alat=  5.85842741)
   0.553550291  -0.553550291   1.002705519
   0.553550291   0.553550291   1.002705519
  -0.553550291  -0.553550291   1.002705519

ATOMIC_POSITIONS (crystal)
Si           -0.0000000000        0.0000000000       -0.0000000000
Li           -0.5000000000        0.7500000000        0.2500000000
Li           -0.5000000000        1.2500000000        0.7500000000
Li            0.0000000000        0.5000000000        0.5000000000



     Writing config-only to output data dir ./output/SiLi.save/
     NEW-OLD atomic charge density approx. for the potential
     extrapolated charge   16.23832, renormalised to   13.00000

     total cpu time spent up to now is        6.7 secs

     Self-consistent Calculation

     iteration #  1     ecut=    80.00 Ry     beta= 0.70
     Davidson diagonalization with overlap
     c_bands:  1 eigenvalues not converged
     ethr =  1.00E-06,  avg # of iterations =  9.3

     total cpu time spent up to now is        8.6 secs

     total energy              =     -51.48056809 Ry
     estimated scf accuracy    <       0.03557419 Ry

     iteration #  2     ecut=    80.00 Ry     beta= 0.70
     Davidson diagonalization with overlap
     ethr =  2.74E-04,  avg # of iterations =  3.0

     total cpu time spent up to now is        9.7 secs

     total energy              =     -51.61019876 Ry
     estimated scf accuracy    <       0.04090911 Ry

     iteration #  3     ecut=    80.00 Ry     beta= 0.70
     Davidson diagonalization with overlap
     ethr =  2.74E-04,  avg # of iterations =  1.0

     total cpu time spent up to now is       10.5 secs

     total energy              =     -51.61758532 Ry
     estimated scf accuracy    <       0.01128278 Ry

     iteration #  4     ecut=    80.00 Ry     beta= 0.70
     Davidson diagonalization with overlap
     ethr =  8.68E-05,  avg # of iterations =  1.2

     total cpu time spent up to now is       11.3 secs

     total energy              =     -51.60250596 Ry
     estimated scf accuracy    <       0.02246042 Ry

     iteration #  5     ecut=    80.00 Ry     beta= 0.70
     Davidson diagonalization with overlap
     ethr =  8.68E-05,  avg # of iterations =  2.0

     total cpu time spent up to now is       12.2 secs

     total energy              =     -51.60581043 Ry
     estimated scf accuracy    <       0.00010311 Ry

     iteration #  6     ecut=    80.00 Ry     beta= 0.70
     Davidson diagonalization with overlap
     ethr =  7.93E-07,  avg # of iterations =  2.9

     total cpu time spent up to now is       13.2 secs

     total energy              =     -51.60580706 Ry
     estimated scf accuracy    <       0.00009631 Ry

     iteration #  7     ecut=    80.00 Ry     beta= 0.70
     Davidson diagonalization with overlap
     ethr =  7.41E-07,  avg # of iterations =  1.0

     total cpu time spent up to now is       14.0 secs

     total energy              =     -51.60576629 Ry
     estimated scf accuracy    <       0.00006770 Ry

     iteration #  8     ecut=    80.00 Ry     beta= 0.70
     Davidson diagonalization with overlap
     ethr =  5.21E-07,  avg # of iterations =  2.0

     total cpu time spent up to now is       14.8 secs

     total energy              =     -51.60577845 Ry
     estimated scf accuracy    <       0.00000089 Ry

     iteration #  9     ecut=    80.00 Ry     beta= 0.70
     Davidson diagonalization with overlap
     ethr =  6.85E-09,  avg # of iterations =  1.9

     total cpu time spent up to now is       15.7 secs

     total energy              =     -51.60577834 Ry
     estimated scf accuracy    <       0.00000052 Ry

     iteration # 10     ecut=    80.00 Ry     beta= 0.70
     Davidson diagonalization with overlap
     ethr =  4.00E-09,  avg # of iterations =  2.0

     total cpu time spent up to now is       16.4 secs

     total energy              =     -51.60577832 Ry
     estimated scf accuracy    <       0.00000017 Ry

     iteration # 11     ecut=    80.00 Ry     beta= 0.70
     Davidson diagonalization with overlap
     ethr =  1.31E-09,  avg # of iterations =  2.0

     total cpu time spent up to now is       17.3 secs

     total energy              =     -51.60577832 Ry
     estimated scf accuracy    <       0.00000005 Ry

     iteration # 12     ecut=    80.00 Ry     beta= 0.70
     Davidson diagonalization with overlap
     ethr =  3.97E-10,  avg # of iterations =  2.0

     total cpu time spent up to now is       18.1 secs

     End of self-consistent calculation

          k = 0.0000 0.0000 0.0000 (  2299 PWs)   bands (ev):

   -38.2794 -37.7742 -37.6675  -1.9370   7.9304   8.9396   8.9396  11.0591
    11.1549  11.1549  12.5187

          k =-0.2258-0.0000 0.1247 (  2249 PWs)   bands (ev):

   -38.2569 -37.7698 -37.6893  -1.4341   5.3034   7.1665   8.7856   9.2544
    12.7647  13.6527  14.2109

          k = 0.4516 0.0000-0.2493 (  2238 PWs)   bands (ev):

   -38.2340 -37.7457 -37.7323  -0.6312   3.0683   6.5600   8.4431   9.2211
    11.2955  13.8957  17.2730

          k = 0.0000 0.1290 0.0712 (  2243 PWs)   bands (ev):

   -38.2707 -37.7728 -37.6746  -1.7667   6.9880   7.7008   8.8103  10.0543
    11.8552  12.6461  13.6516

          k =-0.2258 0.1290 0.1959 (  2245 PWs)   bands (ev):

   -38.2461 -37.7728 -37.6955  -1.1517   4.9636   6.2341   7.2283  10.3044
    12.3812  13.3365  15.6045

          k = 0.4516 0.1290-0.1781 (  2244 PWs)   bands (ev):

   -38.2314 -37.7447 -37.7348  -0.4520   3.2268   5.9652   7.3706   9.7753
    11.4104  15.1639  15.3995

          k = 0.2258 0.1290-0.0534 (  2245 PWs)   bands (ev):

   -38.2563 -37.7650 -37.6935  -1.3584   5.7224   6.6979   8.3509   9.9438
    11.6411  11.8883  15.1527

          k = 0.0000 0.2581 0.1425 (  2247 PWs)   bands (ev):

   -38.2519 -37.7678 -37.6955  -1.2938   4.7912   7.0144   8.8217   9.0441
    12.7289  13.7570  14.2439

          k =-0.2258 0.2581 0.2671 (  2242 PWs)   bands (ev):

   -38.2321 -37.7679 -37.7114  -0.5808   4.5071   5.0488   6.1076  10.7207
    12.5026  13.4474  17.3408

          k = 0.4516 0.2581-0.1069 (  2234 PWs)   bands (ev):

   -38.2251 -37.7433 -37.7394   0.0470   3.6245   5.1800   5.5052   9.9730
    12.3146  13.1917  16.6748

          k = 0.2258 0.2581 0.0178 (  2241 PWs)   bands (ev):

   -38.2449 -37.7595 -37.7073  -0.9423   5.2206   6.0507   7.1062  10.1808
    10.8812  11.7864  16.1865

          k = 0.0000 0.3871 0.2137 (  2243 PWs)   bands (ev):

   -38.2363 -37.7529 -37.7233  -0.7391   3.2958   6.6126   8.5114   9.1307
    11.5272  13.8862  16.3628

          k =-0.2258 0.3871 0.3384 (  2238 PWs)   bands (ev):

   -38.2254 -37.7520 -37.7315  -0.0775   3.4693   5.3162   5.7057  10.2726
    12.1530  14.6940  15.7395

          k = 0.4516 0.3871-0.0356 (  2240 PWs)   bands (ev):

   -38.2201 -37.7463 -37.7393   0.6444   3.9142   4.1321   4.9051   9.2674
    12.2922  14.0911  15.7381

          k = 0.2258 0.3871 0.0890 (  2241 PWs)   bands (ev):

   -38.2312 -37.7494 -37.7286  -0.3290   3.9529   5.4235   6.3460   9.9261
    11.7012  12.7436  16.5793

          k = 0.1290-0.1290 0.0000 (  2234 PWs)   bands (ev):

   -38.2672 -37.7689 -37.6806  -1.6572   6.9430   7.3659   8.4727  10.0521
    11.3619  12.3895  13.8948

          k =-0.0968-0.1290 0.1247 (  2245 PWs)   bands (ev):

   -38.2633 -37.7750 -37.6789  -1.6200   6.5449   6.9924   7.9980  10.4655
    11.7498  13.6184  13.9091

          k = 0.5807-0.1290-0.2493 (  2241 PWs)   bands (ev):

   -38.2348 -37.7638 -37.7135  -0.6999   3.7419   6.0596   7.0468  10.0035
    11.8468  14.9224  15.6147

          k = 0.3549-0.1290-0.1247 (  2243 PWs)   bands (ev):

   -38.2390 -37.7542 -37.7187  -0.7750   3.9437   6.1112   7.8729   9.7099
    11.4319  13.5098  15.1283

          k =-0.0968-0.0000 0.1959 (  2242 PWs)   bands (ev):

   -38.2592 -37.7856 -37.6734  -1.6162   5.9255   6.9563   7.6764  10.9917
    12.5398  13.6669  13.9917

          k = 0.5807-0.0000-0.1781 (  2238 PWs)   bands (ev):

   -38.2324 -37.7698 -37.7107  -0.7198   3.4826   5.4366   8.1423   9.9412
    12.9515  14.0868  17.5680

          k = 0.3549-0.0000-0.0534 (  2250 PWs)   bands (ev):

   -38.2446 -37.7524 -37.7165  -0.9999   4.2004   5.8640   9.6273  10.3335
    12.0161  12.6375  13.4391

          k = 0.1290 0.1290 0.1425 (  2249 PWs)   bands (ev):

   -38.2595 -37.7752 -37.6820  -1.5293   6.3437   6.6154   7.7484  10.5610
    11.8243  13.4409  14.4610

          k =-0.0968 0.1290 0.2671 (  2235 PWs)   bands (ev):

   -38.2448 -37.7900 -37.6816  -1.2926   5.0449   6.1882   6.6663  11.8466
    12.7411  14.2479  15.5064

          k = 0.5807 0.1290-0.1069 (  2237 PWs)   bands (ev):

   -38.2264 -37.7696 -37.7155  -0.4241   3.5813   4.7400   6.6261  11.8743
    12.6626  15.0390  16.0043

          k = 0.3549 0.1290 0.0178 (  2244 PWs)   bands (ev):

   -38.2413 -37.7523 -37.7185  -0.8395   4.3378   5.6376   8.1009  10.8229
    11.1967  12.6838  14.2833

          k = 0.1290 0.2581 0.2137 (  2246 PWs)   bands (ev):

   -38.2418 -37.7706 -37.7012  -1.0011   4.5076   6.1685   7.1259  10.1894
    12.2292  13.7902  15.6695

          k =-0.0968 0.2581 0.3384 (  2237 PWs)   bands (ev):

   -38.2310 -37.7810 -37.7013  -0.7573   3.9906   5.0597   6.8204  11.4247
    13.2446  15.3096  15.7277

          k = 0.5807 0.2581-0.0356 (  2242 PWs)   bands (ev):

   -38.2212 -37.7611 -37.7266   0.0837   3.9880   4.4209   4.8623  11.1770
    13.8295  14.8299  16.2067

          k = 0.3549 0.2581 0.0890 (  2241 PWs)   bands (ev):

   -38.2316 -37.7523 -37.7250  -0.3248   4.2466   5.3329   6.1572   9.7592
    11.6273  12.3714  17.1105

          k = 0.1290-0.5161-0.2137 (  2248 PWs)   bands (ev):

   -38.2311 -37.7541 -37.7261  -0.4792   3.2737   5.9824   7.1380   9.8724
    11.5540  15.3712  16.2435

          k =-0.0968-0.5161-0.0890 (  2239 PWs)   bands (ev):

   -38.2286 -37.7569 -37.7259  -0.4352   3.3534   4.8910   7.4995  11.3675
    12.3398  14.0987  15.2609

          k = 0.5807-0.5161-0.4630 (  2235 PWs)   bands (ev):

   -38.2204 -37.7471 -37.7392   0.4311   3.8545   4.4386   4.7335   9.9374
    12.8584  14.3400  15.9587

          k = 0.3549-0.5161-0.3384 (  2239 PWs)   bands (ev):

   -38.2228 -37.7481 -37.7356   0.3442   4.0308   4.3680   5.2455   9.9091
    11.9981  12.6649  15.4915

          k = 0.1290-0.3871-0.1425 (  2244 PWs)   bands (ev):

   -38.2357 -37.7503 -37.7255  -0.6356   3.6181   6.0365   7.6966   9.7147
    11.4035  14.0643  15.1549

          k =-0.0968-0.3871-0.0178 (  2239 PWs)   bands (ev):

   -38.2390 -37.7478 -37.7251  -0.7769   4.0363   5.4048   8.4530  11.1648
    11.5142  13.1494  13.4621

          k = 0.5807-0.3871-0.3918 (  2239 PWs)   bands (ev):

   -38.2250 -37.7491 -37.7330   0.1514   4.0563   4.7625   5.3701   9.6395
    12.1931  12.4339  16.5968

          k = 0.3549-0.3871-0.2671 (  2233 PWs)   bands (ev):

   -38.2215 -37.7468 -37.7380   0.4304   3.8967   4.2324   5.2078  10.1505
    12.0558  13.5200  14.1424

          k = 0.1290-0.2581-0.0712 (  2237 PWs)   bands (ev):

   -38.2518 -37.7630 -37.6990  -1.2247   5.2395   6.5063   8.2902   9.8588
    11.5707  12.1763  15.1939

          k =-0.0968-0.2581 0.0534 (  2242 PWs)   bands (ev):

   -38.2544 -37.7630 -37.6971  -1.3056   5.3171   6.6118   8.7207   9.9586
    11.7397  12.2274  14.5277

          k = 0.5807-0.2581-0.3206 (  2241 PWs)   bands (ev):

   -38.2314 -37.7563 -37.7216  -0.3693   4.2653   5.1232   6.3996   9.8582
    11.4725  12.7945  17.2420

          k = 0.3549-0.2581-0.1959 (  2244 PWs)   bands (ev):

   -38.2288 -37.7535 -37.7266  -0.2097   3.9285   5.1790   6.1499   9.8701
    11.4809  13.1870  16.6349

          k = 0.2581-0.2581 0.0000 (  2246 PWs)   bands (ev):

   -38.2419 -37.7581 -37.7112  -0.8103   5.0710   5.9129   6.7576   9.9925
    11.0674  11.8137  16.3817

          k = 0.0323-0.2581 0.1247 (  2244 PWs)   bands (ev):

   -38.2529 -37.7665 -37.6956  -1.3109   4.9030   7.0034   8.7828   9.2613
    12.5056  13.7080  13.9397

          k = 0.7097-0.2581-0.2493 (  2244 PWs)   bands (ev):

   -38.2352 -37.7694 -37.7075  -0.7351   4.4913   5.4363   6.3873  10.6724
    12.2871  13.5004  16.9301

          k = 0.4839-0.2581-0.1247 (  2235 PWs)   bands (ev):

   -38.2240 -37.7459 -37.7379   0.0954   3.5420   5.1652   5.3534  10.0888
    12.4477  13.6347  16.1482

          k = 0.0323-0.1290 0.1959 (  2242 PWs)   bands (ev):

   -38.2571 -37.7835 -37.6769  -1.5498   5.8101   6.7087   7.6834  10.7173
    12.8730  13.8904  14.1711

          k = 0.7097-0.1290-0.1781 (  2240 PWs)   bands (ev):

   -38.2339 -37.7871 -37.6933  -0.9246   4.4740   5.3757   6.2198  12.1566
    13.5048  14.1262  16.0980

          k = 0.4839-0.1290-0.0534 (  2246 PWs)   bands (ev):

   -38.2291 -37.7488 -37.7330  -0.3824   3.4877   4.8434   7.2301  11.4942
    12.3172  13.9693  14.3123

          k = 0.0323-0.0000 0.2671 (  2237 PWs)   bands (ev):

   -38.2495 -37.7976 -37.6711  -1.4908   5.0259   6.9638   7.0569  11.6910
    11.8519  14.9502  14.9735

          k = 0.7097-0.0000-0.1069 (  2233 PWs)   bands (ev):

   -38.2283 -37.7983 -37.6884  -0.8750   3.9226   4.9159   6.9850  11.4854
    14.8195  15.4544  15.7750

          k = 0.4839-0.0000 0.0178 (  2236 PWs)   bands (ev):

   -38.2313 -37.7499 -37.7307  -0.5599   3.4918   4.6891   8.6504  11.6688
    12.4526  12.9496  14.6576

          k = 0.0323 0.1290 0.3384 (  2244 PWs)   bands (ev):

   -38.2358 -37.8012 -37.6797  -1.1495   4.2820   5.7773   6.8119  11.5962
    13.3197  15.4617  16.1700

          k = 0.7097 0.1290-0.0356 (  2246 PWs)   bands (ev):

   -38.2231 -37.7958 -37.6950  -0.6176   3.7367   4.8951   5.8537  13.1879
    14.7347  14.9843  16.2061

          k = 0.4839 0.1290 0.0890 (  2245 PWs)   bands (ev):

   -38.2294 -37.7489 -37.7327  -0.3904   3.3915   5.0732   7.2385  11.0708
    12.0650  14.4202  14.6085

          k = 0.2581-0.6452-0.2137 (  2237 PWs)   bands (ev):

   -38.2292 -37.7656 -37.7156  -0.4192   4.4685   4.7517   5.8747  10.6734
    12.6987  13.5598  16.6490

          k = 0.0323-0.6452-0.0890 (  2245 PWs)   bands (ev):

   -38.2266 -37.7875 -37.6998  -0.6750   3.8149   4.4453   7.2428  11.4792
    14.4848  14.9518  16.5020

          k = 0.7097-0.6452-0.4630 (  2237 PWs)   bands (ev):

   -38.2221 -37.7784 -37.7108  -0.2921   4.0118   4.4125   5.3382  12.8411
    14.4001  15.1985  15.9857

          k = 0.4839-0.6452-0.3384 (  2238 PWs)   bands (ev):

   -38.2244 -37.7462 -37.7374   0.0799   3.4907   5.3106   5.4011  10.0105
    12.0927  13.9877  15.6469

          k = 0.2581-0.5161-0.1425 (  2235 PWs)   bands (ev):

   -38.2237 -37.7507 -37.7338   0.0817   3.5677   5.0760   5.3280  10.2115
    12.5560  14.1398  15.5547

          k = 0.0323-0.5161-0.0178 (  2238 PWs)   bands (ev):

   -38.2289 -37.7583 -37.7247  -0.4966   3.4674   4.4830   8.2096  11.8196
    12.8655  13.2395  15.0697

          k = 0.7097-0.5161-0.3918 (  2241 PWs)   bands (ev):

   -38.2257 -37.7536 -37.7304  -0.1589   3.4603   5.0104   6.0722  10.8240
    12.4826  14.4518  15.9340

          k = 0.4839-0.5161-0.2671 (  2233 PWs)   bands (ev):

   -38.2202 -37.7439 -37.7415   0.6251   3.8650   4.0961   4.9517  10.2796
    12.0779  13.5111  13.5814

          k = 0.2581-0.3871-0.0712 (  2238 PWs)   bands (ev):

   -38.2293 -37.7493 -37.7298  -0.1901   4.0467   5.2658   5.8956   9.7892
    11.9607  12.5045  16.9017

          k = 0.0323-0.3871 0.0534 (  2250 PWs)   bands (ev):

   -38.2405 -37.7478 -37.7245  -0.8568   3.9189   5.5760   9.3268  10.6080
    11.9416  12.7536  13.7037

          k = 0.7097-0.3871-0.3206 (  2242 PWs)   bands (ev):

   -38.2313 -37.7508 -37.7279  -0.3893   3.5991   5.8395   6.6815   9.6717
    11.3662  13.8537  16.7866

          k = 0.4839-0.3871-0.1959 (  2236 PWs)   bands (ev):

   -38.2201 -37.7432 -37.7424   0.6368   3.8594   4.0830   4.9404  10.1027
    12.4256  13.2467  13.8541

          k = 0.3871-0.3871 0.0000 (  2236 PWs)   bands (ev):

   -38.2222 -37.7484 -37.7354   0.4362   4.1127   4.3638   5.0200   9.1968
    12.1571  13.4180  16.7780

          k = 0.1613-0.3871 0.1247 (  2246 PWs)   bands (ev):

   -38.2345 -37.7499 -37.7265  -0.5537   3.7295   5.8166   7.2681   9.8776
    11.4299  13.5325  15.6755

          k = 0.8387-0.3871-0.2493 (  2247 PWs)   bands (ev):

   -38.2343 -37.7540 -37.7239  -0.6532   3.2432   6.4005   8.0533   9.3253
    11.5508  14.3679  16.5318

          k = 0.6129-0.3871-0.1247 (  2237 PWs)   bands (ev):

   -38.2222 -37.7491 -37.7362   0.2438   3.6765   4.7599   5.0967  10.0916
    13.0075  13.6605  15.3679

          k = 0.1613-0.2581 0.1959 (  2246 PWs)   bands (ev):

   -38.2416 -37.7681 -37.7034  -0.9547   4.6517   5.9880   7.0912  10.1103
    11.9998  13.1986  16.2606

          k = 0.8387-0.2581-0.1781 (  2233 PWs)   bands (ev):

   -38.2333 -37.7809 -37.6995  -0.8504   4.0002   5.2298   7.2604  10.8607
    13.4515  14.9249  15.9087

          k = 0.6129-0.2581-0.0534 (  2238 PWs)   bands (ev):

   -38.2213 -37.7658 -37.7222  -0.0099   4.1392   4.4392   4.7677  11.4855
    14.2140  15.0598  15.8022

          k = 0.1613-0.1290 0.2671 (  2238 PWs)   bands (ev):

   -38.2419 -37.7853 -37.6880  -1.1608   5.0002   5.8859   6.4556  11.8311
    12.9402  13.7789  15.8759

          k = 0.8387-0.1290-0.1069 (  2243 PWs)   bands (ev):

   -38.2290 -37.8054 -37.6817  -0.9779   3.8625   5.6217   6.4074  12.0659
    13.4039  15.8977  17.0014

          k = 0.6129-0.1290 0.0178 (  2249 PWs)   bands (ev):

   -38.2234 -37.7783 -37.7104  -0.3859   3.9122   4.0747   6.3378  13.2414
    13.4225  14.5349  15.8886

          k = 0.1613-0.0000 0.3384 (  2244 PWs)   bands (ev):

   -38.2350 -37.7981 -37.6831  -1.0916   4.2893   5.4452   7.0220  11.3260
    14.0125  15.2752  15.7118

          k = 0.8387-0.0000-0.0356 (  2237 PWs)   bands (ev):

   -38.2244 -37.8173 -37.6751  -0.9695   3.4089   6.0585   6.3793  11.6968
    12.6411  18.3477  18.8012

          k = 0.6129-0.0000 0.0890 (  2235 PWs)   bands (ev):

   -38.2269 -37.7807 -37.7055  -0.6168   3.6612   4.4539   7.5769  11.2394
    14.2601  14.3034  17.2800

          k = 0.1613-0.7742-0.0890 (  2246 PWs)   bands (ev):

   -38.2261 -37.7981 -37.6904  -0.7748   3.8723   5.3452   5.8099  13.0229
    14.0280  14.7893  16.8442

          k = 0.8387-0.7742-0.4630 (  2248 PWs)   bands (ev):

   -38.2240 -37.8097 -37.6824  -0.8498   3.5220   5.4907   6.2750  12.1698
    13.5432  16.8585  17.4625

          k = 0.6129-0.7742-0.3384 (  2235 PWs)   bands (ev):

   -38.2295 -37.7736 -37.7090  -0.6006   3.8026   5.1230   6.5682  11.4266
    12.6287  15.5062  15.8778

          k = 0.1613-0.6452-0.0178 (  2241 PWs)   bands (ev):

   -38.2223 -37.7820 -37.7076  -0.3729   3.9475   4.2986   5.7380  13.3673
    13.9410  15.0710  16.1160

          k = 0.8387-0.6452-0.3918 (  2238 PWs)   bands (ev):

   -38.2274 -37.7856 -37.7005  -0.6807   3.8533   4.5870   7.0287  11.6309
    14.0137  15.0922  16.3467

          k = 0.6129-0.6452-0.2671 (  2233 PWs)   bands (ev):

   -38.2288 -37.7616 -37.7192  -0.3356   4.3044   4.8019   5.9836  10.3400
    12.3221  13.4884  16.4598

          k = 0.3871-0.5161-0.0712 (  2238 PWs)   bands (ev):

   -38.2197 -37.7433 -37.7430   0.6279   3.9517   4.0226   4.8485   9.5667
    12.6291  14.4399  14.8608

          k = 0.1613-0.5161 0.0534 (  2242 PWs)   bands (ev):

   -38.2261 -37.7551 -37.7291  -0.2419   3.5160   4.6687   6.5134  11.5356
    12.7925  14.2855  14.7190

          k = 0.8387-0.5161-0.3206 (  2248 PWs)   bands (ev):

   -38.2318 -37.7560 -37.7243  -0.5709   3.1956   5.7405   8.0509   9.8762
    11.9053  14.2823  16.8032

          k = 0.6129-0.5161-0.1959 (  2239 PWs)   bands (ev):

   -38.2254 -37.7494 -37.7328   0.0619   3.7905   4.9371   5.6916   9.9529
    11.5605  13.2067  15.8182

     the Fermi energy is     7.1235 ev

!    total energy              =     -51.60577833 Ry
     estimated scf accuracy    <          3.0E-09 Ry
     smearing contrib. (-TS)   =      -0.00044472 Ry
     internal energy E=F+TS    =     -51.60533362 Ry

     The total energy is F=E-TS. E is the sum of the following terms:
     one-electron contribution =     -15.45231243 Ry
     hartree contribution      =       8.71533038 Ry
     xc contribution           =     -13.72524643 Ry
     ewald contribution        =     -31.14310514 Ry

     convergence has been achieved in  12 iterations

     Forces acting on atoms (cartesian axes, Ry/au):

     atom    1 type  1   force =    -0.00000000   -0.00000000   -0.00000000
     atom    2 type  2   force =    -0.00000000   -0.00000000    0.00000000
     atom    3 type  2   force =     0.00000000    0.00000000   -0.00000000
     atom    4 type  2   force =    -0.00000000   -0.00000000    0.00000000
     The non-local contrib.  to forces
     atom    1 type  1   force =     0.00000000    0.00000000    0.00000000
     atom    2 type  2   force =    -0.00000000   -0.00000000    0.00000000
     atom    3 type  2   force =    -0.00000000   -0.00000000    0.00000000
     atom    4 type  2   force =     0.00000000    0.00000000    0.00000000
     The ionic contribution  to forces
     atom    1 type  1   force =    -0.00000000   -0.00000000    0.00000000
     atom    2 type  2   force =    -0.00000000   -0.00000000   -0.00000000
     atom    3 type  2   force =    -0.00000000   -0.00000000    0.00000000
     atom    4 type  2   force =    -0.00000000   -0.00000000    0.00000000
     The local contribution  to forces
     atom    1 type  1   force =     0.00000000   -0.00000000    0.00000000
     atom    2 type  2   force =     0.00000000    0.00000000   -0.00000000
     atom    3 type  2   force =     0.00000000    0.00000000   -0.00000000
     atom    4 type  2   force =     0.00000000    0.00000000   -0.00000000
     The core correction contribution to forces
     atom    1 type  1   force =     0.00000000   -0.00000000    0.00000000
     atom    2 type  2   force =     0.00000000    0.00000000    0.00000000
     atom    3 type  2   force =     0.00000000    0.00000000    0.00000000
     atom    4 type  2   force =     0.00000000    0.00000000    0.00000000
     The Hubbard contrib.    to forces
     atom    1 type  1   force =     0.00000000    0.00000000    0.00000000
     atom    2 type  2   force =     0.00000000    0.00000000    0.00000000
     atom    3 type  2   force =     0.00000000    0.00000000    0.00000000
     atom    4 type  2   force =     0.00000000    0.00000000    0.00000000
     The SCF correction term to forces
     atom    1 type  1   force =     0.00000000   -0.00000000    0.00000000
     atom    2 type  2   force =    -0.00000000    0.00000000   -0.00000000
     atom    3 type  2   force =    -0.00000000   -0.00000000    0.00000000
     atom    4 type  2   force =     0.00000000   -0.00000000   -0.00000000

     Total force =     0.000000     Total SCF correction =     0.000000


     Computing stress (Cartesian axis) and pressure

          total   stress  (Ry/bohr**3)                   (kbar)     P=      395.92
   0.00282846   0.00000000   0.00000000          416.08        0.00        0.00
   0.00000000   0.00282846  -0.00000000            0.00      416.08       -0.00
   0.00000000  -0.00000000   0.00241733            0.00       -0.00      355.60

     Energy error            =      7.9E-02 Ry
     Gradient error          =      1.8E-31 Ry/Bohr
     Cell gradient error     =      1.4E+02 kbar

     number of scf cycles    =   2
     number of bfgs steps    =   1

     enthalpy           old  =     -50.6870093535 Ry
     enthalpy           new  =     -50.7658677371 Ry

     CASE: enthalpy          _new < enthalpy          _old

     new trust radius        =       0.0710122488 bohr
ibrav =      7
 celldm(1) =      6.40529250
 celldm(3) =      1.79276603
Input lattice vectors:
     0.54667337    -0.54667337     0.98005744
     0.54667337     0.54667337     0.98005744
    -0.54667337    -0.54667337     0.98005744
New lattice vectors in INITIAL alat:
     0.54667337    -0.54667337     0.98005744
     0.54667337     0.54667337     0.98005744
    -0.54667337    -0.54667337     0.98005744
New lattice vectors in NEW alat (for information only):
     0.50000000    -0.50000000     0.89638301
     0.50000000     0.50000000     0.89638301
    -0.50000000    -0.50000000     0.89638301
Discrepancy in bohr =     0.000000    0.000000    0.000000
     new conv_thr            =            1.0E-10 Ry

     new unit-cell volume =    235.56487 a.u.^3 (    34.90711 Ang^3 )
     density =      2.32659 g/cm^3

CELL_PARAMETERS (alat=  5.85842741)
   0.546673369  -0.546673369   0.980057443
   0.546673369   0.546673369   0.980057443
  -0.546673369  -0.546673369   0.980057443

ATOMIC_POSITIONS (crystal)
Si            0.0000000000       -0.0000000000       -0.0000000000
Li           -0.5000000000        0.7500000000        0.2500000000
Li           -0.5000000000        1.2500000000        0.7500000000
Li            0.0000000000        0.5000000000        0.5000000000



     Writing config-only to output data dir ./output/SiLi.save/
     NEW-OLD atomic charge density approx. for the potential
     extrapolated charge   12.36355, renormalised to   13.00000

     total cpu time spent up to now is       19.2 secs

     Self-consistent Calculation

     iteration #  1     ecut=    80.00 Ry     beta= 0.70
     Davidson diagonalization with overlap
     ethr =  1.00E-06,  avg # of iterations =  6.0

     total cpu time spent up to now is       20.6 secs

     total energy              =     -51.56760487 Ry
     estimated scf accuracy    <       0.00172937 Ry

     iteration #  2     ecut=    80.00 Ry     beta= 0.70
     Davidson diagonalization with overlap
     ethr =  1.33E-05,  avg # of iterations =  2.1

     total cpu time spent up to now is       21.5 secs

     total energy              =     -51.57241826 Ry
     estimated scf accuracy    <       0.00117973 Ry

     iteration #  3     ecut=    80.00 Ry     beta= 0.70
     Davidson diagonalization with overlap
     ethr =  9.07E-06,  avg # of iterations =  1.0

     total cpu time spent up to now is       22.1 secs

     total energy              =     -51.57235727 Ry
     estimated scf accuracy    <       0.00025294 Ry

     iteration #  4     ecut=    80.00 Ry     beta= 0.70
     Davidson diagonalization with overlap
     ethr =  1.95E-06,  avg # of iterations =  1.1

     total cpu time spent up to now is       22.8 secs

     total energy              =     -51.57232661 Ry
     estimated scf accuracy    <       0.00006143 Ry

     iteration #  5     ecut=    80.00 Ry     beta= 0.70
     Davidson diagonalization with overlap
     ethr =  4.73E-07,  avg # of iterations =  2.0

     total cpu time spent up to now is       23.5 secs

     total energy              =     -51.57233623 Ry
     estimated scf accuracy    <       0.00000007 Ry

     iteration #  6     ecut=    80.00 Ry     beta= 0.70
     Davidson diagonalization with overlap
     ethr =  5.43E-10,  avg # of iterations =  3.9

     total cpu time spent up to now is       24.3 secs

     total energy              =     -51.57233632 Ry
     estimated scf accuracy    <       0.00000004 Ry

     iteration #  7     ecut=    80.00 Ry     beta= 0.70
     Davidson diagonalization with overlap
     ethr =  2.78E-10,  avg # of iterations =  2.0

     total cpu time spent up to now is       25.0 secs

     total energy              =     -51.57233632 Ry
     estimated scf accuracy    <          1.5E-09 Ry

     iteration #  8     ecut=    80.00 Ry     beta= 0.70
     Davidson diagonalization with overlap
     ethr =  1.17E-11,  avg # of iterations =  2.0

     total cpu time spent up to now is       25.7 secs

     total energy              =     -51.57233632 Ry
     estimated scf accuracy    <          1.5E-09 Ry

     iteration #  9     ecut=    80.00 Ry     beta= 0.70
     Davidson diagonalization with overlap
     ethr =  1.15E-11,  avg # of iterations =  2.0

     total cpu time spent up to now is       26.3 secs

     End of self-consistent calculation

          k = 0.0000 0.0000 0.0000 (  2299 PWs)   bands (ev):

   -37.8134 -37.2935 -37.1852  -1.5957   8.5565   9.4782   9.4782  11.4847
    11.5987  11.5987  13.0703

          k =-0.2287-0.0000 0.1275 (  2249 PWs)   bands (ev):

   -37.7832 -37.2936 -37.2102  -1.0930   5.7123   7.6889   9.2653   9.7538
    13.2911  14.2809  14.7351

          k = 0.4573 0.0000-0.2551 (  2238 PWs)   bands (ev):

   -37.7514 -37.2748 -37.2561  -0.2878   3.4340   7.0476   8.9181   9.7081
    11.7105  14.6033  17.9595

          k = 0.0000 0.1307 0.0729 (  2243 PWs)   bands (ev):

   -37.8020 -37.2941 -37.1935  -1.4256   7.4561   8.2553   9.3140  10.5507
    12.3518  13.1819  14.2682

          k =-0.2287 0.1307 0.2004 (  2245 PWs)   bands (ev):

   -37.7684 -37.2992 -37.2175  -0.8073   5.3569   6.6775   7.6918  10.8698
    12.9012  13.8998  16.2967

          k = 0.4573 0.1307-0.1822 (  2244 PWs)   bands (ev):

   -37.7479 -37.2735 -37.2596  -0.1056   3.5924   6.3954   7.7894  10.3690
    11.9161  15.8217  16.0953

          k = 0.2287 0.1307-0.0547 (  2245 PWs)   bands (ev):

   -37.7824 -37.2883 -37.2149  -1.0182   6.1350   7.1250   8.9033  10.5521
    12.1517  12.4144  15.7594

          k = 0.0000 0.2613 0.1458 (  2247 PWs)   bands (ev):

   -37.7763 -37.2925 -37.2172  -0.9525   5.1885   7.5266   9.2975   9.5397
    13.2248  14.4052  14.8072

          k =-0.2287 0.2613 0.2733 (  2242 PWs)   bands (ev):

   -37.7489 -37.2967 -37.2357  -0.2301   4.8841   5.4306   6.5383  11.3372
    13.0877  14.0414  18.1098

          k = 0.4573 0.2613-0.1093 (  2234 PWs)   bands (ev):

   -37.7394 -37.2716 -37.2664   0.4024   3.9888   5.5468   5.8988  10.5694
    13.0056  13.8191  17.4486

          k = 0.2287 0.2613 0.0182 (  2241 PWs)   bands (ev):

   -37.7669 -37.2846 -37.2305  -0.6004   5.6025   6.4328   7.6258  10.7045
    11.5593  12.3328  16.9433

          k = 0.0000 0.3920 0.2186 (  2243 PWs)   bands (ev):

   -37.7547 -37.2807 -37.2475  -0.3962   3.6652   7.1025   8.9894   9.6118
    11.9540  14.5866  17.0349

          k =-0.2287 0.3920 0.3462 (  2238 PWs)   bands (ev):

   -37.7397 -37.2809 -37.2581   0.2780   3.8286   5.7127   6.0883  10.8787
    12.7781  15.3692  16.4735

          k = 0.4573 0.3920-0.0364 (  2240 PWs)   bands (ev):

   -37.7325 -37.2757 -37.2666   1.0130   4.2780   4.4961   5.2429   9.8609
    12.9297  14.8713  16.5511

          k = 0.2287 0.3920 0.0911 (  2241 PWs)   bands (ev):

   -37.7479 -37.2767 -37.2545   0.0190   4.3273   5.7938   6.7736  10.5086
    12.3745  13.3398  17.2773

          k = 0.1307-0.1307 0.0000 (  2234 PWs)   bands (ev):

   -37.7973 -37.2904 -37.2003  -1.3170   7.3741   7.8522   9.0408  10.6396
    11.8387  12.9526  14.4509

          k =-0.0980-0.1307 0.1275 (  2245 PWs)   bands (ev):

   -37.7921 -37.2980 -37.1985  -1.2779   7.0104   7.4453   8.5148  11.0062
    12.2298  14.1738  14.5018

          k = 0.5880-0.1307-0.2551 (  2241 PWs)   bands (ev):

   -37.7526 -37.2921 -37.2376  -0.3530   4.1106   6.5130   7.4589  10.5796
    12.3510  15.5803  16.3221

          k = 0.3593-0.1307-0.1275 (  2243 PWs)   bands (ev):

   -37.7585 -37.2804 -37.2432  -0.4324   4.3252   6.5255   8.3396  10.3023
    11.9594  14.1083  15.7706

          k =-0.0980-0.0000 0.2004 (  2242 PWs)   bands (ev):

   -37.7865 -37.3106 -37.1924  -1.2706   6.4347   7.3866   8.0940  11.4690
    13.0519  14.2802  14.6295

          k = 0.5880 0.0000-0.1822 (  2238 PWs)   bands (ev):

   -37.7493 -37.2998 -37.2343  -0.3702   3.8476   5.8866   8.5563  10.4439
    13.4613  14.8289  18.2672

          k = 0.3593 0.0000-0.0547 (  2250 PWs)   bands (ev):

   -37.7661 -37.2770 -37.2408  -0.6602   4.6034   6.2761  10.1511  10.9624
    12.4677  13.2337  13.9642

          k = 0.1307 0.1307 0.1458 (  2249 PWs)   bands (ev):

   -37.7868 -37.2990 -37.2020  -1.1868   6.8148   7.0274   8.2634  11.1258
    12.3017  13.9836  15.0747

          k =-0.0980 0.1307 0.2733 (  2235 PWs)   bands (ev):

   -37.7666 -37.3189 -37.2020  -0.9427   5.5089   6.5806   7.0617  12.3820
    13.2580  14.8697  16.2156

          k = 0.5880 0.1307-0.1093 (  2237 PWs)   bands (ev):

   -37.7409 -37.3007 -37.2402  -0.0674   3.9438   5.1484   7.0127  12.5005
    13.2043  15.7781  16.6626

          k = 0.3593 0.1307 0.0182 (  2244 PWs)   bands (ev):

   -37.7617 -37.2774 -37.2431  -0.4980   4.7387   6.0249   8.5800  11.3991
    11.8621  13.2149  14.8619

          k = 0.1307 0.2613 0.2186 (  2246 PWs)   bands (ev):

   -37.7624 -37.2978 -37.2239  -0.6558   4.8901   6.6173   7.5687  10.7564
    12.7432  14.3859  16.3741

          k =-0.0980 0.2613 0.3462 (  2237 PWs)   bands (ev):

   -37.7473 -37.3122 -37.2244  -0.4029   4.3646   5.4863   7.2060  11.9728
    13.8197  16.0631  16.3420

          k = 0.5880 0.2613-0.0364 (  2242 PWs)   bands (ev):

   -37.7337 -37.2914 -37.2535   0.4500   4.3497   4.7928   5.2299  11.7950
    14.4909  15.5678  16.9189

          k = 0.3593 0.2613 0.0911 (  2241 PWs)   bands (ev):

   -37.7485 -37.2797 -37.2505   0.0232   4.6185   5.6998   6.5875  10.3377
    12.3084  12.9655  17.8754

          k = 0.1307-0.5226-0.2186 (  2248 PWs)   bands (ev):

   -37.7474 -37.2829 -37.2510  -0.1314   3.6367   6.4273   7.5432  10.4598
    12.0537  16.0673  16.9473

          k =-0.0980-0.5226-0.0911 (  2239 PWs)   bands (ev):

   -37.7440 -37.2866 -37.2510  -0.0840   3.7222   5.2966   7.9072  11.9821
    12.8736  14.7981  15.8808

          k = 0.5880-0.5226-0.4737 (  2235 PWs)   bands (ev):

   -37.7329 -37.2755 -37.2677   0.7986   4.2173   4.8052   5.0855  10.5389
    13.4971  15.1156  16.7695

          k = 0.3593-0.5226-0.3462 (  2239 PWs)   bands (ev):

   -37.7362 -37.2768 -37.2627   0.7039   4.3912   4.7373   5.6101  10.5223
    12.6872  13.3023  16.2479

          k = 0.1307-0.3920-0.1458 (  2244 PWs)   bands (ev):

   -37.7538 -37.2771 -37.2506  -0.2918   3.9931   6.4545   8.1440  10.3081
    11.9240  14.6853  15.8125

          k =-0.0980-0.3920-0.0182 (  2239 PWs)   bands (ev):

   -37.7586 -37.2729 -37.2507  -0.4352   4.4360   5.7942   8.9213  11.8028
    12.1341  13.6769  14.0099

          k = 0.5880-0.3920-0.4009 (  2239 PWs)   bands (ev):

   -37.7392 -37.2776 -37.2596   0.5073   4.4185   5.1357   5.7463  10.2334
    12.8992  13.0562  17.3936

          k = 0.3593-0.3920-0.2733 (  2233 PWs)   bands (ev):

   -37.7344 -37.2753 -37.2659   0.7930   4.2559   4.5974   5.5708  10.7787
    12.7367  14.1869  14.8396

          k = 0.1307-0.2613-0.0729 (  2237 PWs)   bands (ev):

   -37.7763 -37.2870 -37.2212  -0.8842   5.6445   6.9246   8.8248  10.4590
    12.0952  12.7121  15.8098

          k =-0.0980-0.2613 0.0547 (  2242 PWs)   bands (ev):

   -37.7798 -37.2865 -37.2190  -0.9657   5.7310   7.0390   9.2613  10.5758
    12.2454  12.7549  15.1125

          k = 0.5880-0.2613-0.3280 (  2241 PWs)   bands (ev):

   -37.7481 -37.2841 -37.2470  -0.0207   4.6352   5.4993   6.8264  10.4734
    12.0795  13.4003  18.0366

          k = 0.3593-0.2613-0.2004 (  2244 PWs)   bands (ev):

   -37.7445 -37.2815 -37.2525   0.1410   4.2939   5.5544   6.5624  10.4881
    12.0902  13.8163  17.4071

          k = 0.2613-0.2613 0.0000 (  2246 PWs)   bands (ev):

   -37.7627 -37.2838 -37.2348  -0.4674   5.4457   6.2858   7.2644  10.5177
    11.7629  12.3716  17.1548

          k = 0.0327-0.2613 0.1275 (  2244 PWs)   bands (ev):

   -37.7777 -37.2909 -37.2173  -0.9701   5.3041   7.4969   9.2759   9.7818
    13.0025  14.3014  14.5353

          k = 0.7186-0.2613-0.2551 (  2244 PWs)   bands (ev):

   -37.7533 -37.2978 -37.2313  -0.3864   4.8694   5.8340   6.8268  11.2873
    12.8305  14.0952  17.6593

          k = 0.4900-0.2613-0.1275 (  2235 PWs)   bands (ev):

   -37.7379 -37.2744 -37.2652   0.4530   3.9026   5.5421   5.7346  10.6904
    13.1277  14.2795  16.9138

          k = 0.0327-0.1307 0.2004 (  2242 PWs)   bands (ev):

   -37.7835 -37.3089 -37.1964  -1.2045   6.2826   7.1666   8.1049  11.1999
    13.4084  14.4894  14.8150

          k = 0.7186-0.1307-0.1822 (  2240 PWs)   bands (ev):

   -37.7515 -37.3182 -37.2154  -0.5705   4.8885   5.7721   6.6017  12.7290
    14.0956  14.6755  16.8674

          k = 0.4900-0.1307-0.0547 (  2246 PWs)   bands (ev):

   -37.7447 -37.2776 -37.2587  -0.0323   3.8643   5.2327   7.6407  12.1130
    12.9491  14.5956  14.9031

          k = 0.0327 0.0000 0.2733 (  2237 PWs)   bands (ev):

   -37.7731 -37.3263 -37.1902  -1.1401   5.5165   7.3471   7.4402  12.1949
    12.3551  15.6371  15.6539

          k = 0.7186 0.0000-0.1093 (  2233 PWs)   bands (ev):

   -37.7434 -37.3325 -37.2100  -0.5141   4.3354   5.2852   7.3513  12.0063
    15.3878  16.2680  16.4005

          k = 0.4900 0.0000 0.0182 (  2236 PWs)   bands (ev):

   -37.7478 -37.2789 -37.2556  -0.2127   3.8772   5.0809   9.0782  12.2084
    13.1764  13.5127  15.1940

          k = 0.0327 0.1307 0.3462 (  2244 PWs)   bands (ev):

   -37.7539 -37.3337 -37.2000  -0.7928   4.7257   6.1475   7.1807  12.1132
    13.8530  16.2180  16.8770

          k = 0.7186 0.1307-0.0364 (  2246 PWs)   bands (ev):

   -37.7360 -37.3307 -37.2177  -0.2509   4.1364   5.2533   6.2158  13.7366
    15.3442  15.6364  17.0087

          k = 0.4900 0.1307 0.0911 (  2245 PWs)   bands (ev):

   -37.7451 -37.2777 -37.2582  -0.0408   3.7629   5.4730   7.6498  11.6926
    12.6365  15.0788  15.2254

          k = 0.2613-0.6533-0.2186 (  2237 PWs)   bands (ev):

   -37.7450 -37.2948 -37.2406  -0.0662   4.8432   5.1250   6.2939  11.2866
    13.3234  14.1617  17.3939

          k = 0.0327-0.6533-0.0911 (  2245 PWs)   bands (ev):

   -37.7410 -37.3207 -37.2227  -0.3150   4.1929   4.8406   7.6196  12.0014
    15.1549  15.6766  17.1049

          k = 0.7186-0.6533-0.4737 (  2237 PWs)   bands (ev):

   -37.7348 -37.3110 -37.2356   0.0739   4.3948   4.7782   5.7052  13.4808
    15.0210  15.8835  16.6973

          k = 0.4900-0.6533-0.3462 (  2238 PWs)   bands (ev):

   -37.7383 -37.2747 -37.2645   0.4366   3.8496   5.6971   5.7776  10.6171
    12.7444  14.6512  16.3905

          k = 0.2613-0.5226-0.1458 (  2235 PWs)   bands (ev):

   -37.7373 -37.2795 -37.2609   0.4404   3.9263   5.4597   5.7040  10.8166
    13.2244  14.8030  16.2937

          k = 0.0327-0.5226-0.0182 (  2238 PWs)   bands (ev):

   -37.7443 -37.2884 -37.2496  -0.1457   3.8461   4.8747   8.6211  12.3495
    13.6082  13.8293  15.6209

          k = 0.7186-0.5226-0.4009 (  2241 PWs)   bands (ev):

   -37.7400 -37.2829 -37.2567   0.1966   3.8232   5.4033   6.4604  11.4309
    13.1209  15.0948  16.6182

          k = 0.4900-0.5226-0.2733 (  2233 PWs)   bands (ev):

   -37.7326 -37.2724 -37.2699   0.9918   4.2241   4.4601   5.3012  10.9120
    12.7721  14.1854  14.2649

          k = 0.2613-0.3920-0.0729 (  2238 PWs)   bands (ev):

   -37.7453 -37.2769 -37.2559   0.1600   4.4186   5.6268   6.3144  10.3686
    12.6644  13.1056  17.6393

          k = 0.0327-0.3920 0.0547 (  2250 PWs)   bands (ev):

   -37.7605 -37.2728 -37.2498  -0.5160   4.3160   5.9816   9.8198  11.2377
    12.4311  13.3525  14.2400

          k = 0.7186-0.3920-0.3280 (  2242 PWs)   bands (ev):

   -37.7479 -37.2784 -37.2535  -0.0419   3.9662   6.2342   7.1074  10.2756
    11.9338  14.4932  17.4730

          k = 0.4900-0.3920-0.2004 (  2236 PWs)   bands (ev):

   -37.7324 -37.2716 -37.2708   1.0042   4.2184   4.4467   5.2886  10.7277
    13.1350  13.9171  14.5431

          k = 0.3920-0.3920 0.0000 (  2236 PWs)   bands (ev):

   -37.7353 -37.2776 -37.2623   0.7984   4.4614   4.7600   5.3582   9.7827
    12.7863  14.1837  17.6275

          k = 0.1633-0.3920 0.1275 (  2246 PWs)   bands (ev):

   -37.7523 -37.2767 -37.2519  -0.2089   4.1051   6.2160   7.7096  10.4743
    12.0022  14.1415  16.3309

          k = 0.8493-0.3920-0.2551 (  2247 PWs)   bands (ev):

   -37.7519 -37.2823 -37.2483  -0.3086   3.6093   6.8785   8.4851   9.8540
    12.0057  15.0678  17.2302

          k = 0.6206-0.3920-0.1275 (  2237 PWs)   bands (ev):

   -37.7352 -37.2777 -37.2639   0.6059   4.0348   5.1345   5.4645  10.6969
    13.7151  14.3129  16.1116

          k = 0.1633-0.2613 0.2004 (  2246 PWs)   bands (ev):

   -37.7622 -37.2949 -37.2264  -0.6099   5.0353   6.4041   7.5610  10.7001
    12.5193  13.7816  16.9584

          k = 0.8493-0.2613-0.1822 (  2233 PWs)   bands (ev):

   -37.7506 -37.3116 -37.2222  -0.4980   4.3746   5.6694   7.6526  11.3807
    14.0263  15.6645  16.5168

          k = 0.6206-0.2613-0.0547 (  2238 PWs)   bands (ev):

   -37.7339 -37.2966 -37.2486   0.3564   4.5025   4.8147   5.1341  12.1072
    14.8907  15.7648  16.5306

          k = 0.1633-0.1307 0.2733 (  2238 PWs)   bands (ev):

   -37.7627 -37.3143 -37.2092  -0.8113   5.4403   6.2819   6.8629  12.4106
    13.4695  14.3327  16.5987

          k = 0.8493-0.1307-0.1093 (  2243 PWs)   bands (ev):

   -37.7443 -37.3402 -37.2026  -0.6157   4.2867   5.9812   6.7670  12.6009
    13.9439  16.6420  17.7647

          k = 0.6206-0.1307 0.0182 (  2249 PWs)   bands (ev):

   -37.7366 -37.3109 -37.2348  -0.0228   4.2790   4.4605   6.7139  13.7786
    14.0846  15.3130  16.5182

          k = 0.1633 0.0000 0.3462 (  2244 PWs)   bands (ev):

   -37.7528 -37.3304 -37.2039  -0.7355   4.7235   5.8231   7.3943  11.8365
    14.5574  16.0686  16.3458

          k = 0.8493-0.0000-0.0364 (  2237 PWs)   bands (ev):

   -37.7376 -37.3551 -37.1953  -0.6011   3.8215   6.4046   6.7239  12.2448
    13.1862  19.2131  19.5738

          k = 0.6206-0.0000 0.0911 (  2235 PWs)   bands (ev):

   -37.7415 -37.3133 -37.2289  -0.2589   4.0276   4.8617   7.9618  11.7604
    14.8402  15.0837  17.9222

          k = 0.1633-0.7840-0.0911 (  2246 PWs)   bands (ev):

   -37.7403 -37.3326 -37.2125  -0.4114   4.2840   5.7071   6.1725  13.5764
    14.5725  15.4730  17.6633

          k = 0.8493-0.7840-0.4737 (  2248 PWs)   bands (ev):

   -37.7370 -37.3464 -37.2034  -0.4822   3.9305   5.8430   6.6275  12.7145
    14.0940  17.6241  18.2709

          k = 0.6206-0.7840-0.3462 (  2235 PWs)   bands (ev):

   -37.7452 -37.3043 -37.2330  -0.2466   4.1687   5.5500   6.9551  12.0250
    13.1645  16.2519  16.5352

          k = 0.1633-0.6533-0.0182 (  2241 PWs)   bands (ev):

   -37.7351 -37.3151 -37.2320  -0.0071   4.3357   4.6606   6.1067  13.9951
    14.5362  15.8280  16.7983

          k = 0.8493-0.6533-0.4009 (  2238 PWs)   bands (ev):

   -37.7422 -37.3184 -37.2236  -0.3220   4.2292   4.9896   7.4077  12.1592
    14.6451  15.8443  16.9519

          k = 0.6206-0.6533-0.2733 (  2233 PWs)   bands (ev):

   -37.7445 -37.2904 -37.2447   0.0168   4.6733   5.1773   6.4013  10.9533
    12.9420  14.1056  17.2069

          k = 0.3920-0.5226-0.0729 (  2238 PWs)   bands (ev):

   -37.7318 -37.2721 -37.2712   0.9980   4.3259   4.3709   5.1928  10.1674
    13.2719  15.2588  15.5893

          k = 0.1633-0.5226 0.0547 (  2242 PWs)   bands (ev):

   -37.7406 -37.2847 -37.2550   0.1132   3.8858   5.0540   6.9075  12.1493
    13.4624  14.8965  15.3579

          k = 0.8493-0.5226-0.3280 (  2248 PWs)   bands (ev):

   -37.7483 -37.2852 -37.2488  -0.2237   3.5600   6.1880   8.4752  10.4201
    12.3883  14.9904  17.4895

          k = 0.6206-0.5226-0.2004 (  2239 PWs)   bands (ev):

   -37.7398 -37.2777 -37.2596   0.4166   4.1520   5.3085   6.0810  10.5735
    12.1991  13.8504  16.5707

     the Fermi energy is     7.5613 ev

!    total energy              =     -51.57233632 Ry
     estimated scf accuracy    <          1.9E-11 Ry
     smearing contrib. (-TS)   =      -0.00040648 Ry
     internal energy E=F+TS    =     -51.57192984 Ry

     The total energy is F=E-TS. E is the sum of the following terms:
     one-electron contribution =     -14.74771105 Ry
     hartree contribution      =       8.60628217 Ry
     xc contribution           =     -13.78679931 Ry
     ewald contribution        =     -31.64370165 Ry

     convergence has been achieved in   9 iterations

     Forces acting on atoms (cartesian axes, Ry/au):

     atom    1 type  1   force =     0.00000000    0.00000000   -0.00000000
     atom    2 type  2   force =    -0.00000000   -0.00000000    0.00000000
     atom    3 type  2   force =     0.00000000    0.00000000    0.00000000
     atom    4 type  2   force =     0.00000000    0.00000000   -0.00000000
     The non-local contrib.  to forces
     atom    1 type  1   force =     0.00000000   -0.00000000    0.00000000
     atom    2 type  2   force =     0.00000000    0.00000000    0.00000000
     atom    3 type  2   force =     0.00000000    0.00000000    0.00000000
     atom    4 type  2   force =     0.00000000   -0.00000000    0.00000000
     The ionic contribution  to forces
     atom    1 type  1   force =     0.00000000   -0.00000000    0.00000000
     atom    2 type  2   force =    -0.00000000    0.00000000    0.00000000
     atom    3 type  2   force =     0.00000000   -0.00000000   -0.00000000
     atom    4 type  2   force =     0.00000000    0.00000000    0.00000000
     The local contribution  to forces
     atom    1 type  1   force =    -0.00000000   -0.00000000    0.00000000
     atom    2 type  2   force =    -0.00000000    0.00000000   -0.00000000
     atom    3 type  2   force =    -0.00000000    0.00000000   -0.00000000
     atom    4 type  2   force =    -0.00000000    0.00000000   -0.00000000
     The core correction contribution to forces
     atom    1 type  1   force =    -0.00000000    0.00000000    0.00000000
     atom    2 type  2   force =     0.00000000    0.00000000    0.00000000
     atom    3 type  2   force =     0.00000000    0.00000000    0.00000000
     atom    4 type  2   force =     0.00000000    0.00000000    0.00000000
     The Hubbard contrib.    to forces
     atom    1 type  1   force =     0.00000000    0.00000000    0.00000000
     atom    2 type  2   force =     0.00000000    0.00000000    0.00000000
     atom    3 type  2   force =     0.00000000    0.00000000    0.00000000
     atom    4 type  2   force =     0.00000000    0.00000000    0.00000000
     The SCF correction term to forces
     atom    1 type  1   force =    -0.00000000    0.00000000   -0.00000000
     atom    2 type  2   force =    -0.00000000   -0.00000000    0.00000000
     atom    3 type  2   force =     0.00000000   -0.00000000   -0.00000000
     atom    4 type  2   force =     0.00000000   -0.00000000   -0.00000000

     Total force =     0.000000     Total SCF correction =     0.000000


     Computing stress (Cartesian axis) and pressure

[...]

   -37.4661 -37.0164 -36.9939  -0.0156   3.7835   7.2220   7.2858  11.1910
    12.2234  15.4200  16.9031

          k = 0.2141 0.1224-0.0638 (  2771 PWs)   bands (ev):

   -37.5132 -37.0038 -36.9635  -0.9097   6.5579   7.3543   8.7782  11.6882
    12.4926  14.1676  14.7469

          k =-0.0000 0.2447 0.1703 (  2782 PWs)   bands (ev):

   -37.5036 -37.0066 -36.9695  -0.7689   5.2952   8.5644   8.6630  11.5234
    11.7616  14.2569  15.4179

          k =-0.2141 0.2447 0.3192 (  2777 PWs)   bands (ev):

   -37.4663 -37.0145 -36.9954  -0.0374   4.6317   5.4404   7.4730  11.9925
    13.5137  14.6375  17.3513

          k = 0.4283 0.2447-0.1277 (  2778 PWs)   bands (ev):

   -37.4551 -37.0237 -36.9963   0.2755   4.3652   5.6895   6.0306  11.3333
    14.2710  15.2744  17.5959

          k = 0.2141 0.2447 0.0213 (  2784 PWs)   bands (ev):

   -37.4936 -37.0132 -36.9718  -0.5922   6.3516   6.4753   7.3129  11.1736
    12.3454  15.7463  16.1804

          k =-0.0000 0.3671 0.2554 (  2793 PWs)   bands (ev):

   -37.4750 -37.0157 -36.9866  -0.2285   3.7827   8.3668   8.5282  10.5353
    10.7223  14.5346  18.2547

          k =-0.2141 0.3671 0.4044 (  2783 PWs)   bands (ev):

   -37.4546 -37.0171 -37.0035   0.2972   3.9767   5.7017   6.5326  11.5595
    14.0223  16.1190  17.2758

          k = 0.4283 0.3671-0.0426 (  2778 PWs)   bands (ev):

   -37.4455 -37.0355 -36.9930   0.5881   4.4541   5.2292   5.4068  10.6952
    13.2258  18.7192  19.5107

          k = 0.2141 0.3671 0.1064 (  2779 PWs)   bands (ev):

   -37.4673 -37.0210 -36.9879  -0.0536   4.7739   6.1881   6.4548  11.2592
    13.6414  14.9964  16.8114

          k = 0.1224-0.1224 0.0000 (  2766 PWs)   bands (ev):

   -37.5319 -36.9964 -36.9541  -1.1682   7.9292   7.9912   9.1406  11.7087
    12.7719  13.6664  13.7955

          k =-0.0918-0.1224 0.1490 (  2778 PWs)   bands (ev):

   -37.5233 -37.0000 -36.9583  -1.0582   7.0062   7.5663   9.7118  12.0409
    12.7515  13.0642  14.2775

          k = 0.5506-0.1224-0.2980 (  2784 PWs)   bands (ev):

   -37.4716 -37.0153 -36.9899  -0.1581   4.0966   6.7643   7.9727  11.6729
    11.7928  15.5554  16.2238

          k = 0.3365-0.1224-0.1490 (  2779 PWs)   bands (ev):

   -37.4814 -37.0137 -36.9826  -0.3654   4.6224   7.0618   7.9094  11.1364
    13.0112  14.5588  15.3813

          k =-0.0918 0.0000 0.2341 (  2783 PWs)   bands (ev):

   -37.5136 -37.0057 -36.9615  -0.9258   6.6078   7.4254   8.6603  11.6384
    12.5313  14.3383  14.7465

          k = 0.5506-0.0000-0.2128 (  2785 PWs)   bands (ev):

   -37.4662 -37.0179 -36.9924  -0.0320   3.7993   7.1329   7.3721  11.1805
    12.3515  15.3771  17.0860

          k = 0.3365 0.0000-0.0638 (  2780 PWs)   bands (ev):

   -37.4921 -37.0087 -36.9779  -0.5707   5.1996   6.6804   8.9649  11.8707
    12.4259  13.9757  15.2499

          k = 0.1224 0.1224 0.1703 (  2780 PWs)   bands (ev):

   -37.5164 -37.0026 -36.9619  -0.9618   6.7157   7.1234   9.6013  12.3003
    12.4777  12.9511  14.7580

          k =-0.0918 0.1224 0.3192 (  2787 PWs)   bands (ev):

   -37.4869 -37.0161 -36.9753  -0.4939   5.6103   6.2475   7.6915  11.9225
    13.0231  14.0205  16.3804

          k = 0.5506 0.1224-0.1277 (  2776 PWs)   bands (ev):

   -37.4548 -37.0164 -37.0042   0.2721   3.9728   5.8312   6.3694  12.6051
    12.9658  16.7815  17.1048

          k = 0.3365 0.1224 0.0213 (  2776 PWs)   bands (ev):

   -37.4865 -37.0127 -36.9789  -0.4652   5.5167   6.1897   7.8535  11.8324
    13.0117  14.0371  16.0660

          k = 0.1224 0.2447 0.2554 (  2780 PWs)   bands (ev):

   -37.4845 -37.0126 -36.9809  -0.4343   4.8076   6.7062   8.5119  11.7251
    12.1741  14.6963  15.5471

          k =-0.0918 0.2447 0.4044 (  2782 PWs)   bands (ev):

   -37.4624 -37.0198 -36.9939   0.0483   4.1773   6.1768   6.7766  12.0447
    13.1313  15.4543  16.7037

          k = 0.5506 0.2447-0.0426 (  2779 PWs)   bands (ev):

   -37.4455 -37.0221 -37.0068   0.5792   4.5126   4.9284   5.3528  12.2476
    14.6130  15.6136  17.4654

          k = 0.3365 0.2447 0.1064 (  2781 PWs)   bands (ev):

   -37.4683 -37.0220 -36.9859  -0.0775   5.0459   5.9943   6.4115  11.2236
    13.2611  15.3422  17.1786

          k = 0.1224-0.4894-0.2554 (  2785 PWs)   bands (ev):

   -37.4649 -37.0163 -36.9950   0.0131   3.7218   6.9545   7.5415  11.4091
    11.8873  15.5172  17.8827

          k =-0.0918-0.4894-0.1064 (  2780 PWs)   bands (ev):

   -37.4602 -37.0148 -37.0008   0.1244   4.0112   5.9856   6.9600  12.3973
    12.6201  15.9824  16.6540

          k = 0.5506-0.4894-0.5534 (  2783 PWs)   bands (ev):

   -37.4455 -37.0307 -36.9979   0.5869   4.4920   5.0272   5.4305  11.2447
    13.7131  17.3685  19.0440

          k = 0.3365-0.4894-0.4044 (  2770 PWs)   bands (ev):

   -37.4508 -37.0244 -36.9994   0.4124   4.5921   5.1915   5.6566  11.9827
    14.0601  14.9454  18.6174

          k = 0.1224-0.3671-0.1703 (  2784 PWs)   bands (ev):

   -37.4748 -37.0151 -36.9871  -0.2256   4.2621   7.0832   7.6793  11.1138
    12.7159  15.0795  15.6283

          k =-0.0918-0.3671-0.0213 (  2774 PWs)   bands (ev):

   -37.4821 -37.0123 -36.9832  -0.3823   5.2275   6.0025   7.9709  12.2256
    13.2928  13.4105  16.2449

          k = 0.5506-0.3671-0.4682 (  2777 PWs)   bands (ev):

   -37.4553 -37.0271 -36.9926   0.2680   4.7708   5.4705   5.7789  11.2863
    13.5073  15.8539  18.3888

          k = 0.3365-0.3671-0.3192 (  2770 PWs)   bands (ev):

   -37.4480 -37.0142 -37.0122   0.5159   4.4052   4.8769   5.8163  12.5805
    14.2298  15.7283  16.2945

          k = 0.1224-0.2447-0.0851 (  2779 PWs)   bands (ev):

   -37.5052 -37.0066 -36.9679  -0.7888   6.0244   7.2243   8.5960  11.4833
    12.8993  13.9591  14.9466

          k =-0.0918-0.2447 0.0638 (  2773 PWs)   bands (ev):

   -37.5099 -37.0046 -36.9658  -0.8607   6.1971   7.3400   8.9247  11.6225
    12.8891  13.7659  14.6779

          k = 0.5506-0.2447-0.3831 (  2779 PWs)   bands (ev):

   -37.4670 -37.0175 -36.9917  -0.0462   4.7166   5.7053   7.0002  12.2118
    13.3031  14.0832  17.3530

          k = 0.3365-0.2447-0.2341 (  2775 PWs)   bands (ev):

   -37.4619 -37.0176 -36.9962   0.0869   4.4128   5.7189   6.7607  12.2750
    13.1567  14.6857  17.4243

          k = 0.2447-0.2447 0.0000 (  2782 PWs)   bands (ev):

   -37.4880 -37.0159 -36.9741  -0.4903   6.2537   6.3200   6.9325  11.0326
    12.4131  16.1048  16.5627

          k = 0.0306-0.2447 0.1490 (  2775 PWs)   bands (ev):

   -37.5060 -37.0057 -36.9683  -0.8047   5.4670   8.2431   8.9464  11.4875
    12.0995  14.2619  14.7496

          k = 0.6730-0.2447-0.2980 (  2783 PWs)   bands (ev):

   -37.4722 -37.0144 -36.9903  -0.1764   4.6872   5.7987   7.8103  12.0679
    12.8953  14.5770  16.7198

          k = 0.4588-0.2447-0.1490 (  2779 PWs)   bands (ev):

   -37.4525 -37.0221 -37.0003   0.3568   4.1928   5.5104   6.1247  11.4284
    14.8525  15.0336  17.7255

          k = 0.0306-0.1224 0.2341 (  2786 PWs)   bands (ev):

   -37.5102 -37.0064 -36.9638  -0.8759   6.2492   7.4096   8.7890  11.5547
    12.9469  13.8417  14.8114

          k = 0.6730-0.1224-0.2128 (  2773 PWs)   bands (ev):

   -37.4673 -37.0204 -36.9889  -0.0813   4.7436   5.7685   6.9145  12.3897
    13.4760  14.1724  17.2323

          k = 0.4588-0.1224-0.0638 (  2775 PWs)   bands (ev):

   -37.4618 -37.0158 -36.9982   0.0779   4.3776   5.6958   6.8242  12.3801
    13.3248  14.7385  17.0808

          k = 0.0306-0.0000 0.3192 (  2792 PWs)   bands (ev):

   -37.4942 -37.0166 -36.9682  -0.6271   6.4456   6.5622   7.1815  11.2602
    12.3465  16.0355  16.1215

          k = 0.6730 0.0000-0.1277 (  2785 PWs)   bands (ev):

   -37.4554 -37.0289 -36.9913   0.2152   4.4102   5.6123   6.1630  11.4526
    14.3699  15.4076  17.5917

          k = 0.4588 0.0000 0.0213 (  2769 PWs)   bands (ev):

   -37.4661 -37.0111 -36.9991  -0.0349   4.5538   5.4101   7.6375  12.0759
    13.5112  14.6731  17.0590

          k = 0.0306 0.1224 0.4044 (  2778 PWs)   bands (ev):

   -37.4687 -37.0265 -36.9815  -0.1309   5.0957   6.0897   6.3409  11.3589
    13.3095  15.6092  17.1166

          k = 0.6730 0.1224-0.0426 (  2783 PWs)   bands (ev):

   -37.4456 -37.0288 -37.0003   0.5288   4.5123   4.9311   5.4404  12.3975
    14.6629  15.4977  17.3687

          k = 0.4588 0.1224 0.1064 (  2781 PWs)   bands (ev):

   -37.4622 -37.0160 -36.9977   0.0725   4.1341   6.0976   6.8879  12.0064
    13.1219  15.3383  16.5882

          k = 0.2447-0.6118-0.2554 (  2779 PWs)   bands (ev):

   -37.4611 -37.0141 -37.0006   0.0990   4.5368   5.2027   7.1620  11.9051
    14.0211  14.9005  17.9435

          k = 0.0306-0.6118-0.1064 (  2780 PWs)   bands (ev):

   -37.4533 -37.0238 -36.9983   0.2959   4.0963   5.5141   6.4122  11.6737
    14.5456  15.6268  17.4932

          k = 0.6730-0.6118-0.5534 (  2776 PWs)   bands (ev):

   -37.4455 -37.0179 -37.0111   0.5593   4.5101   4.9196   5.3264  13.3091
    14.2704  15.8599  15.9861

          k = 0.4588-0.6118-0.4044 (  2775 PWs)   bands (ev):

   -37.4531 -37.0195 -37.0023   0.3433   4.0740   5.5869   6.2832  11.5565
    14.4083  15.4661  17.6171

          k = 0.2447-0.4894-0.1703 (  2785 PWs)   bands (ev):

   -37.4514 -37.0196 -37.0039   0.3945   4.1115   5.3539   6.2577  11.5234
    14.8195  15.4962  17.8345

          k = 0.0306-0.4894-0.0213 (  2774 PWs)   bands (ev):

   -37.4607 -37.0108 -37.0044   0.1011   4.4206   5.2358   7.2660  12.0736
    13.8310  15.0547  17.4558

          k = 0.6730-0.4894-0.4682 (  2772 PWs)   bands (ev):

   -37.4549 -37.0181 -37.0022   0.2809   4.0680   5.8076   6.2652  11.7885
    14.0760  15.4713  17.2939

          k = 0.4588-0.4894-0.3192 (  2774 PWs)   bands (ev):

   -37.4456 -37.0162 -37.0124   0.6040   4.5111   4.8139   5.4225  12.8646
    14.3316  15.6915  15.8655

          k = 0.2447-0.3671-0.0851 (  2783 PWs)   bands (ev):

   -37.4638 -37.0240 -36.9880   0.0314   4.9293   5.9595   6.0863  11.1414
    13.3286  15.8147  17.2851

          k = 0.0306-0.3671 0.0638 (  2779 PWs)   bands (ev):

   -37.4845 -37.0105 -36.9830  -0.4300   4.9275   6.4075   8.5661  12.0339
    12.4160  14.2141  15.5909

          k = 0.6730-0.3671-0.3831 (  2783 PWs)   bands (ev):

   -37.4666 -37.0170 -36.9927  -0.0319   4.1604   6.5197   7.0994  11.5366
    12.9403  15.2574  16.2996

          k = 0.4588-0.3671-0.2341 (  2773 PWs)   bands (ev):

   -37.4453 -37.0210 -37.0078   0.6140   4.5243   4.7556   5.4724  12.3393
    14.9016  15.2163  16.5438

          k = 0.3671-0.3671 0.0000 (  2780 PWs)   bands (ev):

   -37.4499 -37.0345 -36.9901   0.4324   4.7265   5.3955   5.4630  10.5814
    13.0371  18.5280  19.0968

          k = 0.1529-0.3671 0.1490 (  2779 PWs)   bands (ev):

   -37.4729 -37.0164 -36.9876  -0.1836   4.4281   6.7525   7.2662  11.2413
    13.4378  14.6119  15.8813

          k = 0.7953-0.3671-0.2980 (  2787 PWs)   bands (ev):

   -37.4709 -37.0164 -36.9895  -0.1344   3.6945   7.8338   8.2429  10.7983
    11.0818  14.7990  18.0756

          k = 0.5812-0.3671-0.1490 (  2785 PWs)   bands (ev):

   -37.4486 -37.0230 -37.0029   0.4842   4.2622   5.0602   6.0190  11.4490
    14.9137  15.6464  18.0598

          k = 0.1529-0.2447 0.2341 (  2779 PWs)   bands (ev):

   -37.4847 -37.0123 -36.9810  -0.4361   4.9789   6.4504   8.4344  11.9756
    12.3259  14.2162  15.8701

          k = 0.7953-0.2447-0.2128 (  2777 PWs)   bands (ev):

   -37.4668 -37.0194 -36.9903  -0.0608   4.1875   6.5653   7.0345  11.6122
    13.1140  15.3957  16.2036

          k = 0.5812-0.2447-0.0638 (  2778 PWs)   bands (ev):

   -37.4454 -37.0190 -37.0100   0.5810   4.5354   4.7853   5.4488  12.4411
    15.0413  15.4292  16.7782

          k = 0.1529-0.1224 0.3192 (  2780 PWs)   bands (ev):

   -37.4825 -37.0158 -36.9796  -0.4067   5.3214   6.0528   7.7918  12.3098
    13.2780  13.4154  16.5597

          k = 0.7953-0.1224-0.1277 (  2786 PWs)   bands (ev):

   -37.4556 -37.0324 -36.9875   0.1942   4.7893   5.5265   5.8198  11.4627
    13.5604  16.1227  18.2745

          k = 0.5812-0.1224 0.0213 (  2777 PWs)   bands (ev):

   -37.4481 -37.0177 -37.0090   0.4696   4.3941   4.8656   5.8930  12.8101
    14.3238  15.8610  16.5226

          k = 0.1529 0.0000 0.4044 (  2783 PWs)   bands (ev):

   -37.4677 -37.0255 -36.9835  -0.1030   4.8303   6.3082   6.3451  11.3654
    13.7141  15.1694  16.8353

          k = 0.7953-0.0000-0.0426 (  2790 PWs)   bands (ev):

   -37.4458 -37.0424 -36.9867   0.4782   4.4089   5.3520   5.5341  10.8603
    13.2436  18.9150  19.5579

          k = 0.5812-0.0000 0.1064 (  2784 PWs)   bands (ev):

   -37.4547 -37.0207 -37.0001   0.2637   3.9864   5.6182   6.6767  11.6420
    14.1123  16.2794  17.1949

          k = 0.1529-0.7342-0.1064 (  2785 PWs)   bands (ev):

   -37.4511 -37.0292 -36.9949   0.3414   4.6063   5.2807   5.6426  12.2071
    14.1481  15.1549  18.7743

          k = 0.7953-0.7342-0.5534 (  2789 PWs)   bands (ev):

   -37.4457 -37.0375 -36.9915   0.4977   4.4601   5.0996   5.5530  11.4057
    13.7454  17.2821  18.9547

          k = 0.5812-0.7342-0.4044 (  2781 PWs)   bands (ev):

   -37.4603 -37.0176 -36.9979   0.1129   4.0434   6.0719   6.8269  12.4163
    12.6076  16.0944  16.7576

          k = 0.1529-0.6118-0.0213 (  2774 PWs)   bands (ev):

   -37.4457 -37.0200 -37.0088   0.5473   4.5202   4.8110   5.4765  13.1223
    14.4380  15.8898  16.0146

          k = 0.7953-0.6118-0.4682 (  2784 PWs)   bands (ev):

   -37.4550 -37.0227 -36.9978   0.2465   4.0976   5.7374   6.3669  11.8593
    14.0895  15.6043  17.3466

          k = 0.5812-0.6118-0.3192 (  2778 PWs)   bands (ev):

   -37.4608 -37.0141 -37.0008   0.1092   4.4866   5.2606   7.1249  11.9501
    13.8000  14.9911  17.7563

          k = 0.3671-0.4894-0.0851 (  2779 PWs)   bands (ev):

   -37.4443 -37.0327 -36.9970   0.6366   4.4252   4.9163   5.5320  11.0189
    13.6516  18.0556  18.7627

          k = 0.1529-0.4894 0.0638 (  2768 PWs)   bands (ev):

   -37.4556 -37.0172 -37.0025   0.2500   4.3052   5.5064   6.2777  12.4172
    13.7983  14.8877  17.6926

          k = 0.7953-0.4894-0.3831 (  2784 PWs)   bands (ev):

   -37.4659 -37.0167 -36.9939  -0.0134   3.6581   7.2729   7.6198  11.4225
    11.5354  15.2237  18.3464

          k = 0.5812-0.4894-0.2341 (  2770 PWs)   bands (ev):

   -37.4556 -37.0190 -37.0005   0.2658   4.3307   5.5192   6.2333  12.3120
    13.6052  14.8233  18.0484

     the Fermi energy is     7.5964 ev

!    total energy              =     -51.57003744 Ry
     estimated scf accuracy    <          2.0E-11 Ry
     smearing contrib. (-TS)   =       0.00046305 Ry
     internal energy E=F+TS    =     -51.57050049 Ry

     The total energy is F=E-TS. E is the sum of the following terms:
     one-electron contribution =     -14.40125906 Ry
     hartree contribution      =       8.54699196 Ry
     xc contribution           =     -13.81178565 Ry
     ewald contribution        =     -31.90444774 Ry

     convergence has been achieved in   6 iterations

     Forces acting on atoms (cartesian axes, Ry/au):

     atom    1 type  1   force =     0.00000000    0.00000000    0.00000000
     atom    2 type  2   force =    -0.00000000   -0.00000000   -0.00000000
     atom    3 type  2   force =     0.00000000   -0.00000000   -0.00000000
     atom    4 type  2   force =     0.00000000   -0.00000000   -0.00000000
     The non-local contrib.  to forces
     atom    1 type  1   force =     0.00000000   -0.00000000   -0.00000000
     atom    2 type  2   force =     0.00000000    0.00000000    0.00000000
     atom    3 type  2   force =     0.00000000   -0.00000000    0.00000000
     atom    4 type  2   force =     0.00000000   -0.00000000   -0.00000000
     The ionic contribution  to forces
     atom    1 type  1   force =     0.00000000    0.00000000    0.00000000
     atom    2 type  2   force =     0.00000000    0.00000000    0.00000000
     atom    3 type  2   force =    -0.00000000   -0.00000000   -0.00000000
     atom    4 type  2   force =     0.00000000   -0.00000000   -0.00000000
     The local contribution  to forces
     atom    1 type  1   force =    -0.00000000   -0.00000000    0.00000000
     atom    2 type  2   force =    -0.00000000    0.00000000   -0.00000000
     atom    3 type  2   force =    -0.00000000   -0.00000000   -0.00000000
     atom    4 type  2   force =     0.00000000   -0.00000000   -0.00000000
     The core correction contribution to forces
     atom    1 type  1   force =     0.00000000    0.00000000   -0.00000000
     atom    2 type  2   force =     0.00000000    0.00000000    0.00000000
     atom    3 type  2   force =     0.00000000    0.00000000    0.00000000
     atom    4 type  2   force =     0.00000000    0.00000000    0.00000000
     The Hubbard contrib.    to forces
     atom    1 type  1   force =     0.00000000    0.00000000    0.00000000
     atom    2 type  2   force =     0.00000000    0.00000000    0.00000000
     atom    3 type  2   force =     0.00000000    0.00000000    0.00000000
     atom    4 type  2   force =     0.00000000    0.00000000    0.00000000
     The SCF correction term to forces
     atom    1 type  1   force =     0.00000000   -0.00000000   -0.00000000
     atom    2 type  2   force =     0.00000000    0.00000000   -0.00000000
     atom    3 type  2   force =     0.00000000   -0.00000000   -0.00000000
     atom    4 type  2   force =    -0.00000000   -0.00000000   -0.00000000

     Total force =     0.000000     Total SCF correction =     0.000000


     Computing stress (Cartesian axis) and pressure

          total   stress  (Ry/bohr**3)                   (kbar)     P=      511.58
   0.00351196   0.00000000   0.00000000          516.63        0.00        0.00
   0.00000000   0.00351196  -0.00000000            0.00      516.63       -0.00
   0.00000000  -0.00000000   0.00340903            0.00       -0.00      501.49


     Writing all to output data dir ./output/SiLi.save/

     init_run     :      0.96s CPU      1.12s WALL (       2 calls)
     electrons    :     59.36s CPU     68.80s WALL (      13 calls)
     update_pot   :      1.96s CPU      2.02s WALL (      11 calls)
     forces       :      1.81s CPU      1.89s WALL (      13 calls)
     stress       :      7.48s CPU      7.71s WALL (      13 calls)

     Called by init_run:
     wfcinit      :      0.36s CPU      0.37s WALL (       2 calls)
     potinit      :      0.22s CPU      0.29s WALL (       2 calls)
     hinit0       :      0.36s CPU      0.43s WALL (       2 calls)

     Called by electrons:
     c_bands      :     51.17s CPU     59.62s WALL (     101 calls)
     sum_band     :      7.59s CPU      7.95s WALL (     101 calls)
     v_of_rho     :      0.60s CPU      1.09s WALL (     112 calls)
     mix_rho      :      0.06s CPU      0.09s WALL (     101 calls)

     Called by c_bands:
     init_us_2    :      1.51s CPU      1.63s WALL (   20700 calls)
     init_us_2:cp :      1.49s CPU      1.61s WALL (   20700 calls)
     cegterg      :     48.30s CPU     50.35s WALL (    9090 calls)

     Called by *egterg:
     cdiaghg      :      4.16s CPU      4.34s WALL (   31492 calls)
     h_psi        :     40.28s CPU     42.01s WALL (   32842 calls)
     g_psi        :      0.18s CPU      0.18s WALL (   23572 calls)

     Called by h_psi:
     h_psi:calbec :      2.13s CPU      2.21s WALL (   32842 calls)
     vloc_psi     :     36.58s CPU     38.15s WALL (   32842 calls)
     add_vuspsi   :      1.39s CPU      1.44s WALL (   32842 calls)

     General routines
     calbec       :      2.57s CPU      2.67s WALL (   38692 calls)
     fft          :      0.72s CPU      1.35s WALL (    1445 calls)
     ffts         :      0.04s CPU      0.07s WALL (     101 calls)
     fftw         :     37.65s CPU     39.23s WALL (  641958 calls)

     Parallel routines

     PWSCF        :   1m11.96s CPU   1m22.41s WALL


   This run was terminated on:  12:17:59  29Dec2024            

=------------------------------------------------------------------------------=
   JOB DONE.
=------------------------------------------------------------------------------=
