
     Program PWSCF v.7.2 starts on 29Dec2024 at 11:17:33 

     This program is part of the open-source Quantum ESPRESSO suite
     for quantum simulation of materials; please cite
         "P. Giannozzi et al., J. Phys.:Condens. Matter 21 395502 (2009);
         "P. Giannozzi et al., J. Phys.:Condens. Matter 29 465901 (2017);
         "P. Giannozzi et al., J. Chem. Phys. 152 154105 (2020);
          URL http://www.quantum-espresso.org", 
     in publications or presentations arising from this work. More details at
     http://www.quantum-espresso.org/quote

     Parallel version (MPI & OpenMP), running on       8 processor cores
     Number of MPI processes:                 8
     Threads/MPI process:                     1

     MPI processes distributed on     1 nodes
     481666 MiB available memory on the printing compute node when the environment starts

     Waiting for input...
     Reading input from standard input

     Current dimensions of program PWSCF are:
     Max number of different atomic species (ntypx) = 10
     Max number of k-points (npk) =  40000
     Max angular momentum in pseudopotentials (lmaxx) =  4

     R & G space division:  proc/nbgrp/npool/nimage =       8
     Subspace diagonalization in iterative solution of the eigenvalue problem:
     a serial algorithm will be used


     Parallelization info
     --------------------
     sticks:   dense  smooth     PW     G-vecs:    dense   smooth      PW
     Min         337     337    100                 7647     7647    1238
     Max         338     338    101                 7649     7649    1239
     Sum        2697    2697    801                61185    61185    9911

     Using Slab Decomposition



     bravais-lattice index     =            5
     lattice parameter (alat)  =      15.7231  a.u.
     unit-cell volume          =     632.5964 (a.u.)^3
     number of atoms/cell      =            4
     number of atomic types    =            2
     number of electrons       =        13.00
     number of Kohn-Sham states=           11
     kinetic-energy cutoff     =      80.0000  Ry
     charge density cutoff     =     320.0000  Ry
     scf convergence threshold =      1.0E-08
     mixing beta               =       0.7000
     number of iterations used =            8  plain     mixing
     energy convergence thresh.=      1.0E-04
     force convergence thresh. =      1.0E-03
     press convergence thresh. =      1.0E+00
     Exchange-correlation= PBE
                           (   1   4   3   4   0   0   0)
     nstep                     =           50


     celldm(1)=  15.723103  celldm(2)=   0.000000  celldm(3)=   0.000000
     celldm(4)=   0.902839  celldm(5)=   0.000000  celldm(6)=   0.000000

     crystal axes: (cart. coord. in units of alat)
               a(1) = (   0.220410  -0.127254   0.967071 )  
               a(2) = (   0.000000   0.254508   0.967071 )  
               a(3) = (  -0.220410  -0.127254   0.967071 )  

     reciprocal axes: (cart. coord. in units 2 pi/alat)
               b(1) = (  2.268498 -1.309718  0.344684 )  
               b(2) = (  0.000000  2.619436  0.344684 )  
               b(3) = ( -2.268498 -1.309718  0.344684 )  


     PseudoPot. # 1 for Si read from file:
     ../pseudo/Si_ONCV_PBE_sr.upf
     MD5 check sum: e543d271109d17c80368dfa7c482276d
     Pseudo is Norm-conserving + core correction, Zval =  4.0
     Generated using ONCVPSP code by D. R. Hamann
     Using radial grid of 1510 points,  6 beta functions with: 
                l(1) =   0
                l(2) =   0
                l(3) =   1
                l(4) =   1
                l(5) =   2
                l(6) =   2

     PseudoPot. # 2 for Li read from file:
     ../pseudo/Li_ONCV_PBE_sr.upf
     MD5 check sum: 50ff420e78310ffa21704f3361e624a4
     Pseudo is Norm-conserving, Zval =  3.0
     Generated using ONCVPSP code by D. R. Hamann
     Using radial grid of 1944 points,  4 beta functions with: 
                l(1) =   0
                l(2) =   0
                l(3) =   1
                l(4) =   1

     atomic species   valence    mass     pseudopotential
        Si             4.00    28.08550     Si( 1.00)
        Li             3.00     6.94100     Li( 1.00)

      6 Sym. Ops. (no inversion) found



   Cartesian axes

     site n.     atom                  positions (alat units)
         1           Si  tau(   1) = (   0.0000000  -0.0000000   0.1024418  )
         2           Li  tau(   2) = (  -0.0000000  -0.0000000   0.4872963  )
         3           Li  tau(   3) = (  -0.0000000  -0.0000000   0.6822607  )
         4           Li  tau(   4) = (   0.0000000  -0.0000000   2.0297161  )

     number of k points=    13  Marzari-Vanderbilt smearing, width (Ry)=  0.0200
                       cart. coord. in units 2pi/alat
        k(    1) = (   0.0000000   0.0000000   0.0000000), wk =   0.0312500
        k(    2) = (  -0.5671246  -0.3274295   0.0861709), wk =   0.1875000
        k(    3) = (   1.1342492   0.6548591  -0.1723418), wk =   0.0937500
        k(    4) = (  -0.5671246   0.3274295   0.1723418), wk =   0.1875000
        k(    5) = (   1.1342492   1.3097182  -0.0861709), wk =   0.3750000
        k(    6) = (   0.5671246   0.9822886   0.0000000), wk =   0.1875000
        k(    7) = (   1.1342492  -0.6548591  -0.3446835), wk =   0.0937500
        k(    8) = (   0.0000000   0.0000000   0.2585126), wk =   0.0625000
        k(    9) = (   1.7013738   0.9822886   0.0000000), wk =   0.1875000
        k(   10) = (   1.1342492   0.6548591   0.0861709), wk =   0.1875000
        k(   11) = (   1.7013738  -0.9822886  -0.2585126), wk =   0.1875000
        k(   12) = (   1.1342492  -1.3097182  -0.1723418), wk =   0.1875000
        k(   13) = (   0.0000000   0.0000000  -0.5170253), wk =   0.0312500

     Dense  grid:    61185 G-vectors     FFT dimensions: (  90,  90,  90)

     Estimated max dynamical RAM per process >      25.10 MB

     Estimated total dynamical RAM >     200.83 MB

     Initial potential from superposition of free atoms

     starting charge      12.9857, renormalised to      13.0000
     Starting wfcs are   10 randomized atomic wfcs +    1 random wfcs

     total cpu time spent up to now is        1.5 secs

     Self-consistent Calculation

     iteration #  1     ecut=    80.00 Ry     beta= 0.70
     Davidson diagonalization with overlap
     ethr =  1.00E-02,  avg # of iterations =  6.3

     total cpu time spent up to now is        2.7 secs

     total energy              =     -50.93826107 Ry
     estimated scf accuracy    <       0.54937081 Ry

     iteration #  2     ecut=    80.00 Ry     beta= 0.70
     Davidson diagonalization with overlap
     ethr =  4.23E-03,  avg # of iterations =  4.4

     total cpu time spent up to now is        3.7 secs

     total energy              =     -50.55448929 Ry
     estimated scf accuracy    <       8.70236297 Ry

     iteration #  3     ecut=    80.00 Ry     beta= 0.70
     Davidson diagonalization with overlap
     ethr =  4.23E-03,  avg # of iterations =  2.6

     total cpu time spent up to now is        4.6 secs

     total energy              =     -51.32013703 Ry
     estimated scf accuracy    <       0.08393723 Ry

     iteration #  4     ecut=    80.00 Ry     beta= 0.70
     Davidson diagonalization with overlap
     ethr =  6.46E-04,  avg # of iterations =  2.1

     total cpu time spent up to now is        5.3 secs

     total energy              =     -51.32492296 Ry
     estimated scf accuracy    <       0.00517234 Ry

     iteration #  5     ecut=    80.00 Ry     beta= 0.70
     Davidson diagonalization with overlap
     ethr =  3.98E-05,  avg # of iterations =  5.9

     total cpu time spent up to now is        6.2 secs

     total energy              =     -51.32614387 Ry
     estimated scf accuracy    <       0.00567089 Ry

     iteration #  6     ecut=    80.00 Ry     beta= 0.70
     Davidson diagonalization with overlap
     ethr =  3.98E-05,  avg # of iterations =  1.0

     total cpu time spent up to now is        6.9 secs

     total energy              =     -51.32625813 Ry
     estimated scf accuracy    <       0.00067420 Ry

     iteration #  7     ecut=    80.00 Ry     beta= 0.70
     Davidson diagonalization with overlap
     ethr =  5.19E-06,  avg # of iterations =  3.2

     total cpu time spent up to now is        7.6 secs

     total energy              =     -51.32633896 Ry
     estimated scf accuracy    <       0.00017839 Ry

     iteration #  8     ecut=    80.00 Ry     beta= 0.70
     Davidson diagonalization with overlap
     ethr =  1.37E-06,  avg # of iterations =  2.0

     total cpu time spent up to now is        8.2 secs

     total energy              =     -51.32635341 Ry
     estimated scf accuracy    <       0.00000214 Ry

     iteration #  9     ecut=    80.00 Ry     beta= 0.70
     Davidson diagonalization with overlap
     ethr =  1.65E-08,  avg # of iterations =  2.1

     total cpu time spent up to now is        8.9 secs

     total energy              =     -51.32635372 Ry
     estimated scf accuracy    <       0.00000485 Ry

     iteration # 10     ecut=    80.00 Ry     beta= 0.70
     Davidson diagonalization with overlap
     ethr =  1.65E-08,  avg # of iterations =  1.0

     total cpu time spent up to now is        9.5 secs

     total energy              =     -51.32635419 Ry
     estimated scf accuracy    <       0.00000024 Ry

     iteration # 11     ecut=    80.00 Ry     beta= 0.70
     Davidson diagonalization with overlap
     ethr =  1.86E-09,  avg # of iterations =  1.0

     total cpu time spent up to now is       10.2 secs

     total energy              =     -51.32635420 Ry
     estimated scf accuracy    <       0.00000002 Ry

     iteration # 12     ecut=    80.00 Ry     beta= 0.70
     Davidson diagonalization with overlap
     ethr =  1.37E-10,  avg # of iterations =  1.6

     total cpu time spent up to now is       10.8 secs

     End of self-consistent calculation

          k = 0.0000 0.0000 0.0000 (  7603 PWs)   bands (ev):

   -47.5774 -46.8882 -44.5567  -6.6041  -1.2379  -0.8579   3.2816   3.2816
     4.3665   4.6348   7.6575

          k =-0.5671-0.3274 0.0862 (  7658 PWs)   bands (ev):

   -47.5768 -46.8878 -44.5554  -6.1149  -0.5800  -0.1381   0.9485   2.2264
     4.5983   5.3613   5.6899

          k = 1.1342 0.6549-0.1723 (  7658 PWs)   bands (ev):

   -47.5761 -46.8875 -44.5541  -5.3896  -1.1121   0.7618   1.4953   1.5604
     2.9630   3.6404   5.9821

          k =-0.5671 0.3274 0.1723 (  7661 PWs)   bands (ev):

   -47.5768 -46.8878 -44.5554  -6.1143  -0.7427   0.1160   0.9189   2.2239
     4.1867   5.3111   6.1693

          k = 1.1342 1.3097-0.0862 (  7657 PWs)   bands (ev):

   -47.5761 -46.8875 -44.5541  -5.3960  -0.7681   0.4573   0.8576   1.6202
     3.4754   4.5297   5.0627

          k = 0.5671 0.9823 0.0000 (  7638 PWs)   bands (ev):

   -47.5761 -46.8875 -44.5541  -5.3968  -0.7747   0.6429   0.9287   1.2606
     3.3653   4.4772   5.2155

          k = 1.1342-0.6549-0.3447 (  7672 PWs)   bands (ev):

   -47.5761 -46.8875 -44.5541  -5.3892  -1.0804   0.6176   1.4116   1.5561
     3.2382   4.1839   5.4242

          k = 0.0000 0.0000 0.2585 (  7606 PWs)   bands (ev):

   -47.5774 -46.8882 -44.5567  -6.6018  -1.6034  -0.2518   3.0282   3.2811
     3.2811   6.0453   7.6195

          k = 1.7014 0.9823 0.0000 (  7642 PWs)   bands (ev):

   -47.5768 -46.8878 -44.5554  -6.1123  -0.9722   0.5348   0.9887   2.2257
     3.4261   5.5852   6.3641

          k = 1.1342 0.6549 0.0862 (  7664 PWs)   bands (ev):

   -47.5761 -46.8875 -44.5541  -5.3894  -1.0965   0.6824   1.4690   1.5583
     3.0075   4.0509   5.4337

          k = 1.7014-0.9823-0.2585 (  7638 PWs)   bands (ev):

   -47.5768 -46.8878 -44.5554  -6.1117  -1.0302   0.7963   0.8792   2.2232
     3.2066   5.4370   6.7479

          k = 1.1342-1.3097-0.1723 (  7654 PWs)   bands (ev):

   -47.5761 -46.8875 -44.5541  -5.3951  -0.7608   0.3242   0.8355   1.8998
     3.5853   4.6555   4.9018

          k = 0.0000 0.0000-0.5170 (  7592 PWs)   bands (ev):

   -47.5774 -46.8882 -44.5567  -6.5995  -1.7796   0.2830   2.2457   3.2806
     3.2806   6.8757   7.5902

     the Fermi energy is     0.9885 ev

!    total energy              =     -51.32635420 Ry
     estimated scf accuracy    <          6.7E-12 Ry
     smearing contrib. (-TS)   =      -0.00075360 Ry
     internal energy E=F+TS    =     -51.32560060 Ry

     The total energy is F=E-TS. E is the sum of the following terms:
     one-electron contribution =     -33.24423734 Ry
     hartree contribution      =      13.95358966 Ry
     xc contribution           =     -12.98737180 Ry
     ewald contribution        =     -19.04758112 Ry

     convergence has been achieved in  12 iterations

     Forces acting on atoms (cartesian axes, Ry/au):

     atom    1 type  1   force =     0.00000000   -0.00000000    0.00226474
     atom    2 type  2   force =    -0.00000000    0.00000000   -0.15038166
     atom    3 type  2   force =    -0.00000000    0.00000000    0.15747810
     atom    4 type  2   force =    -0.00000000    0.00000000   -0.00936118
     The non-local contrib.  to forces
     atom    1 type  1   force =    -0.00000000   -0.00000000   -0.01781156
     atom    2 type  2   force =    -0.00000000   -0.00000000    0.13506355
     atom    3 type  2   force =    -0.00000000   -0.00000000   -0.12842047
     atom    4 type  2   force =    -0.00000000   -0.00000000   -0.00803382
     The ionic contribution  to forces
     atom    1 type  1   force =    -0.00000000   -0.00000000    0.05100320
     atom    2 type  2   force =     0.00000000    0.00000000   -1.09578371
     atom    3 type  2   force =     0.00000000   -0.00000000    1.11228405
     atom    4 type  2   force =     0.00000000    0.00000000   -0.06750355
     The local contribution  to forces
     atom    1 type  1   force =     0.00000000    0.00000000   -0.03198651
     atom    2 type  2   force =    -0.00000000   -0.00000000    0.81032600
     atom    3 type  2   force =    -0.00000000    0.00000000   -0.82640121
     atom    4 type  2   force =    -0.00000000   -0.00000000    0.06616178
     The core correction contribution to forces
     atom    1 type  1   force =    -0.00000000    0.00000000    0.00104557
     atom    2 type  2   force =     0.00000000    0.00000000    0.00000000
     atom    3 type  2   force =     0.00000000    0.00000000    0.00000000
     atom    4 type  2   force =     0.00000000    0.00000000    0.00000000
     The Hubbard contrib.    to forces
     atom    1 type  1   force =     0.00000000    0.00000000    0.00000000
     atom    2 type  2   force =     0.00000000    0.00000000    0.00000000
     atom    3 type  2   force =     0.00000000    0.00000000    0.00000000
     atom    4 type  2   force =     0.00000000    0.00000000    0.00000000
     The SCF correction term to forces
     atom    1 type  1   force =     0.00000000   -0.00000000   -0.00000020
     atom    2 type  2   force =    -0.00000000   -0.00000000   -0.00000172
     atom    3 type  2   force =    -0.00000000   -0.00000000    0.00000150
     atom    4 type  2   force =     0.00000000   -0.00000000    0.00000019

     Total force =     0.217960     Total SCF correction =     0.000002


     Computing stress (Cartesian axis) and pressure

          total   stress  (Ry/bohr**3)                   (kbar)     P=       49.63
   0.00038217  -0.00000000   0.00000000           56.22       -0.00        0.00
   0.00000000   0.00038217   0.00000000            0.00       56.22        0.00
   0.00000000   0.00000000   0.00024776            0.00        0.00       36.45


     BFGS Geometry Optimization
     Energy error            =      0.0E+00 Ry
     Gradient error          =      1.6E-01 Ry/Bohr
     Cell gradient error     =      4.6E+02 kbar

     number of scf cycles    =   1
     number of bfgs steps    =   0

     enthalpy           new  =     -49.1762026318 Ry

     new trust radius        =       0.3962823906 bohr
ibrav =      5
 celldm(1) =     14.48787824
 celldm(4) =      0.90217500
Input lattice vectors:
     0.20378699    -0.11765647     0.89088572
     0.00000000     0.23531294     0.89088572
    -0.20378699    -0.11765647     0.89088572
New lattice vectors in INITIAL alat:
     0.20378699    -0.11765647     0.89088572
     0.00000000     0.23531294     0.89088572
    -0.20378699    -0.11765647     0.89088572
New lattice vectors in NEW alat (for information only):
     0.22116171    -0.12768777     0.96684194
     0.00000000     0.25537554     0.96684194
    -0.22116171    -0.12768777     0.96684194
Discrepancy in bohr =     0.000000    0.000000    0.000000
     new conv_thr            =       0.0000000100 Ry

     new unit-cell volume =    498.17316 a.u.^3 (    73.82165 Ang^3 )
     density =      1.10014 g/cm^3

CELL_PARAMETERS (alat= 15.72310339)
   0.203786987  -0.117656472   0.890885719
   0.000000000   0.235312943   0.890885719
  -0.203786987  -0.117656472   0.890885719

ATOMIC_POSITIONS (crystal)
Si            0.0353596478        0.0353596478        0.0353596478
Li            0.1646663178        0.1646663178        0.1646663178
Li            0.2386162512        0.2386162512        0.2386162512
Li            0.6994044533        0.6994044533        0.6994044533



     Writing config-only to output data dir ./output/SiLi.save/
     NEW-OLD atomic charge density approx. for the potential
     extrapolated charge    9.49604, renormalised to   13.00000

     total cpu time spent up to now is       12.9 secs

     Self-consistent Calculation

     iteration #  1     ecut=    80.00 Ry     beta= 0.70
     Davidson diagonalization with overlap
     c_bands:  1 eigenvalues not converged
     ethr =  1.00E-06,  avg # of iterations = 15.9

     total cpu time spent up to now is       15.4 secs

     total energy              =     -48.83784259 Ry
     estimated scf accuracy    <       2.41902016 Ry

     iteration #  2     ecut=    80.00 Ry     beta= 0.70
     Davidson diagonalization with overlap
     ethr =  1.00E-02,  avg # of iterations =  6.5

     total cpu time spent up to now is       16.6 secs

     total energy              =     -49.96868166 Ry
     estimated scf accuracy    <      27.98856573 Ry

     iteration #  3     ecut=    80.00 Ry     beta= 0.70
     Davidson diagonalization with overlap
     ethr =  1.00E-02,  avg # of iterations =  3.8

     total cpu time spent up to now is       17.4 secs

     total energy              =     -51.37796526 Ry
     estimated scf accuracy    <       2.15314913 Ry

     iteration #  4     ecut=    80.00 Ry     beta= 0.70
     Davidson diagonalization with overlap
     ethr =  1.00E-02,  avg # of iterations =  1.5

     total cpu time spent up to now is       18.1 secs

     total energy              =     -51.24150231 Ry
     estimated scf accuracy    <       0.78242260 Ry

     iteration #  5     ecut=    80.00 Ry     beta= 0.70
     Davidson diagonalization with overlap
     ethr =  6.02E-03,  avg # of iterations =  2.2

     total cpu time spent up to now is       18.7 secs

     total energy              =     -51.28984653 Ry
     estimated scf accuracy    <       0.05862170 Ry

     iteration #  6     ecut=    80.00 Ry     beta= 0.70
     Davidson diagonalization with overlap
     ethr =  4.51E-04,  avg # of iterations =  4.0

     total cpu time spent up to now is       19.5 secs

     total energy              =     -51.29681357 Ry
     estimated scf accuracy    <       0.00240082 Ry

     iteration #  7     ecut=    80.00 Ry     beta= 0.70
     Davidson diagonalization with overlap
     ethr =  1.85E-05,  avg # of iterations =  4.9

     total cpu time spent up to now is       20.3 secs

     total energy              =     -51.29710773 Ry
     estimated scf accuracy    <       0.00073452 Ry

     iteration #  8     ecut=    80.00 Ry     beta= 0.70
     Davidson diagonalization with overlap
     ethr =  5.65E-06,  avg # of iterations =  2.4

     total cpu time spent up to now is       21.0 secs

     total energy              =     -51.29725508 Ry
     estimated scf accuracy    <       0.00077573 Ry

     iteration #  9     ecut=    80.00 Ry     beta= 0.70
     Davidson diagonalization with overlap
     ethr =  5.65E-06,  avg # of iterations =  1.0

     total cpu time spent up to now is       21.6 secs

     total energy              =     -51.29731621 Ry
     estimated scf accuracy    <       0.00002472 Ry

     iteration # 10     ecut=    80.00 Ry     beta= 0.70
     Davidson diagonalization with overlap
     ethr =  1.90E-07,  avg # of iterations =  1.7

     total cpu time spent up to now is       22.2 secs

     total energy              =     -51.29731822 Ry
     estimated scf accuracy    <       0.00000204 Ry

     iteration # 11     ecut=    80.00 Ry     beta= 0.70
     Davidson diagonalization with overlap
     ethr =  1.57E-08,  avg # of iterations =  2.4

     total cpu time spent up to now is       22.9 secs

     total energy              =     -51.29731834 Ry
     estimated scf accuracy    <       0.00000154 Ry

     iteration # 12     ecut=    80.00 Ry     beta= 0.70
     Davidson diagonalization with overlap
     ethr =  1.19E-08,  avg # of iterations =  1.0

     total cpu time spent up to now is       23.5 secs

     total energy              =     -51.29731860 Ry
     estimated scf accuracy    <       0.00000033 Ry

     iteration # 13     ecut=    80.00 Ry     beta= 0.70
     Davidson diagonalization with overlap
     ethr =  2.50E-09,  avg # of iterations =  1.0

     total cpu time spent up to now is       24.1 secs

     total energy              =     -51.29731855 Ry
     estimated scf accuracy    <       0.00000028 Ry

     iteration # 14     ecut=    80.00 Ry     beta= 0.70
     Davidson diagonalization with overlap
     ethr =  2.16E-09,  avg # of iterations =  1.5

     total cpu time spent up to now is       24.7 secs

     End of self-consistent calculation

          k = 0.0000 0.0000 0.0000 (  7603 PWs)   bands (ev):

   -45.7404 -45.1021 -43.9280  -6.0374  -0.8331   0.2182   5.0710   5.0710
     5.9475   6.7063   9.2044

          k =-0.6134-0.3541 0.0935 (  7658 PWs)   bands (ev):

   -45.7384 -45.1009 -43.9244  -5.4359   0.0503   0.9084   2.2041   3.6399
     6.3218   7.2904   7.7970

          k = 1.2268 0.7083-0.1871 (  7658 PWs)   bands (ev):

   -45.7365 -45.0997 -43.9207  -4.4620  -0.4070   1.7865   2.7343   2.8103
     4.3021   5.0755   7.7244

          k =-0.6134 0.3541 0.1871 (  7661 PWs)   bands (ev):

   -45.7384 -45.1009 -43.9244  -5.4346  -0.0841   1.1601   2.1494   3.6363
     5.8845   7.2328   8.2999

          k = 1.2268 1.4166-0.0935 (  7657 PWs)   bands (ev):

   -45.7365 -45.0997 -43.9207  -4.4584  -0.1119   1.3988   2.0512   2.9524
     5.0191   6.0586   7.1971

          k = 0.6134 1.0624 0.0000 (  7638 PWs)   bands (ev):

   -45.7365 -45.0997 -43.9207  -4.4604  -0.1145   1.7523   1.8508   2.6689
     4.8216   6.0933   7.3346

          k = 1.2268-0.7083-0.3742 (  7672 PWs)   bands (ev):

   -45.7365 -45.0997 -43.9207  -4.4616  -0.3578   1.5790   2.6051   2.8043
     4.8971   5.4845   7.0272

          k = 0.0000 0.0000 0.2806 (  7606 PWs)   bands (ev):

   -45.7404 -45.1021 -43.9280  -6.0331  -1.0985   0.7505   4.5741   5.0704
     5.0704   8.2179   9.1898

          k = 1.8402 1.0624 0.0000 (  7642 PWs)   bands (ev):

   -45.7384 -45.1009 -43.9244  -5.4307  -0.3196   1.6049   2.2556   3.6390
     4.9642   7.7611   8.2102

          k = 1.2268 0.7083 0.0935 (  7664 PWs)   bands (ev):

   -45.7365 -45.0997 -43.9207  -4.4618  -0.3829   1.6742   2.6835   2.8073
     4.4637   5.4582   7.1610

          k = 1.8402-1.0624-0.2806 (  7638 PWs)   bands (ev):

   -45.7384 -45.1009 -43.9244  -5.4294  -0.3829   1.9473   2.0704   3.6353
     4.7320   7.4513   8.7256

          k = 1.2268-1.4166-0.1871 (  7654 PWs)   bands (ev):

   -45.7365 -45.0997 -43.9207  -4.4564  -0.1090   1.2312   2.0762   3.2596
     5.2200   6.3311   6.3837

          k = 0.0000 0.0000-0.5612 (  7592 PWs)   bands (ev):

   -45.7404 -45.1021 -43.9280  -6.0288  -1.2717   1.3123   3.6972   5.0698
     5.0698   9.1756   9.2649

     the Fermi energy is     2.1871 ev

!    total energy              =     -51.29731860 Ry
     estimated scf accuracy    <          1.9E-10 Ry
     smearing contrib. (-TS)   =      -0.00058656 Ry
     internal energy E=F+TS    =     -51.29673204 Ry

     The total energy is F=E-TS. E is the sum of the following terms:
     one-electron contribution =     -30.37339887 Ry
     hartree contribution      =      13.17667173 Ry
     xc contribution           =     -13.17076864 Ry
     ewald contribution        =     -20.92923626 Ry

     convergence has been achieved in  14 iterations

     Forces acting on atoms (cartesian axes, Ry/au):

     atom    1 type  1   force =    -0.00000000    0.00000000    0.00518473
     atom    2 type  2   force =    -0.00000000   -0.00000000   -0.14152787
     atom    3 type  2   force =     0.00000000   -0.00000000    0.15342768
     atom    4 type  2   force =    -0.00000000    0.00000000   -0.01708454
     The non-local contrib.  to forces
     atom    1 type  1   force =    -0.00000000   -0.00000000   -0.02997260
     atom    2 type  2   force =    -0.00000000    0.00000000    0.13485313
     atom    3 type  2   force =     0.00000000   -0.00000000   -0.12157152
     atom    4 type  2   force =     0.00000000    0.00000000   -0.01061801
     The ionic contribution  to forces
     atom    1 type  1   force =    -0.00000000   -0.00000000    0.06322290
     atom    2 type  2   force =     0.00000000    0.00000000   -0.74692356
     atom    3 type  2   force =    -0.00000000   -0.00000000    0.76827344
     atom    4 type  2   force =     0.00000000    0.00000000   -0.08457278
     The local contribution  to forces
     atom    1 type  1   force =     0.00000000    0.00000000   -0.02981482
     atom    2 type  2   force =     0.00000000    0.00000000    0.47052768
     atom    3 type  2   force =    -0.00000000   -0.00000000   -0.49326847
     atom    4 type  2   force =     0.00000000   -0.00000000    0.07810377
     The core correction contribution to forces
     atom    1 type  1   force =    -0.00000000    0.00000000    0.00174761
     atom    2 type  2   force =     0.00000000    0.00000000    0.00000000
     atom    3 type  2   force =     0.00000000    0.00000000    0.00000000
     atom    4 type  2   force =     0.00000000    0.00000000    0.00000000
     The Hubbard contrib.    to forces
     atom    1 type  1   force =     0.00000000    0.00000000    0.00000000
     atom    2 type  2   force =     0.00000000    0.00000000    0.00000000
     atom    3 type  2   force =     0.00000000    0.00000000    0.00000000
     atom    4 type  2   force =     0.00000000    0.00000000    0.00000000
     The SCF correction term to forces
     atom    1 type  1   force =     0.00000000   -0.00000000   -0.00000106
     atom    2 type  2   force =    -0.00000000   -0.00000000    0.00001219
     atom    3 type  2   force =     0.00000000    0.00000000   -0.00000846
     atom    4 type  2   force =     0.00000000    0.00000000   -0.00000021

     Total force =     0.209497     Total SCF correction =     0.000015


     Computing stress (Cartesian axis) and pressure

          total   stress  (Ry/bohr**3)                   (kbar)     P=      124.83
   0.00112462  -0.00000000   0.00000000          165.44       -0.00        0.00
   0.00000000   0.00112462   0.00000000            0.00      165.44        0.00
   0.00000000   0.00000000   0.00029652            0.00        0.00       43.62

     Energy error            =      4.3E-01 Ry
     Gradient error          =      1.5E-01 Ry/Bohr
     Cell gradient error     =      4.6E+02 kbar

     number of scf cycles    =   2
     number of bfgs steps    =   1

     enthalpy           old  =     -49.1762026318 Ry
     enthalpy           new  =     -49.6040624327 Ry

     CASE: enthalpy          _new < enthalpy          _old

     new trust radius        =       0.5726102002 bohr
ibrav =      5
 celldm(1) =     12.66176929
 celldm(4) =      0.89502798
Input lattice vectors:
     0.18449216    -0.10651660     0.77660817
     0.00000000     0.21303319     0.77660817
    -0.18449216    -0.10651660     0.77660817
New lattice vectors in INITIAL alat:
     0.18449216    -0.10651660     0.77660817
     0.00000000     0.21303319     0.77660817
    -0.18449216    -0.10651660     0.77660817
New lattice vectors in NEW alat (for information only):
     0.22909825    -0.13226994     0.96437475
     0.00000000     0.26453988     0.96437475
    -0.22909825    -0.13226994     0.96437475
Discrepancy in bohr =     0.000000    0.000000    0.000000
     new conv_thr            =       0.0000000100 Ry

     new unit-cell volume =    355.92886 a.u.^3 (    52.74322 Ang^3 )
     density =      1.53981 g/cm^3

CELL_PARAMETERS (alat= 15.72310339)
   0.184492156  -0.106516596   0.776608170
   0.000000000   0.213033192   0.776608170
  -0.184492156  -0.106516596   0.776608170

ATOMIC_POSITIONS (crystal)
Si            0.0355411255        0.0355411255        0.0355411255
Li            0.1595791092        0.1595791092        0.1595791092
Li            0.2441228410        0.2441228410        0.2441228410
Li            0.6988035943        0.6988035943        0.6988035943



     Writing config-only to output data dir ./output/SiLi.save/
     NEW-OLD atomic charge density approx. for the potential

     negative rho (up, down):  1.574E-04 0.000E+00
     extrapolated charge    7.81036, renormalised to   13.00000

     total cpu time spent up to now is       26.7 secs

     Self-consistent Calculation

     iteration #  1     ecut=    80.00 Ry     beta= 0.70
     Davidson diagonalization with overlap
     ethr =  1.00E-06,  avg # of iterations = 15.8

     total cpu time spent up to now is       29.2 secs

     total energy              =     -47.92962265 Ry
     estimated scf accuracy    <       3.29894647 Ry

     iteration #  2     ecut=    80.00 Ry     beta= 0.70
     Davidson diagonalization with overlap
     ethr =  1.00E-02,  avg # of iterations =  5.8

     total cpu time spent up to now is       30.3 secs

     total energy              =     -49.69428806 Ry
     estimated scf accuracy    <      25.61343998 Ry

     iteration #  3     ecut=    80.00 Ry     beta= 0.70
     Davidson diagonalization with overlap
     ethr =  1.00E-02,  avg # of iterations =  3.3

     total cpu time spent up to now is       31.1 secs

     total energy              =     -51.26431666 Ry
     estimated scf accuracy    <       1.75729746 Ry

     iteration #  4     ecut=    80.00 Ry     beta= 0.70
     Davidson diagonalization with overlap
     ethr =  1.00E-02,  avg # of iterations =  1.6

     total cpu time spent up to now is       31.7 secs

     total energy              =     -51.04043623 Ry
     estimated scf accuracy    <       0.73085905 Ry

     iteration #  5     ecut=    80.00 Ry     beta= 0.70
     Davidson diagonalization with overlap
     ethr =  5.62E-03,  avg # of iterations =  3.1

     total cpu time spent up to now is       32.4 secs

     total energy              =     -51.16366386 Ry
     estimated scf accuracy    <       0.07165162 Ry

     iteration #  6     ecut=    80.00 Ry     beta= 0.70
     Davidson diagonalization with overlap
     ethr =  5.51E-04,  avg # of iterations =  2.2

     total cpu time spent up to now is       33.0 secs

     total energy              =     -51.14865838 Ry
     estimated scf accuracy    <       0.05586570 Ry

     iteration #  7     ecut=    80.00 Ry     beta= 0.70
     Davidson diagonalization with overlap
     ethr =  4.30E-04,  avg # of iterations =  1.2

     total cpu time spent up to now is       33.6 secs

     total energy              =     -51.15940914 Ry
     estimated scf accuracy    <       0.03501859 Ry

     iteration #  8     ecut=    80.00 Ry     beta= 0.70
     Davidson diagonalization with overlap
     ethr =  2.69E-04,  avg # of iterations =  1.0

     total cpu time spent up to now is       34.3 secs

     total energy              =     -51.16292840 Ry
     estimated scf accuracy    <       0.00024328 Ry

     iteration #  9     ecut=    80.00 Ry     beta= 0.70
     Davidson diagonalization with overlap
     ethr =  1.87E-06,  avg # of iterations =  8.5

     total cpu time spent up to now is       35.1 secs

     total energy              =     -51.16298000 Ry
     estimated scf accuracy    <       0.00001533 Ry

     iteration # 10     ecut=    80.00 Ry     beta= 0.70
     Davidson diagonalization with overlap
     ethr =  1.18E-07,  avg # of iterations =  1.4

     total cpu time spent up to now is       35.7 secs

     total energy              =     -51.16297544 Ry
     estimated scf accuracy    <       0.00002986 Ry

     iteration # 11     ecut=    80.00 Ry     beta= 0.70
     Davidson diagonalization with overlap
     ethr =  1.18E-07,  avg # of iterations =  1.1

     total cpu time spent up to now is       36.3 secs

     total energy              =     -51.16297817 Ry
     estimated scf accuracy    <       0.00000007 Ry

     iteration # 12     ecut=    80.00 Ry     beta= 0.70
     Davidson diagonalization with overlap
     ethr =  5.10E-10,  avg # of iterations =  3.2

     total cpu time spent up to now is       37.0 secs

     total energy              =     -51.16297820 Ry
     estimated scf accuracy    <       0.00000005 Ry

     iteration # 13     ecut=    80.00 Ry     beta= 0.70
     Davidson diagonalization with overlap
     ethr =  3.77E-10,  avg # of iterations =  1.0

     total cpu time spent up to now is       37.6 secs

     End of self-consistent calculation

          k = 0.0000 0.0000 0.0000 (  7603 PWs)   bands (ev):

   -42.9053 -42.8437 -42.1829  -4.8377   0.0482   2.3969   8.2048   8.2048
     9.2015  10.9824  11.9040

          k =-0.6775-0.3912 0.1073 (  7658 PWs)   bands (ev):

   -42.8930 -42.8376 -42.1785  -4.1237   1.1619   3.0171   4.6013   6.1780
     9.5241  10.5009  11.6261

          k = 1.3551 0.7824-0.2146 (  7658 PWs)   bands (ev):

   -42.8806 -42.8316 -42.1740  -2.8569   1.1119   3.5456   4.9437   5.1239
     6.2782   8.1669  10.9808

          k =-0.6775 0.3912 0.2146 (  7661 PWs)   bands (ev):

   -42.8929 -42.8377 -42.1785  -4.1206   1.0581   3.3095   4.4504   6.1692
     9.2132  10.2760  12.0679

          k = 1.3551 1.5647-0.1073 (  7657 PWs)   bands (ev):

   -42.8807 -42.8315 -42.1740  -2.8023   1.2955   2.9697   4.2298   5.5252
     7.4913   8.7006  10.5760

          k = 0.6775 1.1735 0.0000 (  7638 PWs)   bands (ev):

   -42.8808 -42.8314 -42.1740  -2.8094   1.3028   3.3872   3.8043   5.4052
     7.0819   8.8906  10.8919

          k = 1.3551-0.7824-0.4292 (  7672 PWs)   bands (ev):

   -42.8808 -42.8314 -42.1740  -2.8571   1.2337   3.1785   4.6641   5.1097
     7.4435   8.3152  10.1779

          k =-0.0000 0.0000 0.3219 (  7606 PWs)   bands (ev):

   -42.9046 -42.8444 -42.1829  -4.8272  -0.1511   2.8975   7.7601   8.2038
     8.2038  11.8854  11.8854

          k = 2.0326 1.1735 0.0000 (  7642 PWs)   bands (ev):

   -42.8924 -42.8382 -42.1784  -4.1098   0.8302   3.6795   4.7470   6.1757
     8.0002  10.9762  11.5407

          k = 1.3551 0.7824 0.1073 (  7664 PWs)   bands (ev):

   -42.8807 -42.8315 -42.1740  -2.8570   1.1699   3.3516   4.8016   5.1167
     6.7345   8.4422  10.3802

          k = 2.0326-1.1735-0.3219 (  7638 PWs)   bands (ev):

   -42.8923 -42.8383 -42.1784  -4.1066   0.7632   4.1589   4.3844   6.1670
     7.8300  10.5261  12.0914

          k = 1.3551-1.5647-0.2146 (  7654 PWs)   bands (ev):

   -42.8806 -42.8316 -42.1740  -2.7953   1.2878   2.7537   4.3867   5.7994
     7.8490   8.8156   9.5608

          k = 0.0000 0.0000-0.6438 (  7592 PWs)   bands (ev):

   -42.9039 -42.8452 -42.1828  -4.8165  -0.3127   3.4787   6.7462   8.2027
     8.2027  11.8674  11.8674

     the Fermi energy is     4.4959 ev

!    total energy              =     -51.16297821 Ry
     estimated scf accuracy    <          1.5E-09 Ry
     smearing contrib. (-TS)   =      -0.00090158 Ry
     internal energy E=F+TS    =     -51.16207663 Ry

     The total energy is F=E-TS. E is the sum of the following terms:
     one-electron contribution =     -26.03770783 Ry
     hartree contribution      =      12.14187273 Ry
     xc contribution           =     -13.48776263 Ry
     ewald contribution        =     -23.77847890 Ry

     convergence has been achieved in  13 iterations

     Forces acting on atoms (cartesian axes, Ry/au):

     atom    1 type  1   force =     0.00000000   -0.00000000   -0.00302087
     atom    2 type  2   force =     0.00000000   -0.00000000   -0.11318273
     atom    3 type  2   force =    -0.00000000    0.00000000    0.14721981
     atom    4 type  2   force =     0.00000000    0.00000000   -0.03101621
     The non-local contrib.  to forces
     atom    1 type  1   force =     0.00000000    0.00000000   -0.06824312
     atom    2 type  2   force =    -0.00000000    0.00000000    0.15012370
     atom    3 type  2   force =     0.00000000    0.00000000   -0.12531276
     atom    4 type  2   force =    -0.00000000    0.00000000   -0.01389200
     The ionic contribution  to forces
     atom    1 type  1   force =     0.00000000   -0.00000000    0.06570349
     atom    2 type  2   force =    -0.00000000   -0.00000000   -0.12351390
     atom    3 type  2   force =     0.00000000   -0.00000000    0.17521043
     atom    4 type  2   force =    -0.00000000    0.00000000   -0.11740001
     The local contribution  to forces
     atom    1 type  1   force =     0.00000000    0.00000000   -0.00438821
     atom    2 type  2   force =     0.00000000    0.00000000   -0.13974851
     atom    3 type  2   force =     0.00000000   -0.00000000    0.09729106
     atom    4 type  2   force =     0.00000000   -0.00000000    0.10027048
     The core correction contribution to forces
     atom    1 type  1   force =     0.00000000   -0.00000000    0.00389934
     atom    2 type  2   force =     0.00000000    0.00000000    0.00000000
     atom    3 type  2   force =     0.00000000    0.00000000    0.00000000
     atom    4 type  2   force =     0.00000000    0.00000000    0.00000000
     The Hubbard contrib.    to forces
     atom    1 type  1   force =     0.00000000    0.00000000    0.00000000
     atom    2 type  2   force =     0.00000000    0.00000000    0.00000000
     atom    3 type  2   force =     0.00000000    0.00000000    0.00000000
     atom    4 type  2   force =     0.00000000    0.00000000    0.00000000
     The SCF correction term to forces
     atom    1 type  1   force =    -0.00000000   -0.00000000    0.00000779
     atom    2 type  2   force =     0.00000000    0.00000000   -0.00004387
     atom    3 type  2   force =     0.00000000    0.00000000    0.00003123
     atom    4 type  2   force =    -0.00000000    0.00000000    0.00000548

     Total force =     0.188295     Total SCF correction =     0.000055


     Computing stress (Cartesian axis) and pressure

          total   stress  (Ry/bohr**3)                   (kbar)     P=      351.52
   0.00312378  -0.00000000  -0.00000000          459.52       -0.00       -0.00
  -0.00000000   0.00312378   0.00000000           -0.00      459.52        0.00
  -0.00000000   0.00000000   0.00092116           -0.00        0.00      135.51

     Energy error            =      3.5E-01 Ry
     Gradient error          =      1.5E-01 Ry/Bohr
     Cell gradient error     =      3.6E+02 kbar

     number of scf cycles    =   3
     number of bfgs steps    =   2

     enthalpy           old  =     -49.6040624327 Ry
     enthalpy           new  =     -49.9532006090 Ry

     CASE: enthalpy          _new < enthalpy          _old

     new trust radius        =       0.5995953910 bohr
ibrav =      5
 celldm(1) =     10.74241832
 celldm(4) =      0.87105300
Input lattice vectors:
     0.17348200    -0.10015988     0.65319866
     0.00000000     0.20031976     0.65319866
    -0.17348200    -0.10015988     0.65319866
New lattice vectors in INITIAL alat:
     0.17348200    -0.10015988     0.65319866
     0.00000000     0.20031976     0.65319866
    -0.17348200    -0.10015988     0.65319866
New lattice vectors in NEW alat (for information only):
     0.25391632    -0.14659866     0.95605195
     0.00000000     0.29319732     0.95605195
    -0.25391632    -0.14659866     0.95605195
Discrepancy in bohr =     0.000000    0.000000    0.000000
     new conv_thr            =       0.0000000100 Ry

     new unit-cell volume =    264.70341 a.u.^3 (    39.22500 Ang^3 )
     density =      2.07048 g/cm^3

CELL_PARAMETERS (alat= 15.72310339)
   0.173481997  -0.100159878   0.653198655
   0.000000000   0.200319756   0.653198655
  -0.173481997  -0.100159878   0.653198655

ATOMIC_POSITIONS (crystal)
Si            0.0355177034        0.0355177034        0.0355177034
Li            0.1538874514        0.1538874514        0.1538874514
Li            0.2510148043        0.2510148043        0.2510148043
Li            0.6976267109        0.6976267109        0.6976267109



     Writing config-only to output data dir ./output/SiLi.save/
     NEW-OLD atomic charge density approx. for the potential

     negative rho (up, down):  5.800E-05 0.000E+00
     extrapolated charge    8.52470, renormalised to   13.00000

     total cpu time spent up to now is       39.5 secs

     Self-consistent Calculation

     iteration #  1     ecut=    80.00 Ry     beta= 0.70
     Davidson diagonalization with overlap
     ethr =  1.00E-06,  avg # of iterations = 13.7

     total cpu time spent up to now is       41.7 secs

     total energy              =     -48.75361984 Ry
     estimated scf accuracy    <       2.21222977 Ry

     iteration #  2     ecut=    80.00 Ry     beta= 0.70
     Davidson diagonalization with overlap
     ethr =  1.00E-02,  avg # of iterations =  4.7

     total cpu time spent up to now is       42.7 secs

     total energy              =     -50.06087757 Ry
     estimated scf accuracy    <      12.29619065 Ry

     iteration #  3     ecut=    80.00 Ry     beta= 0.70
     Davidson diagonalization with overlap
     ethr =  1.00E-02,  avg # of iterations =  2.5

     total cpu time spent up to now is       43.4 secs

     total energy              =     -50.94746739 Ry
     estimated scf accuracy    <       0.99430636 Ry

     iteration #  4     ecut=    80.00 Ry     beta= 0.70
     Davidson diagonalization with overlap
     ethr =  7.65E-03,  avg # of iterations =  2.0

     total cpu time spent up to now is       44.0 secs

     total energy              =     -50.87843754 Ry
     estimated scf accuracy    <       0.29232799 Ry

     iteration #  5     ecut=    80.00 Ry     beta= 0.70
     Davidson diagonalization with overlap
     ethr =  2.25E-03,  avg # of iterations =  2.5

     total cpu time spent up to now is       44.7 secs

     total energy              =     -50.94061889 Ry
     estimated scf accuracy    <       0.02030955 Ry

     iteration #  6     ecut=    80.00 Ry     beta= 0.70
     Davidson diagonalization with overlap
     ethr =  1.56E-04,  avg # of iterations =  4.3

     total cpu time spent up to now is       45.4 secs

     total energy              =     -50.93539001 Ry
     estimated scf accuracy    <       0.01744263 Ry

     iteration #  7     ecut=    80.00 Ry     beta= 0.70
     Davidson diagonalization with overlap
     ethr =  1.34E-04,  avg # of iterations =  1.7

     total cpu time spent up to now is       46.0 secs

     total energy              =     -50.93953505 Ry
     estimated scf accuracy    <       0.00522193 Ry

     iteration #  8     ecut=    80.00 Ry     beta= 0.70
     Davidson diagonalization with overlap
     ethr =  4.02E-05,  avg # of iterations =  1.0

     total cpu time spent up to now is       46.6 secs

     total energy              =     -50.94000273 Ry
     estimated scf accuracy    <       0.00014582 Ry

     iteration #  9     ecut=    80.00 Ry     beta= 0.70
     Davidson diagonalization with overlap
     ethr =  1.12E-06,  avg # of iterations =  4.8

     total cpu time spent up to now is       47.3 secs

     total energy              =     -50.94001468 Ry
     estimated scf accuracy    <       0.00001007 Ry

     iteration # 10     ecut=    80.00 Ry     beta= 0.70
     Davidson diagonalization with overlap
     ethr =  7.75E-08,  avg # of iterations =  2.1

     total cpu time spent up to now is       47.9 secs

     total energy              =     -50.94001686 Ry
     estimated scf accuracy    <       0.00000055 Ry

     iteration # 11     ecut=    80.00 Ry     beta= 0.70
     Davidson diagonalization with overlap
     ethr =  4.21E-09,  avg # of iterations =  1.8

     total cpu time spent up to now is       48.6 secs

     total energy              =     -50.94001700 Ry
     estimated scf accuracy    <       0.00000014 Ry

     iteration # 12     ecut=    80.00 Ry     beta= 0.70
     Davidson diagonalization with overlap
     ethr =  1.08E-09,  avg # of iterations =  1.1

     total cpu time spent up to now is       49.1 secs

     End of self-consistent calculation

          k = 0.0000 0.0000 0.0000 (  7603 PWs)   bands (ev):

   -41.3142 -40.2917 -39.4121  -3.0855   1.7766   5.0950  11.2825  11.2825
    14.2349  14.6614  14.6614

          k =-0.7205-0.4160 0.1276 (  7658 PWs)   bands (ev):

   -41.2907 -40.2788 -39.4021  -2.3613   2.9368   5.4212   7.3976   8.8241
    12.9056  14.0210  15.8773

          k = 1.4411 0.8320-0.2552 (  7658 PWs)   bands (ev):

   -41.2673 -40.2660 -39.3921  -0.9968   2.9040   5.6212   7.2090   7.6260
     9.4115  11.4234  15.0430

          k =-0.7205 0.4160 0.2552 (  7661 PWs)   bands (ev):

   -41.2906 -40.2789 -39.4021  -2.3522   2.7932   5.9240   7.0040   8.7875
    12.8615  13.8952  15.8445

          k = 1.4411 1.6640-0.1276 (  7657 PWs)   bands (ev):

   -41.2674 -40.2657 -39.3923  -0.8840   3.1392   4.7876   6.5433   8.3369
    10.1417  11.6275  14.4086

          k = 0.7205 1.2480 0.0000 (  7638 PWs)   bands (ev):

   -41.2674 -40.2657 -39.3923  -0.9109   3.1921   5.3516   5.9218   8.4811
     9.1742  12.1594  14.5505

          k = 1.4411-0.8320-0.5103 (  7672 PWs)   bands (ev):

   -41.2674 -40.2655 -39.3924  -1.0029   3.2793   4.8029   7.0101   7.5677
    10.9250  11.4026  14.5550

          k =-0.0000-0.0000 0.3827 (  7606 PWs)   bands (ev):

   -41.3136 -40.2929 -39.4114  -3.0541   1.4957   5.7240  11.2799  11.2799
    12.5812  14.6024  14.6024

          k = 2.1616 1.2480 0.0000 (  7642 PWs)   bands (ev):

   -41.2903 -40.2797 -39.4017  -2.3163   2.4501   6.0580   7.9184   8.8149
    11.9185  13.9555  15.3338

          k = 1.4411 0.8320 0.1276 (  7664 PWs)   bands (ev):

   -41.2673 -40.2657 -39.3923  -0.9999   3.0676   5.1970   7.1534   7.5964
     9.9111  11.7250  15.0459

          k = 2.1616-1.2480-0.3827 (  7638 PWs)   bands (ev):

   -41.2902 -40.2798 -39.4016  -2.3067   2.3566   6.5976   7.3980   8.7787
    12.1219  13.3502  15.7299

          k = 1.4411-1.6640-0.2552 (  7654 PWs)   bands (ev):

   -41.2673 -40.2658 -39.3922  -0.8564   3.0810   4.5107   6.7458   8.7473
    10.6496  11.5346  13.4609

          k = 0.0000 0.0000-0.7655 (  7592 PWs)   bands (ev):

   -41.3131 -40.2941 -39.4108  -3.0215   1.2617   6.4240  11.2774  11.2774
    11.3557  14.5464  14.5464

     the Fermi energy is     7.0594 ev

!    total energy              =     -50.94001702 Ry
     estimated scf accuracy    <          2.1E-10 Ry
     smearing contrib. (-TS)   =       0.00026345 Ry
     internal energy E=F+TS    =     -50.94028047 Ry

     The total energy is F=E-TS. E is the sum of the following terms:
     one-electron contribution =     -21.83427547 Ry
     hartree contribution      =      11.28376365 Ry
     xc contribution           =     -13.82990914 Ry
     ewald contribution        =     -26.55985951 Ry

     convergence has been achieved in  12 iterations

     Forces acting on atoms (cartesian axes, Ry/au):

     atom    1 type  1   force =     0.00000000    0.00000000   -0.09176123
     atom    2 type  2   force =     0.00000000    0.00000000    0.02362410
     atom    3 type  2   force =     0.00000000    0.00000000    0.10848755
     atom    4 type  2   force =    -0.00000000   -0.00000000   -0.04035042
     The non-local contrib.  to forces
     atom    1 type  1   force =     0.00000000    0.00000000   -0.16002273
     atom    2 type  2   force =    -0.00000000   -0.00000000    0.22090569
     atom    3 type  2   force =    -0.00000000   -0.00000000   -0.19349105
     atom    4 type  2   force =     0.00000000    0.00000000   -0.02090267
     The ionic contribution  to forces
     atom    1 type  1   force =     0.00000000   -0.00000000   -0.08779144
     atom    2 type  2   force =     0.00000000   -0.00000000    0.69395570
     atom    3 type  2   force =    -0.00000000   -0.00000000   -0.50185262
     atom    4 type  2   force =    -0.00000000    0.00000000   -0.10431164
     The local contribution  to forces
     atom    1 type  1   force =    -0.00000000    0.00000000    0.14713454
     atom    2 type  2   force =    -0.00000000    0.00000000   -0.89122874
     atom    3 type  2   force =    -0.00000000   -0.00000000    0.80381975
     atom    4 type  2   force =     0.00000000   -0.00000000    0.08486462
     The core correction contribution to forces
     atom    1 type  1   force =    -0.00000000   -0.00000000    0.00892244
     atom    2 type  2   force =     0.00000000    0.00000000    0.00000000
     atom    3 type  2   force =     0.00000000    0.00000000    0.00000000
     atom    4 type  2   force =     0.00000000    0.00000000    0.00000000
     The Hubbard contrib.    to forces
     atom    1 type  1   force =     0.00000000    0.00000000    0.00000000
     atom    2 type  2   force =     0.00000000    0.00000000    0.00000000
     atom    3 type  2   force =     0.00000000    0.00000000    0.00000000
     atom    4 type  2   force =     0.00000000    0.00000000    0.00000000
     The SCF correction term to forces
     atom    1 type  1   force =     0.00000000   -0.00000000   -0.00000337
     atom    2 type  2   force =    -0.00000000   -0.00000000   -0.00000788
     atom    3 type  2   force =    -0.00000000   -0.00000000    0.00001214
     atom    4 type  2   force =    -0.00000000   -0.00000000   -0.00000007

     Total force =     0.149586     Total SCF correction =     0.000015


     Computing stress (Cartesian axis) and pressure

          total   stress  (Ry/bohr**3)                   (kbar)     P=      763.40
   0.00592535  -0.00000000  -0.00000000          871.65       -0.00       -0.00
  -0.00000000   0.00592535   0.00000000           -0.00      871.65        0.00
   0.00000000   0.00000000   0.00371770            0.00        0.00      546.89

     Energy error            =      8.7E-02 Ry
     Gradient error          =      1.1E-01 Ry/Bohr
     Cell gradient error     =      3.7E+02 kbar

     number of scf cycles    =   4
     number of bfgs steps    =   3

     enthalpy           old  =     -49.9532006090 Ry
     enthalpy           new  =     -50.0403084006 Ry

     CASE: enthalpy          _new < enthalpy          _old

     new trust radius        =       0.1207163935 bohr
ibrav =      5
 celldm(1) =     10.99764946
 celldm(4) =      0.86767081
Input lattice vectors:
     0.17991792    -0.10387566     0.66789280
    -0.00000000     0.20775132     0.66789280
    -0.17991792    -0.10387566     0.66789280
New lattice vectors in INITIAL alat:
     0.17991792    -0.10387566     0.66789280
     0.00000000     0.20775132     0.66789280
    -0.17991792    -0.10387566     0.66789280
New lattice vectors in NEW alat (for information only):
     0.25722479    -0.14850880     0.95487200
     0.00000000     0.29701760     0.95487200
    -0.25722479    -0.14850880     0.95487200
Discrepancy in bohr =     0.000000    0.000000    0.000000
     new conv_thr            =       0.0000000100 Ry

     new unit-cell volume =    291.11263 a.u.^3 (    43.13844 Ang^3 )
     density =      1.88265 g/cm^3

CELL_PARAMETERS (alat= 15.72310339)
   0.179917921  -0.103875660   0.667892801
   0.000000000   0.207751320   0.667892801
  -0.179917921  -0.103875660   0.667892801

ATOMIC_POSITIONS (crystal)
Si            0.0345211304        0.0345211304        0.0345211304
Li            0.1546594519        0.1546594519        0.1546594519
Li            0.2515700014        0.2515700014        0.2515700014
Li            0.6972960864        0.6972960864        0.6972960864



     Writing config-only to output data dir ./output/SiLi.save/
     NEW-OLD atomic charge density approx. for the potential
     extrapolated charge   14.17804, renormalised to   13.00000

     total cpu time spent up to now is       51.1 secs

     Self-consistent Calculation

     iteration #  1     ecut=    80.00 Ry     beta= 0.70
     Davidson diagonalization with overlap
     ethr =  1.00E-06,  avg # of iterations =  8.5

     total cpu time spent up to now is       52.6 secs

     total energy              =     -50.86736382 Ry
     estimated scf accuracy    <       0.17148811 Ry

     iteration #  2     ecut=    80.00 Ry     beta= 0.70
     Davidson diagonalization with overlap
     ethr =  1.32E-03,  avg # of iterations =  4.2
     Minimization algorithm failed to find Fermi energy: reverting to bisection
     Possible cause: smearing is larger than the electronic band-gap.

     total cpu time spent up to now is       53.4 secs

     total energy              =     -51.04469502 Ry
     estimated scf accuracy    <       1.43680815 Ry

     iteration #  3     ecut=    80.00 Ry     beta= 0.70
     Davidson diagonalization with overlap
     ethr =  1.32E-03,  avg # of iterations =  2.1

     total cpu time spent up to now is       54.1 secs

     total energy              =     -51.06272360 Ry
     estimated scf accuracy    <       0.26449936 Ry

     iteration #  4     ecut=    80.00 Ry     beta= 0.70
     Davidson diagonalization with overlap
     ethr =  1.32E-03,  avg # of iterations =  1.1

     total cpu time spent up to now is       54.6 secs

     total energy              =     -51.07552849 Ry
     estimated scf accuracy    <       0.03271536 Ry

     iteration #  5     ecut=    80.00 Ry     beta= 0.70
     Davidson diagonalization with overlap
     ethr =  2.52E-04,  avg # of iterations =  2.1

     total cpu time spent up to now is       55.2 secs

     total energy              =     -51.07045437 Ry
     estimated scf accuracy    <       0.02576125 Ry

     iteration #  6     ecut=    80.00 Ry     beta= 0.70
     Davidson diagonalization with overlap
     ethr =  1.98E-04,  avg # of iterations =  1.9

     total cpu time spent up to now is       55.8 secs

     total energy              =     -51.07076648 Ry
     estimated scf accuracy    <       0.00476591 Ry

     iteration #  7     ecut=    80.00 Ry     beta= 0.70
     Davidson diagonalization with overlap
     ethr =  3.67E-05,  avg # of iterations =  2.7

     total cpu time spent up to now is       56.4 secs

     total energy              =     -51.07093703 Ry
     estimated scf accuracy    <       0.00091580 Ry

     iteration #  8     ecut=    80.00 Ry     beta= 0.70
     Davidson diagonalization with overlap
     ethr =  7.04E-06,  avg # of iterations =  2.7

     total cpu time spent up to now is       57.0 secs

     total energy              =     -51.07082512 Ry
     estimated scf accuracy    <       0.00054362 Ry

     iteration #  9     ecut=    80.00 Ry     beta= 0.70
     Davidson diagonalization with overlap
     ethr =  4.18E-06,  avg # of iterations =  1.8

     total cpu time spent up to now is       57.6 secs

     total energy              =     -51.07084511 Ry
     estimated scf accuracy    <       0.00005216 Ry

     iteration # 10     ecut=    80.00 Ry     beta= 0.70
     Davidson diagonalization with overlap
     ethr =  4.01E-07,  avg # of iterations =  1.7

     total cpu time spent up to now is       58.2 secs

     total energy              =     -51.07085383 Ry
     estimated scf accuracy    <       0.00000036 Ry

     iteration # 11     ecut=    80.00 Ry     beta= 0.70
     Davidson diagonalization with overlap
     ethr =  2.76E-09,  avg # of iterations =  3.6

     total cpu time spent up to now is       58.9 secs

     total energy              =     -51.07085405 Ry
     estimated scf accuracy    <       0.00000005 Ry

     iteration # 12     ecut=    80.00 Ry     beta= 0.70
     Davidson diagonalization with overlap
     ethr =  4.01E-10,  avg # of iterations =  1.2

     total cpu time spent up to now is       59.4 secs

     total energy              =     -51.07085404 Ry
     estimated scf accuracy    <       0.00000001 Ry

     iteration # 13     ecut=    80.00 Ry     beta= 0.70
     Davidson diagonalization with overlap
     ethr =  9.22E-11,  avg # of iterations =  1.5

     total cpu time spent up to now is       60.0 secs

     End of self-consistent calculation

          k = 0.0000 0.0000 0.0000 (  7603 PWs)   bands (ev):

   -41.3820 -41.1845 -40.4063  -3.5756   1.3891   4.2443  10.0764  10.0764
    13.3033  13.4863  13.4863

          k =-0.6948-0.4011 0.1248 (  7658 PWs)   bands (ev):

   -41.3627 -41.1789 -40.3998  -2.8584   2.4584   4.6406   6.4077   7.8289
    11.7314  12.9554  14.4271

          k = 1.3895 0.8022-0.2495 (  7658 PWs)   bands (ev):

   -41.3431 -41.1736 -40.3933  -1.5316   2.2389   4.8401   6.5416   6.7076
     8.4754  10.1579  13.8787

          k =-0.6948 0.4011 0.2495 (  7661 PWs)   bands (ev):

   -41.3623 -41.1793 -40.3997  -2.8497   2.3027   5.1330   6.0657   7.7914
    11.6304  12.8213  14.4480

          k = 1.3895 1.6045-0.1248 (  7657 PWs)   bands (ev):

   -41.3435 -41.1731 -40.3934  -1.4637   2.5632   4.1129   5.6477   7.3854
     9.1728  10.6168  13.0142

          k = 0.6948 1.2034 0.0000 (  7638 PWs)   bands (ev):

   -41.3439 -41.1727 -40.3934  -1.4872   2.6052   4.6412   5.1483   7.4413
     8.2501  11.0490  13.1352

          k = 1.3895-0.8022-0.4991 (  7672 PWs)   bands (ev):

   -41.3438 -41.1726 -40.3935  -1.5358   2.5658   4.1382   6.2153   6.6482
     9.8641  10.4050  13.3666

          k =-0.0000-0.0000 0.3743 (  7606 PWs)   bands (ev):

   -41.3789 -41.1883 -40.4056  -3.5458   1.0710   4.9183  10.0720  10.0720
    11.5926  13.4271  13.4271

          k = 2.0843 1.2034 0.0000 (  7642 PWs)   bands (ev):

   -41.3602 -41.1820 -40.3992  -2.8165   1.9449   5.2664   6.9500   7.8193
    10.9282  12.8390  13.8614

          k = 1.3895 0.8022 0.1248 (  7664 PWs)   bands (ev):

   -41.3435 -41.1731 -40.3934  -1.5338   2.3840   4.4776   6.4049   6.6774
     8.9471  10.5539  13.4312

          k = 2.0843-1.2034-0.3743 (  7638 PWs)   bands (ev):

   -41.3598 -41.1824 -40.3992  -2.8074   1.8491   5.7302   6.5552   7.7821
    11.0738  12.1480  14.3630

          k = 1.3895-1.6045-0.2495 (  7654 PWs)   bands (ev):

   -41.3431 -41.1736 -40.3933  -1.4396   2.5168   3.8476   5.7727   7.7854
     9.7324  10.6182  12.2886

          k = 0.0000 0.0000-0.7486 (  7592 PWs)   bands (ev):

   -41.3758 -41.1922 -40.4048  -3.5149   0.8176   5.6552  10.0676  10.0676
    10.3539  13.3714  13.3714

     the Fermi energy is     6.2027 ev

!    total energy              =     -51.07085405 Ry
     estimated scf accuracy    <          7.1E-11 Ry
     smearing contrib. (-TS)   =       0.00063985 Ry
     internal energy E=F+TS    =     -51.07149390 Ry

     The total energy is F=E-TS. E is the sum of the following terms:
     one-electron contribution =     -23.11792688 Ry
     hartree contribution      =      11.53661001 Ry
     xc contribution           =     -13.71344575 Ry
     ewald contribution        =     -25.77673128 Ry

     convergence has been achieved in  13 iterations

     Forces acting on atoms (cartesian axes, Ry/au):

     atom    1 type  1   force =    -0.00000000    0.00000000   -0.08129483
     atom    2 type  2   force =     0.00000000   -0.00000000   -0.00554334
     atom    3 type  2   force =     0.00000000    0.00000000    0.11166975
     atom    4 type  2   force =     0.00000000   -0.00000000   -0.02483159
     The non-local contrib.  to forces
     atom    1 type  1   force =    -0.00000000    0.00000000   -0.15310339
     atom    2 type  2   force =     0.00000000    0.00000000    0.22065713
     atom    3 type  2   force =     0.00000000   -0.00000000   -0.19194051
     atom    4 type  2   force =     0.00000000    0.00000000   -0.01641573
     The ionic contribution  to forces
     atom    1 type  1   force =    -0.00000000   -0.00000000   -0.03838093
     atom    2 type  2   force =    -0.00000000   -0.00000000    0.51811444
     atom    3 type  2   force =     0.00000000   -0.00000000   -0.47033826
     atom    4 type  2   force =    -0.00000000    0.00000000   -0.00939525
     The local contribution  to forces
     atom    1 type  1   force =     0.00000000    0.00000000    0.10153135
     atom    2 type  2   force =     0.00000000    0.00000000   -0.74431710
     atom    3 type  2   force =    -0.00000000   -0.00000000    0.77394786
     atom    4 type  2   force =     0.00000000   -0.00000000    0.00098666
     The core correction contribution to forces
     atom    1 type  1   force =    -0.00000000   -0.00000000    0.00866612
     atom    2 type  2   force =     0.00000000    0.00000000    0.00000000
     atom    3 type  2   force =     0.00000000    0.00000000    0.00000000
     atom    4 type  2   force =     0.00000000    0.00000000    0.00000000
     The Hubbard contrib.    to forces
     atom    1 type  1   force =     0.00000000    0.00000000    0.00000000
     atom    2 type  2   force =     0.00000000    0.00000000    0.00000000
     atom    3 type  2   force =     0.00000000    0.00000000    0.00000000
     atom    4 type  2   force =     0.00000000    0.00000000    0.00000000
     The SCF correction term to forces
     atom    1 type  1   force =     0.00000000    0.00000000   -0.00000651
     atom    2 type  2   force =    -0.00000000   -0.00000000    0.00000366
     atom    3 type  2   force =     0.00000000    0.00000000    0.00000213
     atom    4 type  2   force =     0.00000000    0.00000000   -0.00000580

     Total force =     0.140450     Total SCF correction =     0.000010


     Computing stress (Cartesian axis) and pressure

          total   stress  (Ry/bohr**3)                   (kbar)     P=      587.16
   0.00458868   0.00000000  -0.00000000          675.02        0.00       -0.00
  -0.00000000   0.00458868   0.00000000           -0.00      675.02        0.00
   0.00000000   0.00000000   0.00279687            0.00        0.00      411.43

     Energy error            =      4.1E-02 Ry
     Gradient error          =      1.1E-01 Ry/Bohr
     Cell gradient error     =      1.8E+02 kbar

     number of scf cycles    =   5
     number of bfgs steps    =   4

     enthalpy           old  =     -50.0403084006 Ry
     enthalpy           new  =     -50.0813823331 Ry

     CASE: enthalpy          _new < enthalpy          _old

     new trust radius        =       0.1823473930 bohr
ibrav =      5
 celldm(1) =     10.61021827
 celldm(4) =      0.84223031
Input lattice vectors:
     0.18953213    -0.10942643     0.63834276
     0.00000000     0.21885285     0.63834276
    -0.18953213    -0.10942643     0.63834276
New lattice vectors in INITIAL alat:
     0.18953213    -0.10942643     0.63834276
     0.00000000     0.21885285     0.63834276
    -0.18953213    -0.10942643     0.63834276
New lattice vectors in NEW alat (for information only):
     0.28086446    -0.16215717     0.94594937
     0.00000000     0.32431435     0.94594937
    -0.28086446    -0.16215717     0.94594937
Discrepancy in bohr =     0.000000    0.000000    0.000000
     new conv_thr            =       0.0000000100 Ry

     new unit-cell volume =    308.76286 a.u.^3 (    45.75393 Ang^3 )
     density =      1.77503 g/cm^3

CELL_PARAMETERS (alat= 15.72310339)
   0.189532128  -0.109426425   0.638342763
   0.000000000   0.218852850   0.638342763
  -0.189532128  -0.109426425   0.638342763

ATOMIC_POSITIONS (crystal)
Si            0.0312683144        0.0312683144        0.0312683144
Li            0.1540798156        0.1540798156        0.1540798156
Li            0.2566147262        0.2566147262        0.2566147262
Li            0.6960838138        0.6960838138        0.6960838138



     Writing config-only to output data dir ./output/SiLi.save/
     NEW-OLD atomic charge density approx. for the potential
     extrapolated charge   13.74232, renormalised to   13.00000

     total cpu time spent up to now is       61.9 secs

     Self-consistent Calculation

     iteration #  1     ecut=    80.00 Ry     beta= 0.70
     Davidson diagonalization with overlap
     ethr =  1.00E-06,  avg # of iterations =  9.5

     total cpu time spent up to now is       63.6 secs

     total energy              =     -51.16260397 Ry
     estimated scf accuracy    <       0.00788630 Ry

     iteration #  2     ecut=    80.00 Ry     beta= 0.70
     Davidson diagonalization with overlap
     ethr =  6.07E-05,  avg # of iterations =  3.8

     total cpu time spent up to now is       64.4 secs

     total energy              =     -51.18214298 Ry
     estimated scf accuracy    <       0.15621858 Ry

     iteration #  3     ecut=    80.00 Ry     beta= 0.70
     Davidson diagonalization with overlap
     ethr =  6.07E-05,  avg # of iterations =  1.9

     total cpu time spent up to now is       65.1 secs

     total energy              =     -51.18170718 Ry
     estimated scf accuracy    <       0.03491834 Ry

     iteration #  4     ecut=    80.00 Ry     beta= 0.70
     Davidson diagonalization with overlap
     ethr =  6.07E-05,  avg # of iterations =  1.5

     total cpu time spent up to now is       65.6 secs

     total energy              =     -51.18140947 Ry
     estimated scf accuracy    <       0.00933927 Ry

     iteration #  5     ecut=    80.00 Ry     beta= 0.70
     Davidson diagonalization with overlap
     ethr =  6.07E-05,  avg # of iterations =  1.0

     total cpu time spent up to now is       66.2 secs

     total energy              =     -51.18094147 Ry
     estimated scf accuracy    <       0.00250410 Ry

     iteration #  6     ecut=    80.00 Ry     beta= 0.70
     Davidson diagonalization with overlap
     ethr =  1.93E-05,  avg # of iterations =  1.6

     total cpu time spent up to now is       66.8 secs

     total energy              =     -51.18125716 Ry
     estimated scf accuracy    <       0.00002657 Ry

     iteration #  7     ecut=    80.00 Ry     beta= 0.70
     Davidson diagonalization with overlap
     ethr =  2.04E-07,  avg # of iterations =  4.4

     total cpu time spent up to now is       67.5 secs

     total energy              =     -51.18126688 Ry
     estimated scf accuracy    <       0.00000030 Ry

     iteration #  8     ecut=    80.00 Ry     beta= 0.70
     Davidson diagonalization with overlap
     ethr =  2.30E-09,  avg # of iterations =  2.3

     total cpu time spent up to now is       68.1 secs

     total energy              =     -51.18126667 Ry
     estimated scf accuracy    <       0.00000108 Ry

     iteration #  9     ecut=    80.00 Ry     beta= 0.70
     Davidson diagonalization with overlap
     ethr =  2.30E-09,  avg # of iterations =  2.0

     total cpu time spent up to now is       68.7 secs

     End of self-consistent calculation

          k = 0.0000 0.0000 0.0000 (  7603 PWs)   bands (ev):

   -41.9005 -41.0673 -40.8889  -3.6907   1.6280   4.0360   8.9306   8.9306
    12.2475  12.2475  14.0491

          k =-0.6595-0.3808 0.1305 (  7658 PWs)   bands (ev):

   -41.8946 -41.0616 -40.8826  -3.0229   2.4746   4.2855   5.8151   6.9486
    10.6534  12.3696  12.7425

          k = 1.3190 0.7615-0.2611 (  7658 PWs)   bands (ev):

   -41.8887 -41.0559 -40.8763  -1.8157   1.7523   4.3961   5.9336   6.3251
     8.2594   9.5086  11.6205

          k =-0.6595 0.3808 0.2611 (  7661 PWs)   bands (ev):

   -41.8945 -41.0622 -40.8822  -3.0104   2.2642   4.8343   5.4974   6.8761
    10.3909  12.5368  13.8563

          k = 1.3190 1.5231-0.1305 (  7657 PWs)   bands (ev):

   -41.8888 -41.0555 -40.8767  -1.7930   2.2571   3.6881   4.9041   6.8016
     8.7126  10.1562  11.8692

          k = 0.6595 1.1423 0.0000 (  7638 PWs)   bands (ev):

   -41.8889 -41.0548 -40.8772  -1.8242   2.3098   4.1007   4.7351   6.8064
     7.5568  10.4096  12.2389

          k = 1.3190-0.7615-0.5222 (  7672 PWs)   bands (ev):

   -41.8888 -41.0550 -40.8772  -1.8192   2.1505   3.6272   5.8213   5.8397
     9.0374  10.7095  13.1148

          k =-0.0000-0.0000 0.3916 (  7606 PWs)   bands (ev):

   -41.8996 -41.0724 -40.8848  -3.6464   1.1302   4.9438   8.9159   8.9159
    12.1666  12.1666  12.1860

          k = 1.9786 1.1423 0.0000 (  7642 PWs)   bands (ev):

   -41.8939 -41.0655 -40.8795  -2.9617   1.7792   4.7548   6.7702   6.9292
    10.5988  12.1336  12.9546

          k = 1.3190 0.7615 0.1305 (  7664 PWs)   bands (ev):

   -41.8888 -41.0554 -40.8768  -1.8176   1.9262   4.0011   5.8759   6.1296
     8.4618  10.3295  12.8290

          k = 1.9786-1.1423-0.3916 (  7638 PWs)   bands (ev):

   -41.8937 -41.0661 -40.8790  -2.9482   1.6656   5.0367   6.6059   6.8581
    10.5700  11.6484  13.5294

          k = 1.3190-1.5231-0.2611 (  7654 PWs)   bands (ev):

   -41.8886 -41.0561 -40.8763  -1.7608   2.1993   3.4409   4.8587   7.2454
     9.4954  10.1587  11.9821

          k = 0.0000 0.0000-0.7833 (  7592 PWs)   bands (ev):

   -41.8986 -41.0772 -40.8809  -3.5996   0.7722   5.8752   8.9016   8.9016
    10.8174  12.0909  12.0909

     the Fermi energy is     5.7186 ev

!    total energy              =     -51.18126686 Ry
     estimated scf accuracy    <          3.7E-09 Ry
     smearing contrib. (-TS)   =      -0.00123999 Ry
     internal energy E=F+TS    =     -51.18002686 Ry

     The total energy is F=E-TS. E is the sum of the following terms:
     one-electron contribution =     -23.87327408 Ry
     hartree contribution      =      11.71771177 Ry
     xc contribution           =     -13.65215067 Ry
     ewald contribution        =     -25.37231389 Ry

     convergence has been achieved in   9 iterations

     Forces acting on atoms (cartesian axes, Ry/au):

     atom    1 type  1   force =    -0.00000000   -0.00000000   -0.12359167
     atom    2 type  2   force =    -0.00000000   -0.00000000    0.03284812
     atom    3 type  2   force =    -0.00000000    0.00000000    0.08607063
     atom    4 type  2   force =     0.00000000   -0.00000000    0.00467293
     The non-local contrib.  to forces
     atom    1 type  1   force =     0.00000000   -0.00000000   -0.17423792
     atom    2 type  2   force =    -0.00000000    0.00000000    0.24942852
     atom    3 type  2   force =     0.00000000   -0.00000000   -0.22685555
     atom    4 type  2   force =     0.00000000   -0.00000000   -0.00716143
     The ionic contribution  to forces
     atom    1 type  1   force =    -0.00000000   -0.00000000   -0.08441306
     atom    2 type  2   force =    -0.00000000   -0.00000000    0.48412370
     atom    3 type  2   force =     0.00000000   -0.00000000   -0.61688741
     atom    4 type  2   force =    -0.00000000    0.00000000    0.21717677
     The local contribution  to forces
     atom    1 type  1   force =    -0.00000000    0.00000000    0.12501419
     atom    2 type  2   force =     0.00000000    0.00000000   -0.70070970
     atom    3 type  2   force =     0.00000000   -0.00000000    0.92986269
     atom    4 type  2   force =     0.00000000   -0.00000000   -0.20537685
     The core correction contribution to forces
     atom    1 type  1   force =     0.00000000   -0.00000000    0.01001565
     atom    2 type  2   force =     0.00000000    0.00000000    0.00000000
     atom    3 type  2   force =     0.00000000    0.00000000    0.00000000
     atom    4 type  2   force =     0.00000000    0.00000000    0.00000000
     The Hubbard contrib.    to forces
     atom    1 type  1   force =     0.00000000    0.00000000    0.00000000
     atom    2 type  2   force =     0.00000000    0.00000000    0.00000000
     atom    3 type  2   force =     0.00000000    0.00000000    0.00000000
     atom    4 type  2   force =     0.00000000    0.00000000    0.00000000
     The SCF correction term to forces
     atom    1 type  1   force =    -0.00000000   -0.00000000    0.00002860
     atom    2 type  2   force =    -0.00000000   -0.00000000    0.00000474
     atom    3 type  2   force =     0.00000000    0.00000000   -0.00004997
     atom    4 type  2   force =     0.00000000   -0.00000000    0.00003358

     Total force =     0.154220     Total SCF correction =     0.000067


     Computing stress (Cartesian axis) and pressure

          total   stress  (Ry/bohr**3)                   (kbar)     P=      490.24
   0.00346825  -0.00000000   0.00000000          510.20       -0.00        0.00
   0.00000000   0.00346825   0.00000000            0.00      510.20        0.00
  -0.00000000   0.00000000   0.00306121           -0.00        0.00      450.32

     Energy error            =      5.0E-02 Ry
     Gradient error          =      1.2E-01 Ry/Bohr
     Cell gradient error     =      5.0E+01 kbar

     number of scf cycles    =   6
     number of bfgs steps    =   5

     enthalpy           old  =     -50.0813823331 Ry
     enthalpy           new  =     -50.1318032356 Ry

     CASE: enthalpy          _new < enthalpy          _old

     new trust radius        =       0.2006600003 bohr
ibrav =      5
 celldm(1) =     10.11791610
 celldm(4) =      0.81228136
Input lattice vectors:
     0.19714761    -0.11382322     0.60189489
    -0.00000000     0.22764645     0.60189489
    -0.19714761    -0.11382322     0.60189489
New lattice vectors in INITIAL alat:
     0.19714761    -0.11382322     0.60189489
     0.00000000     0.22764645     0.60189489
    -0.19714761    -0.11382322     0.60189489
New lattice vectors in NEW alat (for information only):
     0.30636469    -0.17687973     0.93533643
     0.00000000     0.35375947     0.93533643
    -0.30636469    -0.17687973     0.93533643
Discrepancy in bohr =     0.000000    0.000000    0.000000
     new conv_thr            =       0.0000000100 Ry

     new unit-cell volume =    314.99895 a.u.^3 (    46.67803 Ang^3 )
     density =      1.73989 g/cm^3

CELL_PARAMETERS (alat= 15.72310339)
   0.197147606  -0.113823223   0.601894886
   0.000000000   0.227646447   0.601894886
  -0.197147606  -0.113823223   0.601894886

ATOMIC_POSITIONS (crystal)
Si            0.0257137975        0.0257137975        0.0257137975
Li            0.1541879647        0.1541879647        0.1541879647
Li            0.2630057138        0.2630057138        0.2630057138
Li            0.6951391939        0.6951391939        0.6951391939



     Writing config-only to output data dir ./output/SiLi.save/
     NEW-OLD atomic charge density approx. for the potential
     extrapolated charge   13.25708, renormalised to   13.00000

     total cpu time spent up to now is       70.7 secs

     Self-consistent Calculation

     iteration #  1     ecut=    80.00 Ry     beta= 0.70
     Davidson diagonalization with overlap
     ethr =  1.00E-06,  avg # of iterations =  9.8

     total cpu time spent up to now is       72.3 secs

     total energy              =     -51.23042786 Ry
     estimated scf accuracy    <       0.02313791 Ry

     iteration #  2     ecut=    80.00 Ry     beta= 0.70
     Davidson diagonalization with overlap
     ethr =  1.78E-04,  avg # of iterations =  2.0

     total cpu time spent up to now is       73.0 secs

     total energy              =     -51.23112610 Ry
     estimated scf accuracy    <       0.03462970 Ry

     iteration #  3     ecut=    80.00 Ry     beta= 0.70
     Davidson diagonalization with overlap
     ethr =  1.78E-04,  avg # of iterations =  1.8

     total cpu time spent up to now is       73.6 secs

     total energy              =     -51.23875982 Ry
     estimated scf accuracy    <       0.00272283 Ry

     iteration #  4     ecut=    80.00 Ry     beta= 0.70
     Davidson diagonalization with overlap
     ethr =  2.09E-05,  avg # of iterations =  1.0

     total cpu time spent up to now is       74.2 secs

     total energy              =     -51.23867011 Ry
     estimated scf accuracy    <       0.00061689 Ry

     iteration #  5     ecut=    80.00 Ry     beta= 0.70
     Davidson diagonalization with overlap
     ethr =  4.75E-06,  avg # of iterations =  1.3

     total cpu time spent up to now is       74.8 secs

     total energy              =     -51.23878345 Ry
     estimated scf accuracy    <       0.00001268 Ry

     iteration #  6     ecut=    80.00 Ry     beta= 0.70
     Davidson diagonalization with overlap
     ethr =  9.75E-08,  avg # of iterations =  1.8

     total cpu time spent up to now is       75.4 secs

     total energy              =     -51.23878568 Ry
     estimated scf accuracy    <       0.00000062 Ry

     iteration #  7     ecut=    80.00 Ry     beta= 0.70
     Davidson diagonalization with overlap
     ethr =  4.79E-09,  avg # of iterations =  1.9

     total cpu time spent up to now is       76.0 secs

     total energy              =     -51.23878574 Ry
     estimated scf accuracy    <       0.00000009 Ry

     iteration #  8     ecut=    80.00 Ry     beta= 0.70
     Davidson diagonalization with overlap
     ethr =  6.64E-10,  avg # of iterations =  2.0

     total cpu time spent up to now is       76.5 secs

     End of self-consistent calculation

          k = 0.0000 0.0000 0.0000 (  7603 PWs)   bands (ev):

   -42.3846 -41.3218 -40.3066  -3.5411   2.0953   4.2272   8.3351   8.3351
    11.3091  11.3091  14.3386

          k =-0.6340-0.3661 0.1385 (  7658 PWs)   bands (ev):

   -42.3811 -41.3181 -40.3023  -2.9292   2.6850   4.2933   5.7378   6.4928
    10.0552  11.6712  11.9498

          k = 1.2681 0.7321-0.2769 (  7658 PWs)   bands (ev):

   -42.3776 -41.3145 -40.2979  -1.8491   1.5908   4.3820   5.5504   6.4112
     8.1990   9.8218  10.6643

          k =-0.6340 0.3661 0.2769 (  7661 PWs)   bands (ev):

   -42.3810 -41.3184 -40.3022  -2.9102   2.4380   4.6879   5.6578   6.3597
     9.6283  12.1125  14.2372

          k = 1.2681 1.4643-0.1385 (  7657 PWs)   bands (ev):

   -42.3775 -41.3145 -40.2979  -1.8456   2.2482   3.5280   4.5647   6.6514
     8.7407  10.1247  11.4788

          k = 0.6340 1.0982 0.0000 (  7638 PWs)   bands (ev):

   -42.3777 -41.3143 -40.2980  -1.8893   2.3243   3.7630   4.7763   6.5516
     7.4934   9.9328  12.3482

          k = 1.2681-0.7321-0.5538 (  7672 PWs)   bands (ev):

   -42.3775 -41.3145 -40.2980  -1.8513   2.1240   3.4281   5.3487   5.7961
     8.7173  11.6335  12.8565

          k =-0.0000-0.0000 0.4154 (  7606 PWs)   bands (ev):

   -42.3840 -41.3231 -40.3061  -3.4713   1.3538   5.4478   8.2952   8.2952
    11.2484  11.2484  12.9740

          k = 1.9021 1.0982 0.0000 (  7642 PWs)   bands (ev):

   -42.3805 -41.3192 -40.3018  -2.8346   1.7879   4.5755   6.4547   7.1191
    10.5246  11.8161  12.6782

          k = 1.2681 0.7321 0.1385 (  7664 PWs)   bands (ev):

   -42.3775 -41.3145 -40.2979  -1.8505   1.8152   3.8916   5.4447   6.2129
     8.2029  11.0278  12.4387

          k = 1.9021-1.0982-0.4154 (  7638 PWs)   bands (ev):

   -42.3804 -41.3194 -40.3018  -2.8136   1.6614   4.7456   6.3261   7.1309
    10.0361  11.7595  13.6461

          k = 1.2681-1.4643-0.2769 (  7654 PWs)   bands (ev):

   -42.3774 -41.3147 -40.2979  -1.8001   2.1696   3.3315   4.3546   7.1316
     9.6058  10.1079  12.0247

          k = 0.0000 0.0000-0.8307 (  7592 PWs)   bands (ev):

   -42.3833 -41.3243 -40.3055  -3.3958   0.8673   6.6311   8.2576   8.2576
    11.1806  11.1806  11.6030

     the Fermi energy is     5.5476 ev

!    total energy              =     -51.23878575 Ry
     estimated scf accuracy    <          1.7E-09 Ry
     smearing contrib. (-TS)   =      -0.00168909 Ry
[...]
    10.3832  14.3929  19.5897

     the Fermi energy is     7.8086 ev

!    total energy              =     -51.58124374 Ry
     estimated scf accuracy    <          4.0E-11 Ry
     smearing contrib. (-TS)   =      -0.00054328 Ry
     internal energy E=F+TS    =     -51.58070046 Ry

     The total energy is F=E-TS. E is the sum of the following terms:
     one-electron contribution =     -14.55149870 Ry
     hartree contribution      =       8.56948116 Ry
     xc contribution           =     -13.80117953 Ry
     ewald contribution        =     -31.79750338 Ry

     convergence has been achieved in   6 iterations

     Forces acting on atoms (cartesian axes, Ry/au):

     atom    1 type  1   force =     0.00000000    0.00000000   -0.00033055
     atom    2 type  2   force =    -0.00000000    0.00000000   -0.00013089
     atom    3 type  2   force =     0.00000000    0.00000000   -0.00002643
     atom    4 type  2   force =    -0.00000000    0.00000000    0.00048787
     The non-local contrib.  to forces
     atom    1 type  1   force =    -0.00000000    0.00000000   -0.00032509
     atom    2 type  2   force =    -0.00000000    0.00000000   -0.00000526
     atom    3 type  2   force =     0.00000000    0.00000000    0.00004192
     atom    4 type  2   force =    -0.00000000   -0.00000000    0.00005283
     The ionic contribution  to forces
     atom    1 type  1   force =     0.00000000    0.00000000   -0.00119317
     atom    2 type  2   force =     0.00000000   -0.00000000   -0.00151400
     atom    3 type  2   force =    -0.00000000   -0.00000000   -0.00012080
     atom    4 type  2   force =    -0.00000000    0.00000000    0.00282797
     The local contribution  to forces
     atom    1 type  1   force =    -0.00000000   -0.00000000    0.00116757
     atom    2 type  2   force =     0.00000000    0.00000000    0.00138810
     atom    3 type  2   force =     0.00000000   -0.00000000    0.00005221
     atom    4 type  2   force =    -0.00000000    0.00000000   -0.00239296
     The core correction contribution to forces
     atom    1 type  1   force =    -0.00000000   -0.00000000    0.00002030
     atom    2 type  2   force =     0.00000000    0.00000000    0.00000000
     atom    3 type  2   force =     0.00000000    0.00000000    0.00000000
     atom    4 type  2   force =     0.00000000    0.00000000    0.00000000
     The Hubbard contrib.    to forces
     atom    1 type  1   force =     0.00000000    0.00000000    0.00000000
     atom    2 type  2   force =     0.00000000    0.00000000    0.00000000
     atom    3 type  2   force =     0.00000000    0.00000000    0.00000000
     atom    4 type  2   force =     0.00000000    0.00000000    0.00000000
     The SCF correction term to forces
     atom    1 type  1   force =     0.00000000   -0.00000000   -0.00000015
     atom    2 type  2   force =    -0.00000000   -0.00000000    0.00000027
     atom    3 type  2   force =    -0.00000000   -0.00000000    0.00000025
     atom    4 type  2   force =    -0.00000000   -0.00000000    0.00000004

     Total force =     0.000604     Total SCF correction =     0.000000


     Computing stress (Cartesian axis) and pressure

          total   stress  (Ry/bohr**3)                   (kbar)     P=      499.21
   0.00339328  -0.00000000   0.00000000          499.17       -0.00        0.00
   0.00000000   0.00339328   0.00000000            0.00      499.17        0.00
   0.00000000   0.00000000   0.00339418            0.00        0.00      499.30

     Energy error            =      2.0E-05 Ry
     Gradient error          =      4.9E-04 Ry/Bohr
     Cell gradient error     =      8.3E-01 kbar
ibrav =      5
 celldm(1) =      6.89911178
 celldm(4) =      0.49975501
Input lattice vectors:
     0.21944783    -0.12669826     0.35822515
     0.00000000     0.25339653     0.35822515
    -0.21944783    -0.12669826     0.35822515
New lattice vectors in INITIAL alat:
     0.21944783    -0.12669826     0.35822515
     0.00000000     0.25339653     0.35822515
    -0.21944783    -0.12669826     0.35822515
New lattice vectors in NEW alat (for information only):
     0.50012248    -0.28874585     0.81639656
     0.00000000     0.57749170     0.81639656
    -0.50012248    -0.28874585     0.81639656
Discrepancy in bohr =     0.000000    0.000000    0.000000

     bfgs converged in  31 scf cycles and  29 bfgs steps
     (criteria: energy <  1.0E-04 Ry, force <  1.0E-03 Ry/Bohr, cell <  1.0E+00 kbar)

     End of BFGS Geometry Optimization

     Final enthalpy           =     -50.7917177705 Ry

     File ./output/SiLi.bfgs deleted, as requested
Begin final coordinates
     new unit-cell volume =    232.28656 a.u.^3 (    34.42132 Ang^3 )
     density =      2.35942 g/cm^3

CELL_PARAMETERS (alat= 15.72310339)
   0.219447828  -0.126698263   0.358225153
   0.000000000   0.253396525   0.358225153
  -0.219447828  -0.126698263   0.358225153

ATOMIC_POSITIONS (crystal)
Si           -0.0904474505       -0.0904474505       -0.0904474505
Li            0.1595898277        0.1595898277        0.1595898277
Li            0.4095198109        0.4095198109        0.4095198109
Li            0.6593844819        0.6593844819        0.6593844819
End final coordinates



     Writing config-only to output data dir ./output/SiLi.save/

     Final scf calculation at the relaxed structure.
     The G-vectors are recalculated for the final unit cell
     Results may differ from those at the preceding step.

     Parallelization info
     --------------------
     sticks:   dense  smooth     PW     G-vecs:    dense   smooth      PW
     Min         130     130     39                 2797     2797     461
     Max         134     134     40                 2798     2798     463
     Sum        1045    1045    313                22377    22377    3695

     Using Slab Decomposition



     bravais-lattice index     =            5
     lattice parameter (alat)  =      15.7231  a.u.
     unit-cell volume          =     232.2866 (a.u.)^3
     number of atoms/cell      =            4
     number of atomic types    =            2
     number of electrons       =        13.00
     number of Kohn-Sham states=           11
     kinetic-energy cutoff     =      80.0000  Ry
     charge density cutoff     =     320.0000  Ry
     scf convergence threshold =      1.0E-10
     mixing beta               =       0.7000
     number of iterations used =            8  plain     mixing
     press convergence thresh. =      1.0E+00
     Exchange-correlation= PBE
                           (   1   4   3   4   0   0   0)

     celldm(1)=  15.723103  celldm(2)=   0.000000  celldm(3)=   0.000000
     celldm(4)=   0.902839  celldm(5)=   0.000000  celldm(6)=   0.000000

     crystal axes: (cart. coord. in units of alat)
               a(1) = (   0.219448  -0.126698   0.358225 )  
               a(2) = (   0.000000   0.253397   0.358225 )  
               a(3) = (  -0.219448  -0.126698   0.358225 )  

     reciprocal axes: (cart. coord. in units 2 pi/alat)
               b(1) = (  2.278446 -1.315461  0.930513 )  
               b(2) = ( -0.000000  2.630923  0.930513 )  
               b(3) = ( -2.278446 -1.315461  0.930513 )  


     PseudoPot. # 1 for Si read from file:
     ../pseudo/Si_ONCV_PBE_sr.upf
     MD5 check sum: e543d271109d17c80368dfa7c482276d
     Pseudo is Norm-conserving + core correction, Zval =  4.0
     Generated using ONCVPSP code by D. R. Hamann
     Using radial grid of 1510 points,  6 beta functions with: 
                l(1) =   0
                l(2) =   0
                l(3) =   1
                l(4) =   1
                l(5) =   2
                l(6) =   2

     PseudoPot. # 2 for Li read from file:
     ../pseudo/Li_ONCV_PBE_sr.upf
     MD5 check sum: 50ff420e78310ffa21704f3361e624a4
     Pseudo is Norm-conserving, Zval =  3.0
     Generated using ONCVPSP code by D. R. Hamann
     Using radial grid of 1944 points,  4 beta functions with: 
                l(1) =   0
                l(2) =   0
                l(3) =   1
                l(4) =   1

     atomic species   valence    mass     pseudopotential
        Si             4.00    28.08550     Si( 1.00)
        Li             3.00     6.94100     Li( 1.00)

      6 Sym. Ops. (no inversion) found



   Cartesian axes

     site n.     atom                  positions (alat units)
         1           Si  tau(   1) = (  -0.0000000  -0.0000000  -0.0972017  )
         2           Li  tau(   2) = (  -0.0000000  -0.0000000   0.1715073  )
         3           Li  tau(   3) = (  -0.0000000  -0.0000000   0.4401009  )
         4           Li  tau(   4) = (   0.0000000  -0.0000000   0.7086243  )

     number of k points=    13  Marzari-Vanderbilt smearing, width (Ry)=  0.0200
                       cart. coord. in units 2pi/alat
        k(    1) = (   0.0000000   0.0000000   0.0000000), wk =   0.0312500
        k(    2) = (  -0.5696115  -0.3288653   0.2326284), wk =   0.1875000
        k(    3) = (   1.1392229   0.6577307  -0.4652567), wk =   0.0937500
        k(    4) = (  -0.5696115   0.3288653   0.4652567), wk =   0.1875000
        k(    5) = (   1.1392229   1.3154613  -0.2326284), wk =   0.3750000
        k(    6) = (   0.5696115   0.9865960   0.0000000), wk =   0.1875000
        k(    7) = (   1.1392229  -0.6577307  -0.9305135), wk =   0.0937500
        k(    8) = (  -0.0000000  -0.0000000   0.6978851), wk =   0.0625000
        k(    9) = (   1.7088344   0.9865960   0.0000000), wk =   0.1875000
        k(   10) = (   1.1392229   0.6577307   0.2326284), wk =   0.1875000
        k(   11) = (   1.7088344  -0.9865960  -0.6978851), wk =   0.1875000
        k(   12) = (   1.1392229  -1.3154613  -0.4652567), wk =   0.1875000
        k(   13) = (   0.0000000   0.0000000  -1.3957702), wk =   0.0312500

     Dense  grid:    22377 G-vectors     FFT dimensions: (  40,  40,  40)

     Estimated max dynamical RAM per process >      14.71 MB

     Estimated total dynamical RAM >     117.72 MB

     Initial potential from superposition of free atoms

     starting charge      12.9857, renormalised to      13.0000
     Starting wfcs are   10 randomized atomic wfcs +    1 random wfcs

     total cpu time spent up to now is      231.6 secs

     Self-consistent Calculation

     iteration #  1     ecut=    80.00 Ry     beta= 0.70
     Davidson diagonalization with overlap
     ethr =  1.00E-06,  avg # of iterations = 14.6

     total cpu time spent up to now is      232.0 secs

     total energy              =     -51.58089785 Ry
     estimated scf accuracy    <       0.01078045 Ry

     iteration #  2     ecut=    80.00 Ry     beta= 0.70
     Davidson diagonalization with overlap
     ethr =  8.29E-05,  avg # of iterations =  1.0

     total cpu time spent up to now is      232.1 secs

     total energy              =     -51.58118297 Ry
     estimated scf accuracy    <       0.00070726 Ry

     iteration #  3     ecut=    80.00 Ry     beta= 0.70
     Davidson diagonalization with overlap
     ethr =  5.44E-06,  avg # of iterations =  1.0

     total cpu time spent up to now is      232.2 secs

     total energy              =     -51.58120365 Ry
     estimated scf accuracy    <       0.00001243 Ry

     iteration #  4     ecut=    80.00 Ry     beta= 0.70
     Davidson diagonalization with overlap
     ethr =  9.56E-08,  avg # of iterations =  1.5

     total cpu time spent up to now is      232.3 secs

     total energy              =     -51.58120416 Ry
     estimated scf accuracy    <       0.00000025 Ry

     iteration #  5     ecut=    80.00 Ry     beta= 0.70
     Davidson diagonalization with overlap
     ethr =  1.90E-09,  avg # of iterations =  2.2

     total cpu time spent up to now is      232.4 secs

     total energy              =     -51.58120422 Ry
     estimated scf accuracy    <          1.4E-09 Ry

     iteration #  6     ecut=    80.00 Ry     beta= 0.70
     Davidson diagonalization with overlap
     ethr =  1.05E-11,  avg # of iterations =  3.6

     total cpu time spent up to now is      232.5 secs

     End of self-consistent calculation

          k = 0.0000 0.0000 0.0000 (  2741 PWs)   bands (ev):

   -37.6730 -37.0975 -37.0481  -1.4637   9.6527   9.6527   9.6604  11.3166
    11.3166  11.3227  16.0989

          k =-0.5696-0.3289 0.2326 (  2806 PWs)   bands (ev):

   -37.6388 -37.1094 -37.0669  -0.9728   5.7362   8.6128   8.6186  11.8710
    11.8728  13.9580  14.7784

          k = 1.1392 0.6577-0.4653 (  2824 PWs)   bands (ev):

   -37.6015 -37.1172 -37.0928  -0.1900   3.4774   8.3402   8.3461  10.3867
    10.3893  14.3953  19.5901

          k =-0.5696 0.3289 0.4653 (  2826 PWs)   bands (ev):

   -37.6275 -37.1165 -37.0699  -0.7762   6.5783   6.5829   7.4351  11.1777
    12.1070  15.6315  15.6331

          k = 1.1392 1.3155-0.2326 (  2807 PWs)   bands (ev):

   -37.5904 -37.1232 -37.0967   0.1071   4.1400   5.9208   6.2496  11.3002
    14.3754  14.6771  16.8879

          k = 0.5696 0.9866 0.0000 (  2810 PWs)   bands (ev):

   -37.6028 -37.1160 -37.0927  -0.2444   4.7643   5.4746   7.7573  12.0117
    13.1833  13.9991  16.9263

          k = 1.1392-0.6577-0.9305 (  2780 PWs)   bands (ev):

   -37.5780 -37.1393 -37.0915   0.5333   4.2456   5.2909   5.2954  10.4583
    13.0051  19.9036  20.3539

          k =-0.0000-0.0000 0.6979 (  2806 PWs)   bands (ev):

   -37.6386 -37.1095 -37.0669  -0.9715   5.7385   8.6121   8.6121  11.8679
    11.8679  13.9584  14.7823

          k = 1.7088 0.9866 0.0000 (  2810 PWs)   bands (ev):

   -37.6026 -37.1161 -37.0927  -0.2425   4.7632   5.4751   7.7535  12.0090
    13.1817  13.9963  16.9226

          k = 1.1392 0.6577 0.2326 (  2807 PWs)   bands (ev):

   -37.5904 -37.1231 -37.0968   0.1069   4.1418   5.9218   6.2455  11.2990
    14.3781  14.6822  16.8901

          k = 1.7088-0.9866-0.6979 (  2807 PWs)   bands (ev):

   -37.5902 -37.1233 -37.0967   0.1094   4.1400   5.9203   6.2450  11.2974
    14.3712  14.6813  16.8843

          k = 1.1392-1.3155-0.4653 (  2780 PWs)   bands (ev):

   -37.5780 -37.1156 -37.1154   0.5582   4.7034   4.7051   4.9038  13.2216
    14.3650  15.5036  15.5114

          k = 0.0000 0.0000-1.3958 (  2824 PWs)   bands (ev):

   -37.6012 -37.1175 -37.0928  -0.1858   3.4755   8.3399   8.3399  10.3832
    10.3832  14.3928  19.5895

     the Fermi energy is     7.8085 ev

!    total energy              =     -51.58120422 Ry
     estimated scf accuracy    <          2.5E-11 Ry
     smearing contrib. (-TS)   =      -0.00054329 Ry
     internal energy E=F+TS    =     -51.58066093 Ry

     The total energy is F=E-TS. E is the sum of the following terms:
     one-electron contribution =     -14.55152848 Ry
     hartree contribution      =       8.56951643 Ry
     xc contribution           =     -13.80114550 Ry
     ewald contribution        =     -31.79750338 Ry

     convergence has been achieved in   6 iterations

     Forces acting on atoms (cartesian axes, Ry/au):

     atom    1 type  1   force =    -0.00000000    0.00000000   -0.00033051
     atom    2 type  2   force =    -0.00000000   -0.00000000   -0.00012951
     atom    3 type  2   force =    -0.00000000   -0.00000000   -0.00002634
     atom    4 type  2   force =     0.00000000   -0.00000000    0.00048637
     The non-local contrib.  to forces
     atom    1 type  1   force =     0.00000000    0.00000000   -0.00032472
     atom    2 type  2   force =    -0.00000000   -0.00000000   -0.00001112
     atom    3 type  2   force =    -0.00000000   -0.00000000    0.00004205
     atom    4 type  2   force =    -0.00000000   -0.00000000    0.00005806
     The ionic contribution  to forces
     atom    1 type  1   force =     0.00000000    0.00000000   -0.00119317
     atom    2 type  2   force =     0.00000000   -0.00000000   -0.00151400
     atom    3 type  2   force =    -0.00000000   -0.00000000   -0.00012080
     atom    4 type  2   force =    -0.00000000    0.00000000    0.00282797
     The local contribution  to forces
     atom    1 type  1   force =    -0.00000000   -0.00000000    0.00116671
     atom    2 type  2   force =     0.00000000    0.00000000    0.00139562
     atom    3 type  2   force =     0.00000000   -0.00000000    0.00005247
     atom    4 type  2   force =    -0.00000000    0.00000000   -0.00239991
     The core correction contribution to forces
     atom    1 type  1   force =    -0.00000000   -0.00000000    0.00002027
     atom    2 type  2   force =     0.00000000    0.00000000    0.00000000
     atom    3 type  2   force =     0.00000000    0.00000000    0.00000000
     atom    4 type  2   force =     0.00000000    0.00000000    0.00000000
     The Hubbard contrib.    to forces
     atom    1 type  1   force =     0.00000000    0.00000000    0.00000000
     atom    2 type  2   force =     0.00000000    0.00000000    0.00000000
     atom    3 type  2   force =     0.00000000    0.00000000    0.00000000
     atom    4 type  2   force =     0.00000000    0.00000000    0.00000000
     The SCF correction term to forces
     atom    1 type  1   force =    -0.00000000    0.00000000    0.00000020
     atom    2 type  2   force =     0.00000000   -0.00000000   -0.00000020
     atom    3 type  2   force =     0.00000000    0.00000000   -0.00000026
     atom    4 type  2   force =    -0.00000000   -0.00000000    0.00000006

     Total force =     0.000603     Total SCF correction =     0.000000


     Computing stress (Cartesian axis) and pressure

          total   stress  (Ry/bohr**3)                   (kbar)     P=      499.15
   0.00339298   0.00000000  -0.00000000          499.12        0.00       -0.00
   0.00000000   0.00339298   0.00000000            0.00      499.12        0.00
  -0.00000000   0.00000000   0.00339356           -0.00        0.00      499.21


     Writing all to output data dir ./output/SiLi.save/

     init_run     :      1.47s CPU      1.83s WALL (       2 calls)
     electrons    :    157.16s CPU    170.65s WALL (      32 calls)
     update_pot   :     18.52s CPU     18.71s WALL (      30 calls)
     forces       :     10.69s CPU     10.88s WALL (      32 calls)
     stress       :     28.16s CPU     30.11s WALL (      32 calls)

     Called by init_run:
     wfcinit      :      0.27s CPU      0.35s WALL (       2 calls)
     potinit      :      0.43s CPU      0.55s WALL (       2 calls)
     hinit0       :      0.71s CPU      0.81s WALL (       2 calls)

     Called by electrons:
     c_bands      :    125.77s CPU    136.20s WALL (     230 calls)
     sum_band     :     21.57s CPU     23.30s WALL (     230 calls)
     v_of_rho     :     10.58s CPU     11.46s WALL (     258 calls)
     mix_rho      :      0.34s CPU      0.51s WALL (     230 calls)

     Called by c_bands:
     init_us_2    :      1.49s CPU      1.65s WALL (    6838 calls)
     init_us_2:cp :      1.48s CPU      1.64s WALL (    6838 calls)
     cegterg      :    123.44s CPU    132.86s WALL (    2990 calls)

     Called by *egterg:
     cdiaghg      :      1.52s CPU      1.75s WALL (   11615 calls)
     h_psi        :    118.94s CPU    127.96s WALL (   12083 calls)
     g_psi        :      0.19s CPU      0.20s WALL (    9067 calls)

     Called by h_psi:
     h_psi:calbec :      1.47s CPU      1.61s WALL (   12083 calls)
     vloc_psi     :    116.18s CPU    124.95s WALL (   12083 calls)
     add_vuspsi   :      1.16s CPU      1.25s WALL (   12083 calls)

     General routines
     calbec       :      1.84s CPU      2.00s WALL (   14163 calls)
     fft          :      3.32s CPU      4.53s WALL (    3382 calls)
     ffts         :      0.19s CPU      0.24s WALL (     230 calls)
     fftw         :    118.82s CPU    127.57s WALL (  223780 calls)

     Parallel routines

     PWSCF        :   3m36.40s CPU   3m53.11s WALL


   This run was terminated on:  11:21:26  29Dec2024            

=------------------------------------------------------------------------------=
   JOB DONE.
=------------------------------------------------------------------------------=
