
     Program PWSCF v.7.2 starts on 29Dec2024 at 15: 5:24 

     This program is part of the open-source Quantum ESPRESSO suite
     for quantum simulation of materials; please cite
         "P. Giannozzi et al., J. Phys.:Condens. Matter 21 395502 (2009);
         "P. Giannozzi et al., J. Phys.:Condens. Matter 29 465901 (2017);
         "P. Giannozzi et al., J. Chem. Phys. 152 154105 (2020);
          URL http://www.quantum-espresso.org", 
     in publications or presentations arising from this work. More details at
     http://www.quantum-espresso.org/quote

     Parallel version (MPI & OpenMP), running on       8 processor cores
     Number of MPI processes:                 8
     Threads/MPI process:                     1

     MPI processes distributed on     1 nodes
     481410 MiB available memory on the printing compute node when the environment starts

     Waiting for input...
     Reading input from standard input

     Current dimensions of program PWSCF are:
     Max number of different atomic species (ntypx) = 10
     Max number of k-points (npk) =  40000
     Max angular momentum in pseudopotentials (lmaxx) =  4

     R & G space division:  proc/nbgrp/npool/nimage =       8
     Subspace diagonalization in iterative solution of the eigenvalue problem:
     a serial algorithm will be used


     Parallelization info
     --------------------
     sticks:   dense  smooth     PW     G-vecs:    dense   smooth      PW
     Min          76      76     23                 3767     3767     609
     Max          77      77     24                 3772     3772     616
     Sum         613     613    187                30145    30145    4907

     Using Slab Decomposition



     bravais-lattice index     =            4
     lattice parameter (alat)  =       5.2871  a.u.
     unit-cell volume          =     311.9675 (a.u.)^3
     number of atoms/cell      =            8
     number of atomic types    =            2
     number of electrons       =        30.00
     number of Kohn-Sham states=           19
     kinetic-energy cutoff     =      80.0000  Ry
     charge density cutoff     =     320.0000  Ry
     scf convergence threshold =      1.0E-08
     mixing beta               =       0.7000
     number of iterations used =            8  plain     mixing
     energy convergence thresh.=      1.0E-04
     force convergence thresh. =      1.0E-03
     press convergence thresh. =      1.0E+00
     Exchange-correlation= PBE
                           (   1   4   3   4   0   0   0)
     nstep                     =           50


     celldm(1)=   5.287133  celldm(2)=   0.000000  celldm(3)=   2.437351
     celldm(4)=   0.000000  celldm(5)=   0.000000  celldm(6)=   0.000000

     crystal axes: (cart. coord. in units of alat)
               a(1) = (   1.000000   0.000000   0.000000 )  
               a(2) = (  -0.500000   0.866025   0.000000 )  
               a(3) = (   0.000000   0.000000   2.437351 )  

     reciprocal axes: (cart. coord. in units 2 pi/alat)
               b(1) = (  1.000000  0.577350 -0.000000 )  
               b(2) = (  0.000000  1.154701  0.000000 )  
               b(3) = (  0.000000 -0.000000  0.410282 )  


     PseudoPot. # 1 for Si read from file:
     ../pseudo/Si_ONCV_PBE_sr.upf
     MD5 check sum: e543d271109d17c80368dfa7c482276d
     Pseudo is Norm-conserving + core correction, Zval =  4.0
     Generated using ONCVPSP code by D. R. Hamann
     Using radial grid of 1510 points,  6 beta functions with: 
                l(1) =   0
                l(2) =   0
                l(3) =   1
                l(4) =   1
                l(5) =   2
                l(6) =   2

     PseudoPot. # 2 for Li read from file:
     ../pseudo/Li_ONCV_PBE_sr.upf
     MD5 check sum: 50ff420e78310ffa21704f3361e624a4
     Pseudo is Norm-conserving, Zval =  3.0
     Generated using ONCVPSP code by D. R. Hamann
     Using radial grid of 1944 points,  4 beta functions with: 
                l(1) =   0
                l(2) =   0
                l(3) =   1
                l(4) =   1

     atomic species   valence    mass     pseudopotential
        Si             4.00    28.08550     Si( 1.00)
        Li             3.00     6.94100     Li( 1.00)

     12 Sym. Ops., with inversion, found



   Cartesian axes

     site n.     atom                  positions (alat units)
         1           Si  tau(   1) = (   0.0000000   0.0000000   0.5993629  )
         2           Si  tau(   2) = (   0.0000000   0.0000000   1.8379880  )
         3           Si  tau(   3) = (  -0.0000000   0.5773503   1.4262366  )
         4           Si  tau(   4) = (   0.5000000   0.2886751   1.0111143  )
         5           Si  tau(   5) = (  -0.0000000   0.5773503   0.2118948  )
         6           Si  tau(   6) = (   0.5000000   0.2886751   2.2254561  )
         7           Li  tau(   7) = (  -0.0000000   0.5773503   0.8105252  )
         8           Li  tau(   8) = (   0.5000000   0.2886751   1.6268257  )

     number of k points=    43  Marzari-Vanderbilt smearing, width (Ry)=  0.0200
                       cart. coord. in units 2pi/alat
        k(    1) = (   0.0000000   0.0000000   0.0000000), wk =   0.0061728
        k(    2) = (   0.0000000   0.0000000   0.1025704), wk =   0.0123457
        k(    3) = (   0.0000000   0.0000000  -0.2051408), wk =   0.0061728
        k(    4) = (   0.0000000   0.1283001   0.0000000), wk =   0.0370370
        k(    5) = (   0.0000000   0.1283001   0.1025704), wk =   0.0370370
        k(    6) = (   0.0000000   0.1283001  -0.2051408), wk =   0.0370370
        k(    7) = (   0.0000000   0.2566001   0.0000000), wk =   0.0370370
        k(    8) = (   0.0000000   0.2566001   0.1025704), wk =   0.0370370
        k(    9) = (   0.0000000   0.2566001  -0.2051408), wk =   0.0370370
        k(   10) = (   0.0000000   0.3849002   0.0000000), wk =   0.0370370
        k(   11) = (   0.0000000   0.3849002   0.1025704), wk =   0.0370370
        k(   12) = (   0.0000000   0.3849002  -0.2051408), wk =   0.0370370
        k(   13) = (   0.0000000   0.5132002   0.0000000), wk =   0.0370370
        k(   14) = (   0.0000000   0.5132002   0.1025704), wk =   0.0370370
        k(   15) = (   0.0000000   0.5132002  -0.2051408), wk =   0.0370370
        k(   16) = (   0.1111111   0.1924501   0.0000000), wk =   0.0370370
        k(   17) = (   0.1111111   0.1924501   0.1025704), wk =   0.0740741
        k(   18) = (   0.1111111   0.1924501  -0.2051408), wk =   0.0370370
        k(   19) = (   0.1111111   0.3207501   0.0000000), wk =   0.0740741
        k(   20) = (   0.1111111   0.3207501   0.1025704), wk =   0.0740741
        k(   21) = (   0.1111111   0.3207501  -0.2051408), wk =   0.0740741
        k(   22) = (   0.1111111   0.4490502   0.0000000), wk =   0.0740741
        k(   23) = (   0.1111111   0.4490502   0.1025704), wk =   0.0740741
        k(   24) = (   0.1111111   0.4490502  -0.2051408), wk =   0.0740741
        k(   25) = (   0.1111111   0.5773503   0.0000000), wk =   0.0370370
        k(   26) = (   0.1111111   0.5773503   0.1025704), wk =   0.0740741
        k(   27) = (   0.1111111   0.5773503  -0.2051408), wk =   0.0370370
        k(   28) = (   0.2222222   0.3849002   0.0000000), wk =   0.0370370
        k(   29) = (   0.2222222   0.3849002   0.1025704), wk =   0.0740741
        k(   30) = (   0.2222222   0.3849002  -0.2051408), wk =   0.0370370
        k(   31) = (   0.2222222   0.5132002   0.0000000), wk =   0.0740741
        k(   32) = (   0.2222222   0.5132002   0.1025704), wk =   0.0740741
        k(   33) = (   0.2222222   0.5132002  -0.2051408), wk =   0.0740741
        k(   34) = (   0.3333333   0.5773503   0.0000000), wk =   0.0123457
        k(   35) = (   0.3333333   0.5773503   0.1025704), wk =   0.0246914
        k(   36) = (   0.3333333   0.5773503  -0.2051408), wk =   0.0123457
        k(   37) = (   0.0000000   0.1283001  -0.1025704), wk =   0.0370370
        k(   38) = (   0.0000000   0.2566001  -0.1025704), wk =   0.0370370
        k(   39) = (   0.0000000   0.3849002  -0.1025704), wk =   0.0370370
        k(   40) = (   0.0000000   0.5132002  -0.1025704), wk =   0.0370370
        k(   41) = (  -0.1111111   0.3207501  -0.1025704), wk =   0.0740741
        k(   42) = (  -0.1111111   0.4490502  -0.1025704), wk =   0.0740741
        k(   43) = (  -0.2222222   0.5132002  -0.1025704), wk =   0.0740741

     Dense  grid:    30145 G-vectors     FFT dimensions: (  32,  32,  75)

     Estimated max dynamical RAM per process >      21.42 MB

     Estimated total dynamical RAM >     171.37 MB

     Initial potential from superposition of free atoms

     starting charge      29.9872, renormalised to      30.0000
     Starting wfcs are   28 randomized atomic wfcs

     total cpu time spent up to now is        1.5 secs

     Self-consistent Calculation

     iteration #  1     ecut=    80.00 Ry     beta= 0.70
     Davidson diagonalization with overlap
     ethr =  1.00E-02,  avg # of iterations =  7.4

     total cpu time spent up to now is        2.9 secs

     total energy              =     -73.32803809 Ry
     estimated scf accuracy    <       2.87851284 Ry

     iteration #  2     ecut=    80.00 Ry     beta= 0.70
     Davidson diagonalization with overlap
     ethr =  9.60E-03,  avg # of iterations =  6.5

     total cpu time spent up to now is        4.4 secs

     total energy              =     -68.79736175 Ry
     estimated scf accuracy    <      68.74672119 Ry

     iteration #  3     ecut=    80.00 Ry     beta= 0.70
     Davidson diagonalization with overlap
     ethr =  9.60E-03,  avg # of iterations =  5.0

     total cpu time spent up to now is        5.6 secs

     total energy              =     -75.39313904 Ry
     estimated scf accuracy    <       0.08869035 Ry

     iteration #  4     ecut=    80.00 Ry     beta= 0.70
     Davidson diagonalization with overlap
     ethr =  2.96E-04,  avg # of iterations =  7.7

     total cpu time spent up to now is        6.9 secs

     total energy              =     -75.45395140 Ry
     estimated scf accuracy    <       0.08232967 Ry

     iteration #  5     ecut=    80.00 Ry     beta= 0.70
     Davidson diagonalization with overlap
     ethr =  2.74E-04,  avg # of iterations =  1.3

     total cpu time spent up to now is        7.7 secs

     total energy              =     -75.45840392 Ry
     estimated scf accuracy    <       0.00566853 Ry

     iteration #  6     ecut=    80.00 Ry     beta= 0.70
     Davidson diagonalization with overlap
     ethr =  1.89E-05,  avg # of iterations =  5.3

     total cpu time spent up to now is        8.7 secs

     total energy              =     -75.45932882 Ry
     estimated scf accuracy    <       0.00001625 Ry

     iteration #  7     ecut=    80.00 Ry     beta= 0.70
     Davidson diagonalization with overlap
     c_bands:  1 eigenvalues not converged
     ethr =  5.42E-08,  avg # of iterations =  7.7

     total cpu time spent up to now is       10.2 secs

     total energy              =     -75.45936190 Ry
     estimated scf accuracy    <       0.00013714 Ry

     iteration #  8     ecut=    80.00 Ry     beta= 0.70
     Davidson diagonalization with overlap
     ethr =  5.42E-08,  avg # of iterations =  3.0

     total cpu time spent up to now is       11.1 secs

     total energy              =     -75.45937373 Ry
     estimated scf accuracy    <       0.00000102 Ry

     iteration #  9     ecut=    80.00 Ry     beta= 0.70
     Davidson diagonalization with overlap
     ethr =  3.41E-09,  avg # of iterations =  4.2

     total cpu time spent up to now is       12.1 secs

     total energy              =     -75.45937407 Ry
     estimated scf accuracy    <       0.00000043 Ry

     iteration # 10     ecut=    80.00 Ry     beta= 0.70
     Davidson diagonalization with overlap
     ethr =  1.42E-09,  avg # of iterations =  1.9

     total cpu time spent up to now is       12.9 secs

     End of self-consistent calculation

          k = 0.0000 0.0000 0.0000 (  3787 PWs)   bands (ev):

   -26.8367 -26.7725   3.2753   5.5251   6.3725  13.0955  14.4372  20.5874
    20.5874  21.3967  21.3967  23.4975  23.4975  24.1339  24.2155  24.2155
    24.9635  25.2145  25.2145

          k = 0.0000 0.0000 0.1026 (  3775 PWs)   bands (ev):

   -26.8366 -26.7727   3.3318   5.0569   7.0628  11.6979  16.2295  20.6365
    20.6365  21.4288  21.4288  21.7567  23.1991  23.1991  23.7002  23.7002
    25.9247  25.9248  26.4724

          k = 0.0000 0.0000-0.2051 (  3792 PWs)   bands (ev):

   -26.8365 -26.7728   3.3997   4.7621   7.6728  10.7757  18.2770  19.5401
    20.6922  20.6922  21.4567  21.4567  23.0400  23.0400  23.3091  23.3091
    27.3140  27.3181  27.3188

          k = 0.0000 0.1283 0.0000 (  3789 PWs)   bands (ev):

   -26.8250 -26.7645   3.5291   5.7533   6.5706  13.3016  14.5050  18.5485
    19.1194  20.4835  21.0423  21.8317  22.8938  23.2974  23.8352  24.3926
    25.1228  25.6635  26.2319

          k = 0.0000 0.1283 0.1026 (  3783 PWs)   bands (ev):

   -26.8249 -26.7647   3.5924   5.2533   7.3022  11.8380  16.3108  18.6310
    19.2186  20.1345  20.6624  21.5467  22.8011  23.2736  24.0895  24.2814
    24.4949  25.7401  27.2171

          k = 0.0000 0.1283-0.2051 (  3786 PWs)   bands (ev):

   -26.8248 -26.7648   3.6715   4.9388   7.9549  10.8742  18.2601  18.7248
    19.3133  19.4525  20.0236  20.4253  23.1275  23.7619  24.2430  24.5518
    25.1857  25.3274  25.7383

          k = 0.0000 0.2566 0.0000 (  3795 PWs)   bands (ev):

   -26.7949 -26.7448   4.2731   6.4479   7.1459  13.8856  14.4061  16.0378
    17.6414  17.8436  18.3141  19.6742  21.7912  22.7187  23.2419  24.4280
    25.3447  26.5503  27.1148

          k = 0.0000 0.2566 0.1026 (  3790 PWs)   bands (ev):

   -26.7948 -26.7449   4.3555   5.8528   7.9985  12.2136  15.6223  16.3639
    17.6571  17.7378  19.2674  19.3096  21.8146  22.6345  23.0720  23.8015
    24.4634  25.9734  26.4965

          k = 0.0000 0.2566-0.2051 (  3790 PWs)   bands (ev):

   -26.7947 -26.7450   4.4774   5.4687   8.7962  11.1290  16.0598  16.2424
    17.8445  18.6838  18.9789  19.6409  21.1325  22.8749  23.2990  23.6750
    23.7634  24.5757  26.6285

          k = 0.0000 0.3849 0.0000 (  3781 PWs)   bands (ev):

   -26.7593 -26.7237   5.4458   7.6190   7.9989  12.5897  14.2127  14.6589
    15.8266  16.4441  16.6377  18.6849  20.7747  21.6274  22.3215  23.2278
    24.0576  24.4439  27.4052

          k = 0.0000 0.3849 0.1026 (  3782 PWs)   bands (ev):

   -26.7592 -26.7237   5.5465   6.8753   9.0208  12.1577  13.4936  14.5611
    16.2618  16.7305  17.3199  18.2856  21.5802  21.7869  22.3272  22.4077
    23.8045  24.4591  25.1460

          k = 0.0000 0.3849-0.2051 (  3780 PWs)   bands (ev):

   -26.7591 -26.7238   5.7768   6.3328  10.1760  11.1622  13.2424  14.1614
    16.8416  17.1254  17.9797  18.0786  20.3532  22.3082  22.6531  22.7828
    23.5781  23.9244  25.1620

          k = 0.0000 0.5132 0.0000 (  3757 PWs)   bands (ev):

   -26.7339 -26.7119   6.8480   8.3847   9.3496  10.9620  12.3384  12.6665
    16.1343  16.4904  17.1449  18.1835  19.4589  20.2666  21.4256  22.5049
    23.6463  23.8929  26.9813

          k = 0.0000 0.5132 0.1026 (  3759 PWs)   bands (ev):

   -26.7339 -26.7120   6.9090   8.1450   9.4749  11.0794  12.0817  13.4834
    15.3564  16.2237  16.6440  17.7955  21.0368  21.0888  21.6447  22.3618
    23.3296  24.0253  24.7281

          k = 0.0000 0.5132-0.2051 (  3756 PWs)   bands (ev):

   -26.7338 -26.7120   7.2137   7.5027  10.0958  10.8891  12.0533  14.0791
    14.6054  16.2163  16.3380  17.4772  21.2755  21.9897  22.2783  22.7085
    23.0757  23.6517  24.9021

          k = 0.1111 0.1925 0.0000 (  3781 PWs)   bands (ev):

   -26.8041 -26.7507   4.0284   6.2156   6.9594  13.7051  14.5986  16.8042
    17.3696  19.1558  19.2526  20.1432  20.3085  23.9999  24.3061  25.3073
    25.4710  26.4627  27.0373

          k = 0.1111 0.1925 0.1026 (  3791 PWs)   bands (ev):

   -26.8040 -26.7508   4.1068   5.6469   7.7760  12.1102  16.3900  16.9008
    17.4527  18.6110  18.8514  20.4926  21.1780  23.4808  24.1096  24.6496
    25.0978  25.5127  26.3964

          k = 0.1111 0.1925-0.2051 (  3790 PWs)   bands (ev):

   -26.8039 -26.7509   4.2107   5.2933   8.5167  11.0641  17.0219  17.5237
    17.7283  18.0700  19.1279  19.8384  22.4085  23.0649  23.6700  23.9924
    24.3962  25.0884  26.2341

          k = 0.1111 0.3208 0.0000 (  3773 PWs)   bands (ev):

   -26.7712 -26.7303   4.9922   7.1597   7.6966  13.8057  14.4038  15.1943
    15.6230  16.8226  17.3563  18.3023  18.9935  23.0216  24.0144  24.8866
    25.3461  26.0848  26.9125

          k = 0.1111 0.3208 0.1026 (  3776 PWs)   bands (ev):

   -26.7711 -26.7304   5.0936   6.4606   8.6707  12.5293  14.3586  15.3441
    15.9998  17.3852  17.6673  18.1277  19.7134  22.7247  23.3645  23.9571
    24.6216  25.2200  26.9092

          k = 0.1111 0.3208-0.2051 (  3782 PWs)   bands (ev):

   -26.7710 -26.7304   5.2690   6.0022   9.6288  11.3572  14.6141  14.8063
    16.5038  16.9551  18.3287  19.3555  20.0299  21.4510  22.6483  23.3529
    24.5842  25.2189  27.6101

          k = 0.1111 0.4491 0.0000 (  3762 PWs)   bands (ev):

   -26.7403 -26.7143   6.3270   8.4473   8.6927  11.6781  13.3526  13.5953
    15.1852  16.0174  16.8410  17.7533  18.2703  20.7570  22.8859  23.8279
    24.6576  25.5415  26.4199

          k = 0.1111 0.4491 0.1026 (  3767 PWs)   bands (ev):

   -26.7403 -26.7144   6.4278   7.6970   9.6442  11.6723  12.6539  14.3135
    14.5465  16.0169  16.9206  17.2740  19.1353  21.6170  22.2912  23.6936
    24.5215  24.7228  25.7104

          k = 0.1111 0.4491-0.2051 (  3764 PWs)   bands (ev):

   -26.7402 -26.7144   6.7590   7.0240  10.9155  11.2875  12.0048  13.5682
    15.4922  16.0335  16.3448  17.5530  19.9696  20.6352  22.7755  23.5832
    24.5400  24.8498  26.1047

          k = 0.1111 0.5774 0.0000 (  3756 PWs)   bands (ev):

   -26.7266 -26.7095   7.4586   8.4305  10.4087  10.5355  11.8353  12.1955
    15.1491  16.8405  16.9044  17.3968  18.3288  19.3529  22.0122  23.6749
    24.4862  25.3448  26.3607

          k = 0.1111 0.5774 0.1026 (  3753 PWs)   bands (ev):

   -26.7266 -26.7095   7.5426   8.3233   9.9715  10.6229  12.4243  12.6691
    14.9421  15.7637  16.3574  17.1306  19.0114  20.3303  22.8151  23.2073
    24.6375  25.0742  25.4303

          k = 0.1111 0.5774-0.2051 (  3744 PWs)   bands (ev):

   -26.7265 -26.7096   7.6637   8.1735   9.7679  10.5621  13.0426  13.7987
    14.2484  14.5111  16.1395  16.8998  20.0693  20.3099  23.4413  23.7456
    24.0254  25.3765  25.4576

          k = 0.2222 0.3849 0.0000 (  3765 PWs)   bands (ev):

   -26.7428 -26.7153   6.1402   8.3819   8.5571  12.4492  13.4045  14.6659
    14.9976  15.5931  15.8276  17.0028  17.6458  21.3864  23.7170  24.8651
    25.2064  26.6571  27.4268

          k = 0.2222 0.3849 0.1026 (  3750 PWs)   bands (ev):

   -26.7428 -26.7153   6.2728   7.4677   9.7590  12.5240  12.9747  13.6721
    14.7286  15.5304  17.0062  17.4221  18.1126  20.4339  22.9159  25.4243
    26.2619  26.4184  27.0211

          k = 0.2222 0.3849-0.2051 (  3766 PWs)   bands (ev):

   -26.7427 -26.7154   6.5527   6.8993  10.9888  11.7477  12.6389  13.2598
    14.6388  15.5659  17.4479  18.3766  18.6435  19.1411  23.0020  24.0369
    26.6861  27.3713  27.8580

          k = 0.2222 0.5132 0.0000 (  3762 PWs)   bands (ev):

   -26.7217 -26.7081   7.5864   9.1753  10.1143  10.9194  11.9399  12.7581
    14.1223  15.3551  15.4433  17.2290  17.9556  19.7312  22.4264  24.1798
    24.4517  27.1453  28.0599

          k = 0.2222 0.5132 0.1026 (  3758 PWs)   bands (ev):

   -26.7217 -26.7081   7.6796   8.8547  10.0978  11.1970  12.1328  12.9250
    14.2257  14.4904  15.8296  17.2928  17.5253  19.5019  23.0113  24.4255
    25.8452  26.5591  27.7050

          k = 0.2222 0.5132-0.2051 (  3744 PWs)   bands (ev):

   -26.7217 -26.7082   7.9992   8.2252  10.5100  11.0809  12.6401  12.8685
    13.6321  15.0135  15.2867  17.4386  17.7431  18.6233  24.2706  25.1266
    26.2229  26.7921  27.1070

          k = 0.3333 0.5774 0.0000 (  3750 PWs)   bands (ev):

   -26.7101 -26.7101   8.8179   9.6092   9.6092  11.6145  12.1907  12.1907
    12.1940  14.7650  14.7650  18.0368  18.0368  19.0634  21.9138  23.9134
    23.9134  30.0119  30.2971

          k = 0.3333 0.5774 0.1026 (  3762 PWs)   bands (ev):

   -26.7101 -26.7101   8.9488   9.5770   9.5770  10.7140  12.3152  12.3152
    13.4473  14.6939  14.6939  17.5946  17.8417  17.8417  23.6876  24.6247
    24.6247  29.0332  29.0332

          k = 0.3333 0.5774-0.2051 (  3738 PWs)   bands (ev):

   -26.7101 -26.7101   9.1458   9.5464   9.5464  10.1811  12.4485  12.4485
    14.6105  14.6105  14.7938  16.0109  17.6664  17.6664  25.7638  25.7638
    26.1659  27.1272  27.5461

          k = 0.0000 0.1283-0.1026 (  3783 PWs)   bands (ev):

   -26.8249 -26.7647   3.5930   5.2515   7.3034  11.8372  16.3314  18.6623
    19.1892  19.9436  20.7732  21.4292  22.9967  23.6136  23.8900  24.3187
    24.7531  25.7409  26.1696

          k = 0.0000 0.2566-0.1026 (  3790 PWs)   bands (ev):

   -26.7948 -26.7449   4.3624   5.8343   8.0139  12.2120  15.5853  16.6025
    17.4448  17.7205  19.0268  19.3320  22.4350  22.6419  22.9684  23.6859
    24.4387  25.8893  26.4280

          k = 0.0000 0.3849-0.1026 (  3782 PWs)   bands (ev):

   -26.7592 -26.7237   5.5847   6.7737   9.1279  12.2691  13.2608  14.4189
    16.3697  16.7208  17.9332  18.3217  19.9990  21.4740  22.4705  23.1288
    24.6075  25.3707  25.8127

          k = 0.0000 0.5132-0.1026 (  3759 PWs)   bands (ev):

   -26.7339 -26.7120   7.0415   7.7650  10.1247  10.7870  11.8830  13.4019
    15.3910  16.2206  17.2300  17.8073  19.5776  21.0028  22.1425  22.6401
    23.8710  24.5237  24.7980

          k =-0.1111 0.3208-0.1026 (  3776 PWs)   bands (ev):

   -26.7711 -26.7304   5.1052   6.4297   8.6999  12.5441  14.3757  15.1174
    16.3001  16.9902  17.9165  18.2448  19.8551  21.6004  23.7476  24.5238
    24.9838  25.6447  26.9851

          k =-0.1111 0.4491-0.1026 (  3767 PWs)   bands (ev):

   -26.7402 -26.7144   6.4956   7.5063   9.9191  11.7696  12.3031  13.9473
    14.9338  16.0933  16.6648  18.2534  19.1493  19.6133  23.2159  23.9534
    25.2484  25.4633  26.0974

          k =-0.2222 0.5132-0.1026 (  3758 PWs)   bands (ev):

   -26.7217 -26.7081   7.7532   8.5947  10.7123  11.1795  11.3893  13.5531
    13.7803  14.5977  15.8591  17.0844  18.2132  18.8779  23.0808  24.6951
    25.7592  26.9812  27.5416

     the Fermi energy is    23.5985 ev

!    total energy              =     -75.45937411 Ry
     estimated scf accuracy    <          3.7E-10 Ry
     smearing contrib. (-TS)   =      -0.00001270 Ry
     internal energy E=F+TS    =     -75.45936141 Ry

     The total energy is F=E-TS. E is the sum of the following terms:
     one-electron contribution =      36.98790927 Ry
     hartree contribution      =       9.32108900 Ry
     xc contribution           =     -30.60545223 Ry
     ewald contribution        =     -91.16290744 Ry

     convergence has been achieved in  10 iterations

     Forces acting on atoms (cartesian axes, Ry/au):

     atom    1 type  1   force =     0.00000000    0.00000000   -0.16079148
     atom    2 type  1   force =    -0.00000000   -0.00000000    0.16079148
     atom    3 type  1   force =     0.00000000    0.00000000   -0.01197564
     atom    4 type  1   force =    -0.00000000   -0.00000000    0.01197564
     atom    5 type  1   force =     0.00000000   -0.00000000   -0.33548539
     atom    6 type  1   force =    -0.00000000    0.00000000    0.33548539
     atom    7 type  2   force =     0.00000000    0.00000000    0.03451213
     atom    8 type  2   force =    -0.00000000    0.00000000   -0.03451213
     The non-local contrib.  to forces
     atom    1 type  1   force =    -0.00000000   -0.00000000   -0.11964836
     atom    2 type  1   force =     0.00000000    0.00000000    0.11964836
     atom    3 type  1   force =     0.00000000   -0.00000000    0.02751144
     atom    4 type  1   force =     0.00000000   -0.00000000   -0.02751144
     atom    5 type  1   force =     0.00000000    0.00000000   -0.21768651
     atom    6 type  1   force =     0.00000000    0.00000000    0.21768651
     atom    7 type  2   force =     0.00000000    0.00000000   -0.00349224
     atom    8 type  2   force =     0.00000000    0.00000000    0.00349224
     The ionic contribution  to forces
     atom    1 type  1   force =    -0.00000004    0.00000002   -3.34144537
     atom    2 type  1   force =     0.00000004   -0.00000002    3.34144537
     atom    3 type  1   force =     0.00000012   -0.00000007    0.87291254
     atom    4 type  1   force =    -0.00000012    0.00000007   -0.87291254
     atom    5 type  1   force =     0.00000005   -0.00000003   -2.79087700
     atom    6 type  1   force =    -0.00000005    0.00000003    2.79087700
     atom    7 type  2   force =     0.00000010   -0.00000006   -1.24250736
     atom    8 type  2   force =    -0.00000010    0.00000006    1.24250736
     The local contribution  to forces
     atom    1 type  1   force =    -0.00000000   -0.00000000    3.29251245
     atom    2 type  1   force =     0.00000000    0.00000000   -3.29251245
     atom    3 type  1   force =    -0.00000003    0.00000002   -0.91119966
     atom    4 type  1   force =     0.00000003   -0.00000002    0.91119966
     atom    5 type  1   force =    -0.00000001    0.00000000    2.65865621
     atom    6 type  1   force =     0.00000001   -0.00000000   -2.65865621
     atom    7 type  2   force =     0.00000051   -0.00000029    1.28051507
     atom    8 type  2   force =    -0.00000051    0.00000029   -1.28051507
     The core correction contribution to forces
     atom    1 type  1   force =     0.00000000   -0.00000000    0.00781013
     atom    2 type  1   force =    -0.00000000    0.00000000   -0.00781013
     atom    3 type  1   force =    -0.00000000    0.00000000   -0.00120267
     atom    4 type  1   force =     0.00000000   -0.00000000    0.00120267
     atom    5 type  1   force =    -0.00000000    0.00000000    0.01443751
     atom    6 type  1   force =     0.00000000   -0.00000000   -0.01443751
     atom    7 type  2   force =     0.00000000    0.00000000    0.00000000
     atom    8 type  2   force =     0.00000000    0.00000000    0.00000000
     The Hubbard contrib.    to forces
     atom    1 type  1   force =     0.00000000    0.00000000    0.00000000
     atom    2 type  1   force =     0.00000000    0.00000000    0.00000000
     atom    3 type  1   force =     0.00000000    0.00000000    0.00000000
     atom    4 type  1   force =     0.00000000    0.00000000    0.00000000
     atom    5 type  1   force =     0.00000000    0.00000000    0.00000000
     atom    6 type  1   force =     0.00000000    0.00000000    0.00000000
     atom    7 type  2   force =     0.00000000    0.00000000    0.00000000
     atom    8 type  2   force =     0.00000000    0.00000000    0.00000000
     The SCF correction term to forces
     atom    1 type  1   force =    -0.00000000    0.00000000   -0.00002033
     atom    2 type  1   force =     0.00000000   -0.00000000    0.00002033
     atom    3 type  1   force =     0.00000000   -0.00000000    0.00000271
     atom    4 type  1   force =    -0.00000000    0.00000000   -0.00000271
     atom    5 type  1   force =     0.00000000   -0.00000000   -0.00001560
     atom    6 type  1   force =    -0.00000000    0.00000000    0.00001560
     atom    7 type  2   force =     0.00000000   -0.00000000   -0.00000334
     atom    8 type  2   force =    -0.00000000    0.00000000    0.00000334

     Total force =     0.528657     Total SCF correction =     0.000037


     Computing stress (Cartesian axis) and pressure

          total   stress  (Ry/bohr**3)                   (kbar)     P=     4970.26
   0.03364231   0.00000000   0.00000000         4948.95        0.00        0.00
   0.00000000   0.03364231   0.00000000            0.00     4948.95        0.00
   0.00000000   0.00000000   0.03407684            0.00        0.00     5012.88


     BFGS Geometry Optimization
     Energy error            =      0.0E+00 Ry
     Gradient error          =      3.4E-01 Ry/Bohr
     Cell gradient error     =      4.5E+03 kbar

     number of scf cycles    =   1
     number of bfgs steps    =   0

     enthalpy           new  =     -74.3990181465 Ry

     new trust radius        =       0.5000000000 bohr
ibrav =      4
 celldm(1) =      6.02488436
 celldm(3) =      2.44163903
Input lattice vectors:
     1.13953717     0.00000000     0.00000000
    -0.56976859     0.98686814     0.00000000
     0.00000000     0.00000000     2.78233843
New lattice vectors in INITIAL alat:
     1.13953717     0.00000000     0.00000000
    -0.56976859     0.98686814     0.00000000
     0.00000000     0.00000000     2.78233843
New lattice vectors in NEW alat (for information only):
     1.00000000     0.00000000     0.00000000
    -0.50000000     0.86602540     0.00000000
     0.00000000     0.00000000     2.44163903
Discrepancy in bohr =     0.000000    0.000000    0.000000
     new conv_thr            =       0.0000000100 Ry

     new unit-cell volume =    462.44303 a.u.^3 (    68.52699 Ang^3 )
     density =      4.41978 g/cm^3

CELL_PARAMETERS (alat=  5.28713280)
   1.139537173   0.000000000   0.000000000
  -0.569768586   0.986868140   0.000000000
   0.000000000   0.000000000   2.782338432

ATOMIC_POSITIONS (crystal)
Si            0.0000000000        0.0000000000        0.2436047627
Si           -0.0000000000       -0.0000000000        0.7563952373
Si            0.3333333300        0.6666666700        0.5849869938
Si            0.6666666700        0.3333333300        0.4150130062
Si            0.3333333300        0.6666666700        0.0821319251
Si            0.6666666700        0.3333333300        0.9178680749
Li            0.3333333300        0.6666666700        0.3330377573
Li            0.6666666700        0.3333333300        0.6669622427



     Writing config-only to output data dir ./output/SiLi.save/
     NEW-OLD atomic charge density approx. for the potential
     extrapolated charge   39.75761, renormalised to   30.00000

     total cpu time spent up to now is       15.6 secs

     Self-consistent Calculation

     iteration #  1     ecut=    80.00 Ry     beta= 0.70
     Davidson diagonalization with overlap
     c_bands:  2 eigenvalues not converged
     c_bands:  3 eigenvalues not converged
     c_bands:  1 eigenvalues not converged
     c_bands:  2 eigenvalues not converged
     c_bands:  4 eigenvalues not converged
     c_bands:  1 eigenvalues not converged
     c_bands:  1 eigenvalues not converged
     c_bands:  1 eigenvalues not converged
     c_bands:  1 eigenvalues not converged
     c_bands:  2 eigenvalues not converged
     c_bands:  1 eigenvalues not converged
     c_bands:  1 eigenvalues not converged
     c_bands:  1 eigenvalues not converged
     c_bands:  1 eigenvalues not converged
     c_bands:  1 eigenvalues not converged
     c_bands:  2 eigenvalues not converged
     c_bands:  2 eigenvalues not converged
     c_bands:  1 eigenvalues not converged
     c_bands:  1 eigenvalues not converged
     c_bands:  1 eigenvalues not converged
     ethr =  1.00E-06,  avg # of iterations = 18.7

     total cpu time spent up to now is       19.3 secs

     total energy              =     -62.98304699 Ry
     estimated scf accuracy    <      15.30115782 Ry

     iteration #  2     ecut=    80.00 Ry     beta= 0.70
     Davidson diagonalization with overlap
     ethr =  1.00E-02,  avg # of iterations = 10.6

     total cpu time spent up to now is       21.6 secs

     total energy              =     -73.89529008 Ry
     estimated scf accuracy    <     186.20353292 Ry

     iteration #  3     ecut=    80.00 Ry     beta= 0.70
     Davidson diagonalization with overlap
     ethr =  1.00E-02,  avg # of iterations =  5.0

     total cpu time spent up to now is       22.9 secs

     total energy              =     -78.81512297 Ry
     estimated scf accuracy    <      34.35892834 Ry

     iteration #  4     ecut=    80.00 Ry     beta= 0.70
     Davidson diagonalization with overlap
     ethr =  1.00E-02,  avg # of iterations =  3.1

     total cpu time spent up to now is       23.9 secs

     total energy              =     -78.54812940 Ry
     estimated scf accuracy    <      12.72871405 Ry

     iteration #  5     ecut=    80.00 Ry     beta= 0.70
     Davidson diagonalization with overlap
     ethr =  1.00E-02,  avg # of iterations =  2.1

     total cpu time spent up to now is       24.7 secs

     total energy              =     -78.42941615 Ry
     estimated scf accuracy    <       5.07197948 Ry

     iteration #  6     ecut=    80.00 Ry     beta= 0.70
     Davidson diagonalization with overlap
     ethr =  1.00E-02,  avg # of iterations =  1.2

     total cpu time spent up to now is       25.5 secs

     total energy              =     -78.02214998 Ry
     estimated scf accuracy    <       2.43614194 Ry

     iteration #  7     ecut=    80.00 Ry     beta= 0.70
     Davidson diagonalization with overlap
     ethr =  8.12E-03,  avg # of iterations =  2.7

     total cpu time spent up to now is       26.4 secs

     total energy              =     -78.31204306 Ry
     estimated scf accuracy    <       0.00217076 Ry

     iteration #  8     ecut=    80.00 Ry     beta= 0.70
     Davidson diagonalization with overlap
     c_bands:  1 eigenvalues not converged
     c_bands:  1 eigenvalues not converged
     c_bands:  1 eigenvalues not converged
     ethr =  7.24E-06,  avg # of iterations = 13.5

     total cpu time spent up to now is       28.7 secs

     total energy              =     -78.33666591 Ry
     estimated scf accuracy    <       0.00150127 Ry

     iteration #  9     ecut=    80.00 Ry     beta= 0.70
     Davidson diagonalization with overlap
     ethr =  5.00E-06,  avg # of iterations =  4.1

     total cpu time spent up to now is       29.6 secs

     total energy              =     -78.33356007 Ry
     estimated scf accuracy    <       0.01498832 Ry

     iteration # 10     ecut=    80.00 Ry     beta= 0.70
     Davidson diagonalization with overlap
     ethr =  5.00E-06,  avg # of iterations =  4.7

     total cpu time spent up to now is       30.7 secs

     total energy              =     -78.33616290 Ry
     estimated scf accuracy    <       0.00222081 Ry

     iteration # 11     ecut=    80.00 Ry     beta= 0.70
     Davidson diagonalization with overlap
     ethr =  5.00E-06,  avg # of iterations =  1.0

     total cpu time spent up to now is       31.4 secs

     total energy              =     -78.33585054 Ry
     estimated scf accuracy    <       0.00133569 Ry

     iteration # 12     ecut=    80.00 Ry     beta= 0.70
     Davidson diagonalization with overlap
     ethr =  4.45E-06,  avg # of iterations =  2.0

     total cpu time spent up to now is       32.2 secs

     total energy              =     -78.33603556 Ry
     estimated scf accuracy    <       0.00004613 Ry

     iteration # 13     ecut=    80.00 Ry     beta= 0.70
     Davidson diagonalization with overlap
     ethr =  1.54E-07,  avg # of iterations =  2.4

     total cpu time spent up to now is       33.0 secs

     total energy              =     -78.33603730 Ry
     estimated scf accuracy    <       0.00002299 Ry

     iteration # 14     ecut=    80.00 Ry     beta= 0.70
     Davidson diagonalization with overlap
     ethr =  7.66E-08,  avg # of iterations =  1.0

     total cpu time spent up to now is       33.7 secs

     total energy              =     -78.33603601 Ry
     estimated scf accuracy    <       0.00001239 Ry

     iteration # 15     ecut=    80.00 Ry     beta= 0.70
     Davidson diagonalization with overlap
     ethr =  4.13E-08,  avg # of iterations =  1.3

     total cpu time spent up to now is       34.4 secs

     total energy              =     -78.33603626 Ry
     estimated scf accuracy    <       0.00000189 Ry

     iteration # 16     ecut=    80.00 Ry     beta= 0.70
     Davidson diagonalization with overlap
     ethr =  6.29E-09,  avg # of iterations =  2.4

     total cpu time spent up to now is       35.1 secs

     total energy              =     -78.33603644 Ry
     estimated scf accuracy    <       0.00000005 Ry

     iteration # 17     ecut=    80.00 Ry     beta= 0.70
     Davidson diagonalization with overlap
     ethr =  1.82E-10,  avg # of iterations =  4.5

     total cpu time spent up to now is       36.1 secs

     total energy              =     -78.33603647 Ry
     estimated scf accuracy    <       0.00000003 Ry

     iteration # 18     ecut=    80.00 Ry     beta= 0.70
     Davidson diagonalization with overlap
     ethr =  1.02E-10,  avg # of iterations =  1.0

     total cpu time spent up to now is       36.8 secs

     total energy              =     -78.33603647 Ry
     estimated scf accuracy    <       0.00000002 Ry

     iteration # 19     ecut=    80.00 Ry     beta= 0.70
     Davidson diagonalization with overlap
     ethr =  5.19E-11,  avg # of iterations =  2.0

     total cpu time spent up to now is       37.5 secs

     End of self-consistent calculation

          k = 0.0000 0.0000 0.0000 (  3787 PWs)   bands (ev):

   -31.6064 -31.5906  -0.8481   1.0396   1.4584   7.2266   7.8552  13.8398
    13.8398  14.4639  14.4639  15.7340  15.7340  15.8620  16.4070  16.4070
    16.7997  16.7997  17.7082

          k = 0.0000 0.0000 0.0899 (  3775 PWs)   bands (ev):

   -31.6064 -31.5902  -0.7483   0.3975   2.3286   5.6992   9.6511  13.9035
    13.9035  14.2497  14.5286  14.5286  15.4603  15.4603  15.8608  15.8608
    17.6729  17.6729  18.7801

          k = 0.0000 0.0000-0.1797 (  3792 PWs)   bands (ev):

   -31.6069 -31.5901  -0.5833  -0.0052   3.1489   4.6249  11.7416  12.0952
    13.9828  13.9828  14.6037  14.6037  15.2404  15.2404  15.5572  15.5572
    18.5665  18.5665  19.4457

          k = 0.0000 0.1126 0.0000 (  3789 PWs)   bands (ev):

   -31.6037 -31.5883  -0.6433   1.2440   1.6393   7.4081   7.9668  11.9199
    12.5423  13.5768  14.2672  14.2987  15.2301  15.2928  15.7694  16.5487
    17.3032  17.9416  18.3604

          k = 0.0000 0.1126 0.0899 (  3783 PWs)   bands (ev):

   -31.6037 -31.5881  -0.5405   0.5865   2.5275   5.8530   9.7734  12.0046
    12.6394  13.0417  13.8395  14.2435  15.0906  15.5392  15.8822  16.4530
    16.6532  18.0899  19.1937

          k = 0.0000 0.1126-0.1797 (  3786 PWs)   bands (ev):

   -31.6038 -31.5880  -0.3658   0.1729   3.3695   4.7621  11.7317  11.9072
    12.4434  12.7692  12.8658  13.5118  15.2170  15.8472  16.3238  16.6155
    17.0571  17.4561  18.0705

          k = 0.0000 0.2252 0.0000 (  3795 PWs)   bands (ev):

   -31.5963 -31.5832  -0.0334   1.8574   2.1736   7.8323   8.1377   9.7007
    11.0667  11.3107  11.5018  13.1007  14.2210  14.6224  15.4734  16.5550
    17.2517  18.3990  18.6892

          k = 0.0000 0.2252 0.0899 (  3790 PWs)   bands (ev):

   -31.5962 -31.5832   0.0771   1.1519   3.1217   6.2421   9.4875   9.9363
    10.6520  11.4069  12.5125  12.6383  14.1453  14.7309  14.9423  15.9586
    17.3585  18.0120  18.4081

          k = 0.0000 0.2252-0.1797 (  3790 PWs)   bands (ev):

   -31.5963 -31.5831   0.2826   0.7064   4.0246   5.1459   9.5419   9.9275
    11.5425  12.0111  12.2921  12.6191  13.9008  13.9631  15.3982  16.0654
    16.5117  16.9473  18.5034

          k = 0.0000 0.3378 0.0000 (  3781 PWs)   bands (ev):

   -31.5871 -31.5778   0.9640   2.8683   3.0152   6.4533   8.3112   8.8206
     9.1965   9.8172  10.4760  12.2647  13.4238  13.6232  14.5059  15.3901
    16.1316  17.0843  18.9162

          k = 0.0000 0.3378 0.0899 (  3782 PWs)   bands (ev):

   -31.5871 -31.5778   1.0827   2.0820   4.0748   6.0924   7.6949   8.2256
    10.0348  10.5707  10.7546  11.8096  12.8745  14.1579  14.8193  15.1988
    16.4412  16.6000  17.3059

          k = 0.0000 0.3378-0.1797 (  3780 PWs)   bands (ev):

   -31.5871 -31.5778   1.3453   1.5850   5.0391   5.5311   7.1780   7.8872
    10.6547  10.7070  11.3837  11.4617  13.3187  13.5830  14.7671  15.2453
    15.8827  16.7290  17.2618

          k = 0.0000 0.4504 0.0000 (  3757 PWs)   bands (ev):

   -31.5804 -31.5746   2.2825   3.6398   4.1614   4.9692   6.4424   7.0004
    10.0381  10.0566  10.7696  11.8431  12.4625  12.5884  13.0174  15.2513
    15.6095  16.4155  18.6915

          k = 0.0000 0.4504 0.0899 (  3759 PWs)   bands (ev):

   -31.5803 -31.5747   2.3881   3.2453   4.3181   5.3716   5.9295   7.8258
     9.1931  10.0764  10.1499  11.3936  12.6782  13.7515  14.0808  14.9669
    15.5998  16.4362  16.9028

          k = 0.0000 0.4504-0.1797 (  3756 PWs)   bands (ev):

   -31.5803 -31.5747   2.7084   2.7390   4.5487   5.0397   6.6666   7.8885
     8.6333   9.4804  10.2868  11.0442  13.8233  14.1705  14.3840  14.8259
    15.5160  15.9715  17.2132

          k = 0.0975 0.1689 0.0000 (  3781 PWs)   bands (ev):

   -31.5984 -31.5846  -0.2357   1.6533   1.9976   7.7533   8.1380  10.5439
    10.8528  12.2350  12.4786  12.9759  13.1950  16.1612  16.5109  16.5340
    17.5787  18.5169  18.6278

          k = 0.0975 0.1689 0.0899 (  3791 PWs)   bands (ev):

   -31.5986 -31.5846  -0.1280   0.9663   2.9175   6.1601   9.8226  10.6635
    10.9911  11.8374  11.8936  13.3673  14.0037  15.4509  16.1831  16.5234
    16.8766  17.9955  18.1481

          k = 0.0975 0.1689-0.1797 (  3790 PWs)   bands (ev):

   -31.5986 -31.5846   0.0673   0.5291   3.8078   5.0280  10.7044  10.9049
    11.2687  11.3456  12.2196  12.6743  15.1188  15.3912  15.5604  15.5835
    16.6898  17.6161  17.8182

          k = 0.0975 0.2815 0.0000 (  3773 PWs)   bands (ev):

   -31.5901 -31.5793   0.5698   2.4706   2.6959   7.5421   8.4033   9.1626
     9.4943  10.1835  10.5598  11.6167  12.0886  15.3731  15.7055  16.7230
    17.7878  17.8864  17.9958

          k = 0.0975 0.2815 0.0899 (  3776 PWs)   bands (ev):

   -31.5901 -31.5793   0.6858   1.7195   3.6958   6.5215   8.5675   9.0038
     9.5178  10.8540  10.9849  11.4410  12.7261  14.5930  15.4678  16.1402
    17.1307  17.4325  18.6132

          k = 0.0975 0.2815-0.1797 (  3782 PWs)   bands (ev):

   -31.5902 -31.5794   0.9248   1.2393   4.6655   5.4863   8.4325   8.7402
     9.9570  10.4131  11.7147  12.4976  12.9716  14.3033  14.4792  15.2554
    16.6176  17.5826  19.3148

          k = 0.0975 0.3941 0.0000 (  3762 PWs)   bands (ev):

   -31.5821 -31.5752   1.7449   3.5947   3.6826   5.6378   7.4840   7.8610
     8.7714   9.7776  10.3799  11.1108  11.4824  13.6095  14.1124  16.6350
    16.9427  17.3241  18.1120

          k = 0.0975 0.3941 0.0899 (  3767 PWs)   bands (ev):

   -31.5822 -31.5753   1.8633   2.8156   4.7030   5.6088   6.7284   8.3913
     8.7143   9.4200  10.4143  10.7796  12.2681  13.6228  14.4732  16.2715
    16.6186  17.0165  17.4359

          k = 0.0975 0.3941-0.1797 (  3764 PWs)   bands (ev):

   -31.5820 -31.5754   2.1751   2.2776   5.2651   5.9340   6.2769   7.5255
     9.1228   9.7655  10.0333  10.7354  13.0051  13.6062  14.7501  15.3702
    16.1208  17.5745  17.8840

          k = 0.0975 0.5067 0.0000 (  3756 PWs)   bands (ev):

   -31.5784 -31.5741   2.9664   3.4941   4.6392   5.2494   5.9061   6.6773
     8.7161  10.4243  10.6189  11.0645  11.5453  12.2813  13.3268  16.5776
    16.6605  17.1506  18.0087

          k = 0.0975 0.5067 0.0899 (  3753 PWs)   bands (ev):

   -31.5784 -31.5740   3.0566   3.4801   4.4219   4.8634   6.5981   7.1464
     8.5829   9.6960   9.9468  10.4166  12.1616  13.2933  14.1414  15.7829
    16.5994  17.2130  17.3570

          k = 0.0975 0.5067-0.1797 (  3744 PWs)   bands (ev):

   -31.5783 -31.5740   3.2194   3.3864   4.2682   4.6288   7.3890   7.9727
     8.2585   8.4018   9.7328  10.0177  13.1521  13.2747  15.1969  15.5049
    16.1540  16.8263  17.8926

          k = 0.1950 0.3378 0.0000 (  3765 PWs)   bands (ev):

   -31.5828 -31.5754   1.5606   3.4889   3.5321   6.8178   7.1055   8.3895
     9.2705   9.3189   9.5210  10.3126  10.6868  14.2155  15.9327  16.1242
    17.1425  18.1541  18.7402

          k = 0.1950 0.3378 0.0899 (  3750 PWs)   bands (ev):

   -31.5827 -31.5752   1.6806   2.6662   4.5749   6.7105   7.1055   7.8944
     8.3441   9.1354  10.5238  10.7070  11.4202  13.3887  14.8798  17.0893
    17.5931  18.2149  18.8377

          k = 0.1950 0.3378-0.1797 (  3766 PWs)   bands (ev):

   -31.5830 -31.5754   1.9791   2.1249   5.6586   5.9318   7.2822   7.3793
     8.0689   8.9728  11.1051  11.5960  11.7993  12.2369  15.3221  15.5160
    18.5292  18.8698  19.2812

          k = 0.1950 0.4504 0.0000 (  3762 PWs)   bands (ev):

   -31.5773 -31.5737   2.8915   4.2871   4.8166   5.2787   6.3424   6.8142
     7.7490   9.1378   9.2075  10.6995  11.2695  12.7445  14.5996  15.9779
    16.3600  18.9397  19.1985

          k = 0.1950 0.4504 0.0899 (  3758 PWs)   bands (ev):

   -31.5773 -31.5737   2.9998   3.8732   4.9093   5.7127   6.1186   6.8475
     8.2559   8.4489   9.6066  10.4467  10.8682  12.6441  14.8532  16.4311
    17.7172  18.2766  18.9612

          k = 0.1950 0.4504-0.1797 (  3744 PWs)   bands (ev):

   -31.5772 -31.5734   3.3030   3.3755   5.1090   5.4678   6.5845   7.0825
     7.6436   8.8356   9.3182  10.4027  11.2045  11.6805  16.4190  16.5273
    17.7225  18.1760  19.3214

          k = 0.2925 0.5067 0.0000 (  3750 PWs)   bands (ev):

   -31.5741 -31.5741   4.1131   4.5803   4.5803   5.7812   6.0283   6.0283
     7.2477   8.3092   8.3092  11.4711  11.4711  12.1911  14.6446  15.5187
    15.5187  20.9032  21.1155

          k = 0.2925 0.5067 0.0899 (  3762 PWs)   bands (ev):

   -31.5743 -31.5743   4.2344   4.5866   4.5866   5.3283   5.9726   5.9726
     7.9682   8.5401   8.5401  11.0170  11.0170  11.0631  16.0016  16.2974
    16.2974  19.9573  19.9574

          k = 0.2925 0.5067-0.1797 (  3738 PWs)   bands (ev):

   -31.5740 -31.5740   4.4626   4.5931   4.5931   4.8876   5.9209   5.9209
     8.8346   8.8346   9.0674   9.7322  10.5475  10.5475  17.6431  17.6431
    17.9142  18.4602  18.4602

          k = 0.0000 0.1126-0.0899 (  3783 PWs)   bands (ev):

   -31.6038 -31.5880  -0.5407   0.5874   2.5249   5.8604   9.7474  12.0391
    12.6282  13.0958  13.8706  14.0752  15.0636  15.5035  15.8708  16.7247
    17.2010  17.7407  18.3289

          k = 0.0000 0.2252-0.0899 (  3790 PWs)   bands (ev):

   -31.5963 -31.5830   0.0761   1.1587   3.0976   6.3374   9.0052  10.3942
    10.8036  11.4009  12.0491  12.6522  14.6777  14.9662  15.0739  15.4281
    17.4305  17.5456  17.8227

          k = 0.0000 0.3378-0.0899 (  3782 PWs)   bands (ev):

   -31.5872 -31.5778   1.0810   2.1022   3.9614   6.5921   7.1962   8.2613
     9.6757  10.5673  11.3660  11.8179  13.0076  14.1611  14.2629  14.7779
    16.7490  17.1971  17.9809

          k = 0.0000 0.4504-0.0899 (  3759 PWs)   bands (ev):

   -31.5804 -31.5747   2.4013   3.2126   4.4910   4.8794   6.7050   7.3696
     8.7732  10.1488  10.7483  11.3964  12.6792  13.5159  13.7514  14.7707
    16.0522  16.8786  16.9876

          k =-0.0975 0.2815-0.0899 (  3776 PWs)   bands (ev):

   -31.5902 -31.5793   0.6848   1.7277   3.6592   6.7451   8.0192   9.1700
     9.9671  10.3501  11.2019  11.4156  12.9397  14.3296  15.7079  16.0423
    16.5385  18.1456  18.7175

          k =-0.0975 0.3941-0.0899 (  3767 PWs)   bands (ev):

   -31.5821 -31.5753   1.8648   2.8318   4.5334   5.7979   7.0809   7.8120
     8.5162   9.6002  10.3390  11.6299  12.2451  12.5865  15.1198  15.7824
    16.4162  17.9445  18.0367

          k =-0.1950 0.4504-0.0899 (  3758 PWs)   bands (ev):

   -31.5772 -31.5738   3.0089   3.8438   5.0390   5.4071   6.3126   7.2467
     7.5140   8.7363   9.6460  10.2953  11.4033  12.0971  15.3284  16.0528
    17.7734  18.2039  19.1690

     the Fermi energy is    15.6263 ev

!    total energy              =     -78.33603647 Ry
     estimated scf accuracy    <          3.8E-10 Ry
     smearing contrib. (-TS)   =       0.00018348 Ry
     internal energy E=F+TS    =     -78.33621995 Ry

     The total energy is F=E-TS. E is the sum of the following terms:
     one-electron contribution =      21.10277625 Ry
     hartree contribution      =       9.00341099 Ry
     xc contribution           =     -28.06301855 Ry
     ewald contribution        =     -80.37938865 Ry

     convergence has been achieved in  19 iterations

     Forces acting on atoms (cartesian axes, Ry/au):

     atom    1 type  1   force =     0.00000000    0.00000000   -0.07763293
     atom    2 type  1   force =    -0.00000000   -0.00000000    0.07763293
     atom    3 type  1   force =     0.00000000    0.00000000   -0.00695475
     atom    4 type  1   force =     0.00000000    0.00000000    0.00695475
     atom    5 type  1   force =     0.00000000   -0.00000000   -0.11150268
     atom    6 type  1   force =     0.00000000   -0.00000000    0.11150268
     atom    7 type  2   force =     0.00000000   -0.00000000   -0.00418941
     atom    8 type  2   force =     0.00000000   -0.00000000    0.00418941
     The non-local contrib.  to forces
     atom    1 type  1   force =     0.00000000    0.00000000   -0.07060019
     atom    2 type  1   force =     0.00000000   -0.00000000    0.07060019
     atom    3 type  1   force =    -0.00000000   -0.00000000    0.01644588
     atom    4 type  1   force =    -0.00000000   -0.00000000   -0.01644588
     atom    5 type  1   force =    -0.00000000   -0.00000000   -0.08770184
     atom    6 type  1   force =    -0.00000000   -0.00000000    0.08770184
     atom    7 type  2   force =    -0.00000000   -0.00000000    0.00125653
     atom    8 type  2   force =     0.00000000    0.00000000   -0.00125653
     The ionic contribution  to forces
     atom    1 type  1   force =    -0.00000003    0.00000002   -2.42744250
     atom    2 type  1   force =     0.00000003   -0.00000002    2.42744250
     atom    3 type  1   force =     0.00000009   -0.00000005    0.65598881
     atom    4 type  1   force =    -0.00000009    0.00000005   -0.65598881
     atom    5 type  1   force =     0.00000004   -0.00000003   -1.81598118
     atom    6 type  1   force =    -0.00000004    0.00000003    1.81598118
     atom    7 type  2   force =     0.00000008   -0.00000005   -0.95723370
     atom    8 type  2   force =    -0.00000008    0.00000005    0.95723370
     The local contribution  to forces
     atom    1 type  1   force =    -0.00000000   -0.00000000    2.41534850
     atom    2 type  1   force =     0.00000000    0.00000000   -2.41534850
     atom    3 type  1   force =    -0.00000002    0.00000001   -0.67835466
     atom    4 type  1   force =     0.00000002   -0.00000001    0.67835466
     atom    5 type  1   force =     0.00000000   -0.00000000    1.78564842
     atom    6 type  1   force =    -0.00000000    0.00000000   -1.78564842
     atom    7 type  2   force =     0.00000058   -0.00000033    0.95180506
     atom    8 type  2   force =    -0.00000058    0.00000033   -0.95180506
     The core correction contribution to forces
     atom    1 type  1   force =     0.00000000   -0.00000000    0.00508859
     atom    2 type  1   force =    -0.00000000    0.00000000   -0.00508859
     atom    3 type  1   force =    -0.00000000    0.00000000   -0.00104738
     atom    4 type  1   force =     0.00000000   -0.00000000    0.00104738
     atom    5 type  1   force =    -0.00000000    0.00000000    0.00654706
     atom    6 type  1   force =     0.00000000   -0.00000000   -0.00654706
     atom    7 type  2   force =     0.00000000    0.00000000    0.00000000
     atom    8 type  2   force =     0.00000000    0.00000000    0.00000000
     The Hubbard contrib.    to forces
     atom    1 type  1   force =     0.00000000    0.00000000    0.00000000
     atom    2 type  1   force =     0.00000000    0.00000000    0.00000000
     atom    3 type  1   force =     0.00000000    0.00000000    0.00000000
     atom    4 type  1   force =     0.00000000    0.00000000    0.00000000
     atom    5 type  1   force =     0.00000000    0.00000000    0.00000000
     atom    6 type  1   force =     0.00000000    0.00000000    0.00000000
     atom    7 type  2   force =     0.00000000    0.00000000    0.00000000
     atom    8 type  2   force =     0.00000000    0.00000000    0.00000000
     The SCF correction term to forces
     atom    1 type  1   force =     0.00000000   -0.00000000   -0.00002733
     atom    2 type  1   force =    -0.00000000    0.00000000    0.00002733
     atom    3 type  1   force =    -0.00000000    0.00000000    0.00001260
     atom    4 type  1   force =     0.00000000   -0.00000000   -0.00001260
     atom    5 type  1   force =     0.00000000   -0.00000000   -0.00001515
     atom    6 type  1   force =    -0.00000000    0.00000000    0.00001515
     atom    7 type  2   force =    -0.00000000    0.00000000   -0.00001730
     atom    8 type  2   force =     0.00000000   -0.00000000    0.00001730

     Total force =     0.192487     Total SCF correction =     0.000054


     Computing stress (Cartesian axis) and pressure

          total   stress  (Ry/bohr**3)                   (kbar)     P=     1397.97
   0.00952637   0.00000000  -0.00000000         1401.38        0.00       -0.00
   0.00000000   0.00952637  -0.00000000            0.00     1401.38       -0.00
   0.00000000   0.00000000   0.00945680            0.00        0.00     1391.14

     Energy error            =      2.4E+00 Ry
     Gradient error          =      1.1E-01 Ry/Bohr
     Cell gradient error     =      9.0E+02 kbar

     number of scf cycles    =   2
     number of bfgs steps    =   1

     enthalpy           old  =     -74.3990181465 Ry
     enthalpy           new  =     -76.7642245650 Ry

     CASE: enthalpy          _new < enthalpy          _old

     new trust radius        =       0.1920408460 bohr
ibrav =      4
 celldm(1) =      6.29390352
 celldm(3) =      2.42775290
Input lattice vectors:
     1.19041903     0.00000000     0.00000000
    -0.59520952     1.03093312     0.00000000
    -0.00000000    -0.00000000     2.89004326
New lattice vectors in INITIAL alat:
     1.19041903     0.00000000     0.00000000
    -0.59520952     1.03093312     0.00000000
     0.00000000     0.00000000     2.89004326
New lattice vectors in NEW alat (for information only):
     1.00000000     0.00000000     0.00000000
    -0.50000000     0.86602540     0.00000000
     0.00000000     0.00000000     2.42775290
Discrepancy in bohr =     0.000000    0.000000    0.000000
     new conv_thr            =       0.0000000100 Ry

     new unit-cell volume =    524.19800 a.u.^3 (    77.67813 Ang^3 )
     density =      3.89909 g/cm^3

CELL_PARAMETERS (alat=  5.28713280)
   1.190419034   0.000000000   0.000000000
  -0.595209517   1.030933125   0.000000000
   0.000000000   0.000000000   2.890043261

ATOMIC_POSITIONS (crystal)
Si            0.0000000000        0.0000000000        0.2378959997
Si           -0.0000000000       -0.0000000000        0.7621040003
Si            0.3333333300        0.6666666700        0.5844208569
Si            0.6666666700        0.3333333300        0.4155791431
Si            0.3333333300        0.6666666700        0.0762876520
Si            0.6666666700        0.3333333300        0.9237123480
Li            0.3333333300        0.6666666700        0.3317567412
Li            0.6666666700        0.3333333300        0.6682432588



     Writing config-only to output data dir ./output/SiLi.save/
     NEW-OLD atomic charge density approx. for the potential
     extrapolated charge   33.53275, renormalised to   30.00000

     total cpu time spent up to now is       40.1 secs

     Self-consistent Calculation

     iteration #  1     ecut=    80.00 Ry     beta= 0.70
     Davidson diagonalization with overlap
     c_bands:  1 eigenvalues not converged
     c_bands:  1 eigenvalues not converged
     c_bands:  1 eigenvalues not converged
     c_bands:  1 eigenvalues not converged
     c_bands:  1 eigenvalues not converged
     c_bands:  1 eigenvalues not converged
     c_bands:  1 eigenvalues not converged
     c_bands:  1 eigenvalues not converged
     c_bands:  2 eigenvalues not converged
     c_bands:  1 eigenvalues not converged
     c_bands:  1 eigenvalues not converged
     c_bands:  1 eigenvalues not converged
     ethr =  1.00E-06,  avg # of iterations = 16.7

     total cpu time spent up to now is       43.1 secs

     total energy              =     -76.83293906 Ry
     estimated scf accuracy    <       2.05694816 Ry

     iteration #  2     ecut=    80.00 Ry     beta= 0.70
     Davidson diagonalization with overlap
     ethr =  6.86E-03,  avg # of iterations =  7.7

     total cpu time spent up to now is       44.7 secs

     total energy              =     -74.06223065 Ry
     estimated scf accuracy    <      70.36396776 Ry

     iteration #  3     ecut=    80.00 Ry     beta= 0.70
     Davidson diagonalization with overlap
     ethr =  6.86E-03,  avg # of iterations =  5.2

     total cpu time spent up to now is       45.9 secs

     total energy              =     -78.81830528 Ry
     estimated scf accuracy    <       1.70880346 Ry

     iteration #  4     ecut=    80.00 Ry     beta= 0.70
     Davidson diagonalization with overlap
     ethr =  5.70E-03,  avg # of iterations =  1.4

     total cpu time spent up to now is       46.6 secs

     total energy              =     -78.82253904 Ry
     estimated scf accuracy    <       0.72701458 Ry

     iteration #  5     ecut=    80.00 Ry     beta= 0.70
     Davidson diagonalization with overlap
     ethr =  2.42E-03,  avg # of iterations =  1.7

     total cpu time spent up to now is       47.3 secs

     total energy              =     -78.82316946 Ry
     estimated scf accuracy    <       0.38157170 Ry

     iteration #  6     ecut=    80.00 Ry     beta= 0.70
     Davidson diagonalization with overlap
     ethr =  1.27E-03,  avg # of iterations =  1.7

     total cpu time spent up to now is       48.0 secs

     total energy              =     -78.81102275 Ry
     estimated scf accuracy    <       0.22418442 Ry

     iteration #  7     ecut=    80.00 Ry     beta= 0.70
     Davidson diagonalization with overlap
     ethr =  7.47E-04,  avg # of iterations =  2.9

     total cpu time spent up to now is       48.7 secs

     total energy              =     -78.81252675 Ry
     estimated scf accuracy    <       0.05681847 Ry

     iteration #  8     ecut=    80.00 Ry     beta= 0.70
     Davidson diagonalization with overlap
     ethr =  1.89E-04,  avg # of iterations =  4.9

     total cpu time spent up to now is       49.7 secs

     total energy              =     -78.81889474 Ry
     estimated scf accuracy    <       0.00207255 Ry

     iteration #  9     ecut=    80.00 Ry     beta= 0.70
     Davidson diagonalization with overlap
     ethr =  6.91E-06,  avg # of iterations =  6.6

     total cpu time spent up to now is       50.8 secs

     total energy              =     -78.81949834 Ry
     estimated scf accuracy    <       0.00101637 Ry

     iteration # 10     ecut=    80.00 Ry     beta= 0.70
     Davidson diagonalization with overlap
     ethr =  3.39E-06,  avg # of iterations =  1.6

     total cpu time spent up to now is       51.4 secs

     total energy              =     -78.81911575 Ry
     estimated scf accuracy    <       0.00243129 Ry

     iteration # 11     ecut=    80.00 Ry     beta= 0.70
     Davidson diagonalization with overlap
     ethr =  3.39E-06,  avg # of iterations =  2.0

     total cpu time spent up to now is       52.1 secs

     total energy              =     -78.81925630 Ry
     estimated scf accuracy    <       0.00020131 Ry

     iteration # 12     ecut=    80.00 Ry     beta= 0.70
     Davidson diagonalization with overlap
     ethr =  6.71E-07,  avg # of iterations =  1.5

     total cpu time spent up to now is       52.8 secs

     total energy              =     -78.81924114 Ry
     estimated scf accuracy    <       0.00024363 Ry

     iteration # 13     ecut=    80.00 Ry     beta= 0.70
     Davidson diagonalization with overlap
     ethr =  6.71E-07,  avg # of iterations =  1.4

     total cpu time spent up to now is       53.4 secs

     total energy              =     -78.81923828 Ry
     estimated scf accuracy    <       0.00008694 Ry

     iteration # 14     ecut=    80.00 Ry     beta= 0.70
     Davidson diagonalization with overlap
     ethr =  2.90E-07,  avg # of iterations =  1.8

     total cpu time spent up to now is       54.1 secs

     total energy              =     -78.81923805 Ry
     estimated scf accuracy    <       0.00002206 Ry

     iteration # 15     ecut=    80.00 Ry     beta= 0.70
     Davidson diagonalization with overlap
     ethr =  7.35E-08,  avg # of iterations =  3.3

     total cpu time spent up to now is       54.9 secs

     total energy              =     -78.81924102 Ry
     estimated scf accuracy    <       0.00000005 Ry

     iteration # 16     ecut=    80.00 Ry     beta= 0.70
     Davidson diagonalization with overlap
     ethr =  1.72E-10,  avg # of iterations =  6.3

     total cpu time spent up to now is       56.0 secs

     total energy              =     -78.81924125 Ry
     estimated scf accuracy    <       0.00000058 Ry

     iteration # 17     ecut=    80.00 Ry     beta= 0.70
     Davidson diagonalization with overlap
     ethr =  1.72E-10,  avg # of iterations =  2.9

     total cpu time spent up to now is       56.9 secs

     total energy              =     -78.81924129 Ry
     estimated scf accuracy    <       0.00000002 Ry

     iteration # 18     ecut=    80.00 Ry     beta= 0.70
     Davidson diagonalization with overlap
     ethr =  6.50E-11,  avg # of iterations =  2.6

     total cpu time spent up to now is       57.7 secs

     End of self-consistent calculation

          k = 0.0000 0.0000 0.0000 (  3787 PWs)   bands (ev):

   -32.9976 -32.9898  -1.8840  -0.0600   0.3919   5.7883   6.3036  12.0501
    12.0501  12.6105  12.6105  13.4913  13.4913  13.7253  14.5344  14.5344
    14.6358  14.6358  16.0194

          k = 0.0000 0.0000 0.0865 (  3775 PWs)   bands (ev):

   -32.9977 -32.9886  -1.7965  -0.6422   1.2093   4.2958   8.0385  12.1287
    12.1287  12.3405  12.6661  12.6661  13.2779  13.2779  13.8807  13.8807
    15.5564  15.5564  16.7744

          k = 0.0000 0.0000-0.1730 (  3792 PWs)   bands (ev):

   -32.9990 -32.9883  -1.6628  -0.9997   2.0447   3.2170  10.1336  10.2126
    12.2411  12.2411  12.6963  12.6963  13.1240  13.1240  13.5587  13.5587
    16.3479  16.3479  17.0967

          k = 0.0000 0.1078 0.0000 (  3789 PWs)   bands (ev):

   -32.9969 -32.9876  -1.6900   0.1282   0.5639   5.9514   6.4115  10.2208
    10.8517  11.7562  12.1759  12.5723  13.0332  13.1731  13.6185  14.4355
    15.1822  16.1354  16.3623

          k = 0.0000 0.1078 0.0865 (  3783 PWs)   bands (ev):

   -32.9968 -32.9871  -1.6002  -0.4642   1.3931   4.4399   8.1567  10.3250
    10.9539  11.0880  12.0229  12.3775  13.0178  13.4487  13.5937  14.3708
    14.5882  16.1547  17.2014

          k = 0.0000 0.1078-0.1730 (  3786 PWs)   bands (ev):

   -32.9971 -32.9870  -1.4606  -0.8280   2.2450   3.3514   9.9845  10.2077
    10.7573  10.9376  11.1438  11.5946  12.9775  13.7472  14.0957  14.5757
    14.8962  15.4052  16.2639

          k = 0.0000 0.2156 0.0000 (  3795 PWs)   bands (ev):

   -32.9929 -32.9847  -1.1109   0.6911   1.0731   6.2569   6.6240   8.1573
     9.3041   9.7158   9.7182  11.4905  12.0637  12.4144  13.3607  14.4731
    15.1445  16.0226  16.7635

          k = 0.0000 0.2156 0.0865 (  3790 PWs)   bands (ev):

   -32.9927 -32.9846  -1.0143   0.0660   1.9450   4.7868   7.9495   8.3382
     8.8147   9.8241  10.7357  10.9111  11.9608  12.7494  12.8314  13.7942
    15.5908  15.8714  16.6213

          k = 0.0000 0.2156-0.1730 (  3790 PWs)   bands (ev):

   -32.9930 -32.9842  -0.8568  -0.3139   2.8363   3.7286   7.8828   8.2899
    10.0192  10.3569  10.4759  10.8428  11.5409  12.1306  13.2044  13.9231
    14.4026  15.2339  16.3687

          k = 0.0000 0.3233 0.0000 (  3781 PWs)   bands (ev):

   -32.9869 -32.9815  -0.1581   1.6113   1.8846   4.9050   6.7988   7.2590
     7.5565   8.2694   8.9481  10.7230  11.3395  11.3488  12.6705  13.2817
    13.9445  15.3351  16.5898

          k = 0.0000 0.3233 0.0865 (  3782 PWs)   bands (ev):

   -32.9872 -32.9814  -0.0515   0.9325   2.8445   4.5671   6.0936   6.8099
     8.4660   9.0551   9.1304  10.1419  10.5335  12.1498  12.9084  13.1049
    14.4371  14.8599  15.2237

          k = 0.0000 0.3233-0.1730 (  3780 PWs)   bands (ev):

   -32.9871 -32.9814   0.1370   0.5345   3.6844   4.1821   5.5610   6.4529
     8.9536   9.2491   9.7025   9.7126  11.2173  11.7059  12.5478  13.2166
    13.8470  14.8258  15.3811

          k = 0.0000 0.4311 0.0000 (  3757 PWs)   bands (ev):

   -32.9825 -32.9789   1.1288   2.4996   2.7610   3.4570   4.9159   5.7032
     8.4342   8.5606   9.1827  10.1629  10.3342  10.9103  10.9683  13.0833
    13.4974  14.6922  16.5291

          k = 0.0000 0.4311 0.0865 (  3759 PWs)   bands (ev):

   -32.9823 -32.9793   1.2387   2.0300   2.9470   3.9324   4.4267   6.4308
     7.7170   8.4263   8.6679   9.7532  10.4062  11.7940  12.2604  12.8437
    13.5795  14.7005  14.8349

          k = 0.0000 0.4311-0.1730 (  3756 PWs)   bands (ev):

   -32.9821 -32.9793   1.4665   1.6504   3.1276   3.5456   5.2982   6.4145
     7.0624   7.9003   8.8608   9.3280  11.6028  12.0212  12.5224  12.8370
    13.5231  13.9868  15.4211

          k = 0.0933 0.1617 0.0000 (  3781 PWs)   bands (ev):

   -32.9936 -32.9853  -1.3033   0.5042   0.9050   6.2518   6.5701   8.9779
     9.2077  10.3307  10.8476  11.0685  11.2242  14.0338  14.2619  14.2901
    15.6055  16.2682  16.4902

          k = 0.0933 0.1617 0.0865 (  3791 PWs)   bands (ev):

   -32.9943 -32.9853  -1.2096  -0.1065   1.7515   4.7298   8.1426   9.1095
     9.3784   9.9387  10.1725  11.4833  12.1006  13.3234  13.8494  14.4263
    14.8305  15.7243  16.3920

          k = 0.0933 0.1617-0.1730 (  3790 PWs)   bands (ev):

   -32.9942 -32.9853  -1.0575  -0.4848   2.6418   3.6111   9.1036   9.2019
     9.4745   9.6334  10.5657  10.8240  13.1681  13.1928  13.2930  13.5334
    14.6711  15.3441  16.0469

          k = 0.0933 0.2694 0.0000 (  3773 PWs)   bands (ev):

   -32.9887 -32.9818  -0.5363   1.2512   1.5718   5.9382   6.8260   7.7297
     7.9780   8.3808   8.9035  10.0193  10.1832  13.1194  13.7600  14.5289
    15.4387  15.6553  16.1644

          k = 0.0933 0.2694 0.0865 (  3776 PWs)   bands (ev):

   -32.9889 -32.9819  -0.4345   0.5977   2.4748   5.0152   7.1268   7.3743
     7.8424   9.1864   9.3339   9.7416  10.8935  12.3340  13.5473  14.0895
    14.9167  15.6373  16.4152

          k = 0.0933 0.2694-0.1730 (  3782 PWs)   bands (ev):

   -32.9892 -32.9820  -0.2574   0.1991   3.4060   4.0623   6.8087   7.2578
     8.2957   8.7096  10.0490  10.7202  11.2287  12.2127  12.4644  13.2000
    14.3540  15.7372  17.1120

          k = 0.0933 0.3772 0.0000 (  3762 PWs)   bands (ev):

   -32.9836 -32.9795   0.5927   2.3148   2.4854   4.1177   5.9268   6.4690
     7.1150   8.2711   8.8151   9.5188   9.6149  11.7410  11.9605  14.5314
    14.9855  15.1691  15.8868

          k = 0.0933 0.3772 0.0865 (  3767 PWs)   bands (ev):

   -32.9839 -32.9796   0.7034   1.6159   3.4493   4.0779   5.1824   6.9708
     7.2342   7.7764   8.7642   9.1859  10.4744  11.4036  12.6401  14.2261
    14.5372  15.0654  15.3282

          k = 0.0933 0.3772-0.1730 (  3764 PWs)   bands (ev):

   -32.9835 -32.9797   0.9182   1.2048   3.8161   4.5216   4.8015   6.1528
     7.4550   8.1656   8.4656   9.0736  11.2388  11.7632  12.5264  13.4272
    13.8011  15.6925  15.8260

          k = 0.0933 0.4850 0.0000 (  3756 PWs)   bands (ev):

   -32.9809 -32.9790   1.8546   2.2307   3.1346   3.8371   4.3889   5.4576
     7.0782   8.8631   9.1368   9.3180   9.7697  10.5999  11.1122  14.5380
    14.6949  14.9720  15.7972

          k = 0.0933 0.4850 0.0865 (  3753 PWs)   bands (ev):

   -32.9810 -32.9787   1.9472   2.2531   2.9446   3.3965   5.0970   5.8638
     6.9494   8.2176   8.3170   8.7813  10.3794  11.5387  11.9216  13.7586
    14.3722  15.1466  15.4355

          k = 0.0933 0.4850-0.1730 (  3744 PWs)   bands (ev):

   -32.9805 -32.9786   2.1589   2.1718   2.7721   3.1453   5.9402   6.3322
     6.7679   7.0908   8.0513   8.4227  11.3836  11.4394  12.9854  13.2053
    14.1666  14.7948  15.9597

          k = 0.1867 0.3233 0.0000 (  3765 PWs)   bands (ev):

   -32.9843 -32.9793   0.4110   2.1744   2.3712   5.3580   5.5046   6.7727
     7.7061   7.8644   7.8687   8.7127   9.0145  12.4088  13.6773  13.9225
    15.0557  15.8605  16.8269

          k = 0.1867 0.3233 0.0865 (  3750 PWs)   bands (ev):

   -32.9840 -32.9787   0.5171   1.4879   3.2614   5.1671   5.6187   6.4625
     6.7351   7.5255   8.9004   9.0437   9.7713  11.5970  12.7466  14.8922
    15.2386  16.0613  16.9016

          k = 0.1867 0.3233-0.1730 (  3766 PWs)   bands (ev):

   -32.9849 -32.9791   0.7300   1.0504   4.2465   4.4697   5.8368   6.0545
     6.3526   7.3591   9.4884   9.8965  10.0953  10.4558  13.2954  13.3487
    16.2005  16.4544  17.0998

          k = 0.1867 0.4311 0.0000 (  3762 PWs)   bands (ev):

   -32.9808 -32.9786   1.7012   3.1014   3.3523   3.8158   4.9694   5.2243
     6.2378   7.5618   7.6997   9.1073   9.6095  11.0366  12.4507  13.8836
    14.2915  16.7078  17.0865

          k = 0.1867 0.4311 0.0865 (  3758 PWs)   bands (ev):

   -32.9808 -32.9784   1.8089   2.6181   3.5219   4.2927   4.6079   5.2844
     6.7754   6.9946   8.0434   8.7869   9.2401  10.9072  12.7171  14.3785
    15.5371  16.1566  16.6126

          k = 0.1867 0.4311-0.1730 (  3744 PWs)   bands (ev):

   -32.9806 -32.9778   2.0610   2.1960   3.7050   3.9874   5.0524   5.5120
     6.2912   7.2836   7.8410   8.7245   9.5582   9.9359  14.2338  14.4319
    15.3511  16.0976  17.1899

          k = 0.2800 0.4850 0.0000 (  3750 PWs)   bands (ev):

   -32.9785 -32.9785   2.9398   3.2828   3.2828   4.3709   4.3709   4.3898
     5.9086   6.8244   6.8244   9.8265   9.8265  10.5470  12.5910  13.4168
    13.4168  18.5189  18.6773

          k = 0.2800 0.4850 0.0865 (  3762 PWs)   bands (ev):

   -32.9790 -32.9790   3.0626   3.3020   3.3020   3.9840   4.3000   4.3000
     6.5540   7.0698   7.0698   9.3451   9.3451   9.4443  13.8939  14.1887
    14.1887  17.6385  17.6385

          k = 0.2800 0.4850-0.1730 (  3738 PWs)   bands (ev):

   -32.9783 -32.9783   3.3230   3.3230   3.3751   3.4827   4.2318   4.2318
     7.4003   7.4003   7.5682   8.1922   8.8359   8.8359  15.5430  15.5430
    15.6134  16.1684  16.1684

          k = 0.0000 0.1078-0.0865 (  3783 PWs)   bands (ev):

   -32.9970 -32.9870  -1.6004  -0.4630   1.3896   4.4502   8.1119  10.3473
    10.9589  11.3164  11.9801  12.1495  12.7812  13.3760  13.8088  14.5154
    15.3779  15.6550  16.2086

          k = 0.0000 0.2156-0.0865 (  3790 PWs)   bands (ev):

   -32.9931 -32.9842  -1.0164   0.0768   1.9114   4.9149   7.3181   8.7684
     9.2401   9.8270  10.1651  10.8883  12.5169  12.8050  12.9533  13.4963
    15.1967  15.3862  15.9783

          k = 0.0000 0.3233-0.0865 (  3782 PWs)   bands (ev):

   -32.9873 -32.9813  -0.0588   0.9730   2.6792   5.1179   5.6926   6.7532
     7.9463   9.0562   9.7466  10.1324  11.2757  12.0241  12.1967  12.5300
    14.6097  15.0141  16.1638

          k = 0.0000 0.4311-0.0865 (  3759 PWs)   bands (ev):

   -32.9824 -32.9792   1.2267   2.0892   3.0735   3.3301   5.4647   5.8508
     7.1109   8.6682   9.1471   9.7507  10.9525  11.3018  11.8068  12.5636
    13.9723  14.7827  15.2239

          k =-0.0933 0.2694-0.0865 (  3776 PWs)   bands (ev):

   -32.9890 -32.9818  -0.4373   0.6122   2.4227   5.2990   6.3934   7.6891
     8.3590   8.5845   9.5078   9.7414  11.1230  12.4689  13.5229  13.8274
    14.1981  16.3096  16.5372

          k =-0.0933 0.3772-0.0865 (  3767 PWs)   bands (ev):

   -32.9839 -32.9796   0.6944   1.6708   3.1722   4.2752   5.7977   6.2573
     6.8487   8.0062   8.7640   9.9495  10.4926  10.8381  12.8638  13.6753
    14.1305  15.7544  16.1669

          k =-0.1867 0.4311-0.0865 (  3758 PWs)   bands (ev):

   -32.9804 -32.9788   1.8044   2.6460   3.6205   3.8512   5.0006   5.6112
     6.0262   7.2630   8.1060   8.6597   9.6986  10.4242  13.2692  13.8241
    15.6538  15.8664  17.2027

     the Fermi energy is    13.5418 ev

!    total energy              =     -78.81924129 Ry
     estimated scf accuracy    <          2.5E-10 Ry
     smearing contrib. (-TS)   =      -0.00015652 Ry
     internal energy E=F+TS    =     -78.81908477 Ry

     The total energy is F=E-TS. E is the sum of the following terms:
     one-electron contribution =      17.80119181 Ry
     hartree contribution      =       8.48127628 Ry
     xc contribution           =     -27.35041411 Ry
     ewald contribution        =     -77.75113875 Ry

     convergence has been achieved in  18 iterations

     Forces acting on atoms (cartesian axes, Ry/au):

     atom    1 type  1   force =     0.00000000    0.00000000   -0.04320450
     atom    2 type  1   force =    -0.00000000   -0.00000000    0.04320450
     atom    3 type  1   force =    -0.00000000   -0.00000000    0.00561656
     atom    4 type  1   force =    -0.00000000   -0.00000000   -0.00561656
     atom    5 type  1   force =    -0.00000000    0.00000000   -0.04881991
     atom    6 type  1   force =     0.00000000    0.00000000    0.04881991
     atom    7 type  2   force =    -0.00000000   -0.00000000   -0.01431274
     atom    8 type  2   force =     0.00000000   -0.00000000    0.01431274
     The non-local contrib.  to forces
     atom    1 type  1   force =    -0.00000000   -0.00000000   -0.04618485
     atom    2 type  1   force =     0.00000000    0.00000000    0.04618485
     atom    3 type  1   force =    -0.00000000   -0.00000000    0.02134430
     atom    4 type  1   force =     0.00000000    0.00000000   -0.02134430
     atom    5 type  1   force =     0.00000000    0.00000000   -0.03813996
     atom    6 type  1   force =     0.00000000    0.00000000    0.03813996
     atom    7 type  2   force =    -0.00000000   -0.00000000    0.00335071
     atom    8 type  2   force =     0.00000000    0.00000000   -0.00335071
     The ionic contribution  to forces
     atom    1 type  1   force =    -0.00000002    0.00000001   -1.88816769
     atom    2 type  1   force =     0.00000002   -0.00000001    1.88816769
     atom    3 type  1   force =     0.00000008   -0.00000005    0.54015791
     atom    4 type  1   force =    -0.00000008    0.00000005   -0.54015791
     atom    5 type  1   force =     0.00000005   -0.00000003   -1.30809143
     atom    6 type  1   force =    -0.00000005    0.00000003    1.30809143
     atom    7 type  2   force =     0.00000007   -0.00000004   -0.76500864
     atom    8 type  2   force =    -0.00000007    0.00000004    0.76500864
     The local contribution  to forces
     atom    1 type  1   force =     0.00000000   -0.00000000    1.88778768
     atom    2 type  1   force =    -0.00000000    0.00000000   -1.88778768
     atom    3 type  1   force =    -0.00000001    0.00000001   -0.55423722
     atom    4 type  1   force =     0.00000001   -0.00000001    0.55423722
     atom    5 type  1   force =     0.00000000   -0.00000000    1.29438293
     atom    6 type  1   force =    -0.00000000    0.00000000   -1.29438293
     atom    7 type  2   force =     0.00000061   -0.00000035    0.74736003
     atom    8 type  2   force =    -0.00000061    0.00000035   -0.74736003
     The core correction contribution to forces
     atom    1 type  1   force =     0.00000000   -0.00000000    0.00338190
     atom    2 type  1   force =    -0.00000000    0.00000000   -0.00338190
     atom    3 type  1   force =    -0.00000000    0.00000000   -0.00165949
     atom    4 type  1   force =     0.00000000   -0.00000000    0.00165949
     atom    5 type  1   force =    -0.00000000    0.00000000    0.00303892
     atom    6 type  1   force =     0.00000000   -0.00000000   -0.00303892
     atom    7 type  2   force =     0.00000000    0.00000000    0.00000000
     atom    8 type  2   force =     0.00000000    0.00000000    0.00000000
     The Hubbard contrib.    to forces
     atom    1 type  1   force =     0.00000000    0.00000000    0.00000000
     atom    2 type  1   force =     0.00000000    0.00000000    0.00000000
     atom    3 type  1   force =     0.00000000    0.00000000    0.00000000
     atom    4 type  1   force =     0.00000000    0.00000000    0.00000000
     atom    5 type  1   force =     0.00000000    0.00000000    0.00000000
     atom    6 type  1   force =     0.00000000    0.00000000    0.00000000
     atom    7 type  2   force =     0.00000000    0.00000000    0.00000000
     atom    8 type  2   force =     0.00000000    0.00000000    0.00000000
     The SCF correction term to forces
     atom    1 type  1   force =    -0.00000000    0.00000000   -0.00002153
     atom    2 type  1   force =     0.00000000   -0.00000000    0.00002153
     atom    3 type  1   force =     0.00000000   -0.00000000    0.00001106
     atom    4 type  1   force =    -0.00000000    0.00000000   -0.00001106
     atom    5 type  1   force =    -0.00000000    0.00000000   -0.00001036
     atom    6 type  1   force =     0.00000000   -0.00000000    0.00001036
     atom    7 type  2   force =     0.00000000   -0.00000000   -0.00001484
     atom    8 type  2   force =    -0.00000000    0.00000000    0.00001484

     Total force =     0.094725     Total SCF correction =     0.000043


     Computing stress (Cartesian axis) and pressure

          total   stress  (Ry/bohr**3)                   (kbar)     P=      833.47
   0.00569705   0.00000000   0.00000000          838.06        0.00        0.00
   0.00000000   0.00569705   0.00000000            0.00      838.06        0.00
   0.00000000   0.00000000   0.00560343            0.00        0.00      824.29

     Energy error            =      2.7E-01 Ry
     Gradient error          =      4.9E-02 Ry/Bohr
     Cell gradient error     =      3.4E+02 kbar

     number of scf cycles    =   3
     number of bfgs steps    =   2

     enthalpy           old  =     -76.7642245650 Ry
     enthalpy           new  =     -77.0375285136 Ry

     CASE: enthalpy          _new < enthalpy          _old

     new trust radius        =       0.1400145166 bohr
ibrav =      4
 celldm(1) =      6.48635243
 celldm(3) =      2.41218138
Input lattice vectors:
     1.22681852    -0.00000000     0.00000000
    -0.61340926     1.06245600     0.00000000
     0.00000000     0.00000000     2.95930879
New lattice vectors in INITIAL alat:
     1.22681852     0.00000000     0.00000000
    -0.61340926     1.06245600     0.00000000
     0.00000000     0.00000000     2.95930879
New lattice vectors in NEW alat (for information only):
     1.00000000     0.00000000     0.00000000
    -0.50000000     0.86602540     0.00000000
     0.00000000     0.00000000     2.41218138
Discrepancy in bohr =     0.000000    0.000000    0.000000
     new conv_thr            =       0.0000000049 Ry

     new unit-cell volume =    570.08842 a.u.^3 (    84.47839 Ang^3 )
     density =      3.58522 g/cm^3

CELL_PARAMETERS (alat=  5.28713280)
   1.226818521   0.000000000   0.000000000
  -0.613409260   1.062456005   0.000000000
   0.000000000   0.000000000   2.959308787

ATOMIC_POSITIONS (crystal)
Si            0.0000000000        0.0000000000        0.2318746081
Si           -0.0000000000       -0.0000000000        0.7681253919
Si            0.3333333300        0.6666666700        0.5853306825
Si            0.6666666700        0.3333333300        0.4146693175
Si            0.3333333300        0.6666666700        0.0713587349
Si            0.6666666700        0.3333333300        0.9286412651
Li            0.3333333300        0.6666666700        0.3288738726
Li            0.6666666700        0.3333333300        0.6711261274



     Writing config-only to output data dir ./output/SiLi.save/
     NEW-OLD atomic charge density approx. for the potential
     extrapolated charge   32.41388, renormalised to   30.00000

     total cpu time spent up to now is       60.2 secs

     Self-consistent Calculation

[...]

     total cpu time spent up to now is      216.4 secs

     total energy              =     -79.09673052 Ry
     estimated scf accuracy    <       0.00000503 Ry

     iteration #  7     ecut=    80.00 Ry     beta= 0.70
     Davidson diagonalization with overlap
     ethr =  1.68E-08,  avg # of iterations =  4.6

     total cpu time spent up to now is      219.2 secs

     total energy              =     -79.09673448 Ry
     estimated scf accuracy    <       0.00000181 Ry

     iteration #  8     ecut=    80.00 Ry     beta= 0.70
     Davidson diagonalization with overlap
     ethr =  6.02E-09,  avg # of iterations =  2.0

     total cpu time spent up to now is      220.6 secs

     total energy              =     -79.09673462 Ry
     estimated scf accuracy    <       0.00000022 Ry

     iteration #  9     ecut=    80.00 Ry     beta= 0.70
     Davidson diagonalization with overlap
     ethr =  7.17E-10,  avg # of iterations =  3.1

     total cpu time spent up to now is      222.2 secs

     total energy              =     -79.09673466 Ry
     estimated scf accuracy    <          8.9E-09 Ry

     iteration # 10     ecut=    80.00 Ry     beta= 0.70
     Davidson diagonalization with overlap
     ethr =  2.97E-11,  avg # of iterations =  3.9

     total cpu time spent up to now is      224.0 secs

     total energy              =     -79.09673466 Ry
     estimated scf accuracy    <          2.0E-09 Ry

     iteration # 11     ecut=    80.00 Ry     beta= 0.70
     Davidson diagonalization with overlap
     ethr =  6.75E-12,  avg # of iterations =  2.1

     total cpu time spent up to now is      225.3 secs

     End of self-consistent calculation

          k = 0.0000 0.0000 0.0000 (  7015 PWs)   bands (ev):

   -33.9445 -33.9393  -2.8752  -0.5948  -0.1433   5.2886   5.6441  10.2983
    10.2983  10.7804  10.7804  11.5646  11.5646  12.6178  12.6178  13.0104
    13.2068  13.2068  14.5874

          k = 0.0000 0.0000 0.0867 (  6991 PWs)   bands (ev):

   -33.9445 -33.9393  -2.8287  -1.1196   0.6699   3.7004   7.4608  10.3916
    10.3916  10.8316  10.8316  11.3410  11.3410  11.7467  12.1652  12.1652
    13.9296  13.9296  14.6528

          k = 0.0000 0.0000-0.1734 (  6980 PWs)   bands (ev):

   -33.9445 -33.9393  -2.7743  -1.3932   1.5644   2.5507   9.4281   9.7895
    10.5497  10.5497  10.8326  10.8326  11.1496  11.1496  11.8834  11.8834
    14.5979  14.6975  14.6975

          k = 0.0000 0.1025 0.0000 (  7037 PWs)   bands (ev):

   -33.9437 -33.9387  -2.6918  -0.4282   0.0159   5.4175   5.7290   8.5456
     9.1951  10.1225  10.6284  11.0021  11.1539  11.2579  12.4134  12.6088
    13.4016  14.6345  14.9793

          k = 0.0000 0.1025 0.0867 (  7021 PWs)   bands (ev):

   -33.9436 -33.9387  -2.6441  -0.9578   0.8355   3.8235   7.5466   8.6244
     9.2907   9.5068  10.4291  10.9908  11.5489  11.7085  12.0412  12.6129
    12.6494  14.5560  15.2585

          k = 0.0000 0.1025-0.1734 (  7036 PWs)   bands (ev):

   -33.9436 -33.9387  -2.5883  -1.2326   1.7419   2.6728   8.5771   9.1698
     9.4856   9.6141   9.9601  10.0680  10.9469  11.8951  12.1080  13.0233
    13.0878  13.7987  14.7967

          k = 0.0000 0.2049 0.0000 (  7034 PWs)   bands (ev):

   -33.9414 -33.9372  -2.1434   0.0682   0.4878   5.2883   5.9516   6.8467
     7.9240   8.1702   8.4846  10.1719  10.2920  10.3851  12.0936  12.7252
    13.8680  13.9433  15.5573

          k = 0.0000 0.2049 0.0867 (  7011 PWs)   bands (ev):

   -33.9414 -33.9372  -2.0921  -0.4773   1.3348   4.0580   6.3567   7.2718
     7.9052   8.2741   9.4222   9.4602  10.0915  11.1912  11.7563  12.0109
    14.2350  14.2364  14.5975

          k = 0.0000 0.2049-0.1734 (  7008 PWs)   bands (ev):

   -33.9414 -33.9372  -2.0320  -0.7523   2.2598   3.0100   6.1865   7.1064
     8.4758   8.9519   9.5545   9.6884  10.2072  11.0254  11.1301  12.2623
    12.8550  13.9020  14.9615

          k = 0.0000 0.3074 0.0000 (  6998 PWs)   bands (ev):

   -33.9387 -33.9357  -1.2362   0.8713   1.2449   3.5307   5.5941   6.2136
     6.7185   7.4743   7.5573   9.5377   9.5449   9.5877  11.4005  11.8690
    12.2366  14.3329  14.8781

          k = 0.0000 0.3074 0.0867 (  6992 PWs)   bands (ev):

   -33.9387 -33.9357  -1.1786   0.3040   2.1554   3.3790   4.7324   5.9937
     7.4578   7.5827   8.3887   8.7206   8.8107  10.6208  10.9893  12.0016
    13.1500  13.7947  13.9397

          k = 0.0000 0.3074-0.1734 (  6986 PWs)   bands (ev):

   -33.9387 -33.9357  -1.1123   0.0401   2.8627   3.4501   4.0268   5.5155
     7.7683   7.7868   8.2560   8.6319   9.7674  10.5920  11.0857  11.7251
    12.3716  13.4091  14.3557

          k = 0.0000 0.4098 0.0000 (  6978 PWs)   bands (ev):

   -33.9368 -33.9348   0.0141   1.5489   1.7968   2.3775   3.8723   4.8373
     7.1240   7.5879   8.3710   8.6287   9.2108   9.2287  10.1062  11.0369
    11.9472  13.7581  15.0724

          k = 0.0000 0.4098 0.0867 (  6977 PWs)   bands (ev):

   -33.9367 -33.9349   0.0782   1.2874   1.6836   2.9406   3.4919   5.4903
     6.9943   7.2349   7.4057   8.3631   8.9420  10.3182  10.6354  11.6702
    12.1739  13.4297  13.8107

          k = 0.0000 0.4098-0.1734 (  6986 PWs)   bands (ev):

   -33.9367 -33.9349   0.1501   1.0697   1.8124   2.5446   4.4998   5.5097
     6.0441   7.0210   7.4396   7.9043   9.6879  10.4836  11.3969  11.7116
    12.0943  12.7539  14.6002

          k = 0.0887 0.1537 0.0000 (  7037 PWs)   bands (ev):

   -33.9421 -33.9377  -2.3259  -0.0963   0.3317   5.6147   5.7882   7.4761
     7.6341   8.7139   9.5326   9.6667   9.7942  11.9739  12.2734  13.0340
    14.3023  14.3253  14.6492

          k = 0.0887 0.1537 0.0867 (  7018 PWs)   bands (ev):

   -33.9421 -33.9377  -2.2761  -0.6331   1.1560   4.0708   7.0140   7.5142
     8.1382   8.4002   8.8998  10.2289  10.6625  11.8106  12.1843  12.4616
    13.3977  13.6593  15.1266

          k = 0.0887 0.1537-0.1734 (  6994 PWs)   bands (ev):

   -33.9421 -33.9377  -2.2171  -0.9120   2.0915   2.9058   7.4536   7.5077
     8.1266   8.2769   9.8829  10.1052  11.3121  11.5184  11.8926  12.0851
    12.7677  13.0374  14.7167

          k = 0.0887 0.2561 0.0000 (  6997 PWs)   bands (ev):

   -33.9396 -33.9362  -1.5977   0.5592   0.9505   4.6236   5.8297   6.5166
     6.9943   7.0316   7.7582   8.7510   8.8790  11.2358  12.6145  13.0732
    13.5603  13.6843  15.0415

          k = 0.0887 0.2561 0.0867 (  7003 PWs)   bands (ev):

   -33.9396 -33.9362  -1.5432   0.0032   1.8089   4.0872   5.5848   6.3399
     6.4091   7.8163   8.4444   8.6972   9.6154  10.6176  12.3931  12.6724
    13.0652  14.1065  14.5464

          k = 0.0887 0.2561-0.1734 (  6992 PWs)   bands (ev):

   -33.9396 -33.9362  -1.4787  -0.2736   2.7419   3.2950   5.1677   6.2102
     6.6373   7.4177   9.0933   9.6187  10.2991  10.8105  11.1762  11.8812
    12.2057  14.2257  15.0189

          k = 0.0887 0.3586 0.0000 (  6973 PWs)   bands (ev):

   -33.9372 -33.9350  -0.5166   1.4804   1.8003   2.7367   4.7660   5.4779
     5.7221   7.4357   7.9248   8.2444   8.4624  10.2041  10.9572  12.5977
    13.1628  13.9093  14.5098

          k = 0.0887 0.3586 0.0867 (  6981 PWs)   bands (ev):

   -33.9372 -33.9350  -0.4551   0.9184   2.5802   2.8613   4.0209   5.8152
     6.0554   6.8190   7.4583   8.4246   9.1914   9.8982  11.5998  12.1702
    13.2885  13.7052  14.2078

          k = 0.0887 0.3586-0.1734 (  6984 PWs)   bands (ev):

   -33.9372 -33.9350  -0.3839   0.6645   2.6788   3.3335   3.9403   5.2961
     5.9993   6.7793   7.4999   8.0787  10.1892  10.5140  11.0275  11.7326
    12.4845  14.1594  14.8817

          k = 0.0887 0.4610 0.0000 (  6966 PWs)   bands (ev):

   -33.9362 -33.9347   0.8112   0.9882   2.1368   2.8596   3.4155   4.6408
     5.5779   7.8338   8.0879   8.1865   8.8383   9.5559   9.8611  12.3684
    13.0244  13.8084  14.4126

          k = 0.0887 0.4610 0.0867 (  6980 PWs)   bands (ev):

   -33.9362 -33.9347   0.8790   1.0223   1.9804   2.4034   4.1320   5.0249
     5.5585   6.9759   7.4051   7.8517   9.1266  10.3310  10.7491  11.9619
    12.8965  13.4879  14.5155

          k = 0.0887 0.4610-0.1734 (  6968 PWs)   bands (ev):

   -33.9362 -33.9347   0.9682   1.0608   1.8053   2.1642   4.9811   5.2488
     5.7254   6.4165   6.4183   7.4937  10.2209  10.2654  11.1390  11.5396
    13.1637  13.5611  14.9395

          k = 0.1775 0.3074 0.0000 (  6983 PWs)   bands (ev):

   -33.9374 -33.9351  -0.6945   1.3610   1.6917   4.0193   4.0611   5.5192
     6.4179   6.6828   7.0792   7.8805   8.1399  11.4539  12.0550  12.4601
    13.7953  14.1885  15.2692

          k = 0.1775 0.3074 0.0867 (  6980 PWs)   bands (ev):

   -33.9374 -33.9351  -0.6362   0.8060   2.4827   3.9217   4.1911   5.1380
     5.7851   6.3798   7.7956   7.9788   9.0179  10.5350  11.3606  13.4061
    13.6728  14.7727  14.7860

          k = 0.1775 0.3074-0.1734 (  6996 PWs)   bands (ev):

   -33.9374 -33.9351  -0.5635   0.5189   3.3651   3.5465   4.3983   4.5956
     5.3552   6.2137   8.4327   8.9373   9.0101   9.3046  12.1367  12.2948
    14.1636  14.1704  15.4184

          k = 0.1775 0.4098 0.0000 (  6984 PWs)   bands (ev):

   -33.9358 -33.9346   0.5528   2.0924   2.3378   2.7333   3.6927   4.0689
     5.1904   6.3353   6.7130   8.3995   8.7712  10.2322  11.0513  12.6022
    13.0453  14.5412  15.2875

          k = 0.1775 0.4098 0.0867 (  6987 PWs)   bands (ev):

   -33.9358 -33.9346   0.6164   1.8158   2.2165   3.3164   3.5567   3.8663
     5.7210   5.9924   7.0834   7.7981   8.4159   9.9119  11.4631  13.2616
    14.1790  14.3909  14.9250

          k = 0.1775 0.4098-0.1734 (  6986 PWs)   bands (ev):

   -33.9358 -33.9346   0.6950   1.5721   2.3350   3.0029   3.7762   4.2781
     5.4734   6.2055   6.9420   7.7627   8.5519   8.8597  12.8861  13.4620
    13.5901  14.9125  15.5819

          k = 0.2662 0.4610 0.0000 (  7026 PWs)   bands (ev):

   -33.9348 -33.9348   1.8388   2.0291   2.0291   3.1880   3.1880   3.4762
     4.9124   5.8420   5.8420   9.0110   9.0110   9.8240  11.3151  12.1880
    12.1880  16.3345  16.7963

          k = 0.2662 0.4610 0.0867 (  6984 PWs)   bands (ev):

   -33.9348 -33.9348   1.9347   2.0508   2.0508   3.0879   3.1126   3.1126
     5.5616   6.1068   6.1068   8.4504   8.4504   8.5888  12.7155  13.0271
    13.0271  16.0064  16.2513

          k = 0.2662 0.4610-0.1734 (  7020 PWs)   bands (ev):

   -33.9348 -33.9348   2.0746   2.0746   2.0820   2.7484   3.0397   3.0397
     6.4756   6.4756   6.4970   7.3912   7.8700   7.8700  14.3003  14.5846
    14.5846  14.7708  14.7708

          k = 0.0000 0.1025-0.0867 (  7021 PWs)   bands (ev):

   -33.9436 -33.9387  -2.6442  -0.9565   0.8312   3.8388   7.4194   8.7126
     9.3102   9.8428  10.3146  10.7024  11.3885  11.5848  12.0788  12.5424
    13.8587  14.0100  14.4376

          k = 0.0000 0.2049-0.0867 (  7011 PWs)   bands (ev):

   -33.9414 -33.9372  -2.0931  -0.4663   1.2928   4.2611   5.8630   7.4104
     8.2849   8.5511   8.7556   9.3647  10.6343  11.3490  11.4113  12.2762
    13.3213  13.6687  15.0087

          k = 0.0000 0.3074-0.0867 (  6992 PWs)   bands (ev):

   -33.9387 -33.9357  -1.1825   0.3466   1.9466   3.7018   4.9084   5.6740
     6.7324   7.5879   8.6939   9.0145   9.9895  10.3302  10.7094  11.0990
    12.9402  13.4533  15.2464

          k = 0.0000 0.4098-0.0867 (  6977 PWs)   bands (ev):

   -33.9367 -33.9349   0.0697   1.3099   1.9308   2.2266   4.6274   4.8954
     6.1539   7.2365   8.2607   8.3552   9.4168  10.3336  10.3430  10.8973
    12.4023  13.3443  14.3251

          k =-0.0887 0.2561-0.0867 (  7003 PWs)   bands (ev):

   -33.9396 -33.9362  -1.5446   0.0182   1.7435   4.5529   4.8950   6.4546
     6.8475   7.2325   8.4943   8.8707   9.7975  11.3400  11.7041  12.2490
    12.5238  14.5613  15.2150

          k =-0.0887 0.3586-0.0867 (  6981 PWs)   bands (ev):

   -33.9372 -33.9350  -0.4604   0.9769   2.3389   2.8544   4.9318   5.1996
     5.7024   6.5581   7.6735   8.9707   9.3288  10.0174  11.0364  12.0648
    12.6269  13.9270  15.2168

          k =-0.1775 0.4098-0.0867 (  6987 PWs)   bands (ev):

   -33.9358 -33.9346   0.6130   1.8156   2.3859   2.7760   3.7183   4.4488
     5.0747   6.1867   7.1170   7.7415   8.7384   9.5807  12.0601  12.4143
    14.1208  14.4872  15.3288

     the Fermi energy is    12.0344 ev

!    total energy              =     -79.09673466 Ry
     estimated scf accuracy    <          4.1E-11 Ry
     smearing contrib. (-TS)   =      -0.00116490 Ry
     internal energy E=F+TS    =     -79.09556976 Ry

     The total energy is F=E-TS. E is the sum of the following terms:
     one-electron contribution =      16.67754621 Ry
     hartree contribution      =       7.48008899 Ry
     xc contribution           =     -26.82117394 Ry
     ewald contribution        =     -76.43203102 Ry

     convergence has been achieved in  11 iterations

     Forces acting on atoms (cartesian axes, Ry/au):

     atom    1 type  1   force =    -0.00000000    0.00000000    0.00007439
     atom    2 type  1   force =     0.00000000   -0.00000000   -0.00007439
     atom    3 type  1   force =     0.00000000    0.00000000   -0.00015094
     atom    4 type  1   force =     0.00000000    0.00000000    0.00015094
     atom    5 type  1   force =     0.00000000   -0.00000000   -0.00011213
     atom    6 type  1   force =     0.00000000   -0.00000000    0.00011213
     atom    7 type  2   force =     0.00000000   -0.00000000   -0.00007468
     atom    8 type  2   force =    -0.00000000   -0.00000000    0.00007468
     The non-local contrib.  to forces
     atom    1 type  1   force =     0.00000000    0.00000000   -0.01199566
     atom    2 type  1   force =     0.00000000    0.00000000    0.01199566
     atom    3 type  1   force =     0.00000000    0.00000000    0.01101257
     atom    4 type  1   force =    -0.00000000   -0.00000000   -0.01101257
     atom    5 type  1   force =    -0.00000000   -0.00000000    0.00248276
     atom    6 type  1   force =     0.00000000    0.00000000   -0.00248276
     atom    7 type  2   force =     0.00000000    0.00000000    0.00410947
     atom    8 type  2   force =    -0.00000000   -0.00000000   -0.00410947
     The ionic contribution  to forces
     atom    1 type  1   force =    -0.00000002    0.00000001   -0.67744172
     atom    2 type  1   force =     0.00000002   -0.00000001    0.67744172
     atom    3 type  1   force =     0.00000008   -0.00000004    0.16435133
     atom    4 type  1   force =    -0.00000008    0.00000004   -0.16435133
     atom    5 type  1   force =     0.00000006   -0.00000003   -0.57906742
     atom    6 type  1   force =    -0.00000006    0.00000003    0.57906742
     atom    7 type  2   force =     0.00000006   -0.00000004   -0.14067496
     atom    8 type  2   force =    -0.00000006    0.00000004    0.14067496
     The local contribution  to forces
     atom    1 type  1   force =     0.00000000   -0.00000000    0.68870094
     atom    2 type  1   force =    -0.00000000    0.00000000   -0.68870094
     atom    3 type  1   force =    -0.00000001    0.00000000   -0.17432157
     atom    4 type  1   force =     0.00000001   -0.00000000    0.17432157
     atom    5 type  1   force =    -0.00000000    0.00000000    0.57656467
     atom    6 type  1   force =     0.00000000   -0.00000000   -0.57656467
     atom    7 type  2   force =     0.00000064   -0.00000037    0.13649570
     atom    8 type  2   force =    -0.00000064    0.00000037   -0.13649570
     The core correction contribution to forces
     atom    1 type  1   force =     0.00000000   -0.00000000    0.00081891
     atom    2 type  1   force =    -0.00000000    0.00000000   -0.00081891
     atom    3 type  1   force =    -0.00000000    0.00000000   -0.00119706
     atom    4 type  1   force =     0.00000000   -0.00000000    0.00119706
     atom    5 type  1   force =    -0.00000000    0.00000000   -0.00008878
     atom    6 type  1   force =     0.00000000   -0.00000000    0.00008878
     atom    7 type  2   force =     0.00000000    0.00000000    0.00000000
     atom    8 type  2   force =     0.00000000    0.00000000    0.00000000
     The Hubbard contrib.    to forces
     atom    1 type  1   force =     0.00000000    0.00000000    0.00000000
     atom    2 type  1   force =     0.00000000    0.00000000    0.00000000
     atom    3 type  1   force =     0.00000000    0.00000000    0.00000000
     atom    4 type  1   force =     0.00000000    0.00000000    0.00000000
     atom    5 type  1   force =     0.00000000    0.00000000    0.00000000
     atom    6 type  1   force =     0.00000000    0.00000000    0.00000000
     atom    7 type  2   force =     0.00000000    0.00000000    0.00000000
     atom    8 type  2   force =     0.00000000    0.00000000    0.00000000
     The SCF correction term to forces
     atom    1 type  1   force =    -0.00000000    0.00000000   -0.00000809
     atom    2 type  1   force =     0.00000000   -0.00000000    0.00000809
     atom    3 type  1   force =     0.00000000   -0.00000000    0.00000379
     atom    4 type  1   force =    -0.00000000    0.00000000   -0.00000379
     atom    5 type  1   force =     0.00000000   -0.00000000   -0.00000336
     atom    6 type  1   force =    -0.00000000    0.00000000    0.00000336
     atom    7 type  2   force =     0.00000000   -0.00000000   -0.00000489
     atom    8 type  2   force =    -0.00000000    0.00000000    0.00000489

     Total force =     0.000305     Total SCF correction =     0.000015


     Computing stress (Cartesian axis) and pressure

          total   stress  (Ry/bohr**3)                   (kbar)     P=      523.24
   0.00357992   0.00000000  -0.00000000          526.62        0.00       -0.00
  -0.00000000   0.00357992  -0.00000000           -0.00      526.62       -0.00
   0.00000000   0.00000000   0.00351100            0.00        0.00      516.49


     Writing all to output data dir ./output/SiLi.save/

     init_run     :      2.07s CPU      2.64s WALL (       2 calls)
     electrons    :    156.16s CPU    186.85s WALL (      15 calls)
     update_pot   :      4.23s CPU      4.37s WALL (      13 calls)
     forces       :      4.73s CPU      4.86s WALL (      15 calls)
     stress       :     27.17s CPU     28.01s WALL (      15 calls)

     Called by init_run:
     wfcinit      :      0.99s CPU      1.03s WALL (       2 calls)
     potinit      :      0.43s CPU      0.75s WALL (       2 calls)
     hinit0       :      0.60s CPU      0.69s WALL (       2 calls)

     Called by electrons:
     c_bands      :    142.14s CPU    168.70s WALL (     168 calls)
     sum_band     :     12.71s CPU     13.43s WALL (     168 calls)
     v_of_rho     :      1.21s CPU      2.35s WALL (     179 calls)
     mix_rho      :      0.14s CPU      0.26s WALL (     168 calls)

     Called by c_bands:
     init_us_2    :      3.17s CPU      3.63s WALL (   15824 calls)
     init_us_2:cp :      3.14s CPU      3.61s WALL (   15824 calls)
     cegterg      :    128.78s CPU    132.67s WALL (    7224 calls)

     Called by *egterg:
     cdiaghg      :     15.47s CPU     15.90s WALL (   35752 calls)
     h_psi        :     94.91s CPU     97.97s WALL (   36569 calls)
     g_psi        :      0.55s CPU      0.56s WALL (   29259 calls)

     Called by h_psi:
     h_psi:calbec :     14.54s CPU     14.99s WALL (   36569 calls)
     vloc_psi     :     67.77s CPU     70.08s WALL (   36569 calls)
     add_vuspsi   :     12.09s CPU     12.34s WALL (   36569 calls)

     General routines
     calbec       :     17.10s CPU     17.61s WALL (   39794 calls)
     fft          :      1.09s CPU      2.51s WALL (    2167 calls)
     ffts         :      0.06s CPU      0.19s WALL (     168 calls)
     fftw         :     65.66s CPU     67.83s WALL (  977678 calls)

     Parallel routines

     PWSCF        :   3m14.89s CPU   3m50.02s WALL


   This run was terminated on:  15: 9:14  29Dec2024            

=------------------------------------------------------------------------------=
   JOB DONE.
=------------------------------------------------------------------------------=
