
     Program PWSCF v.7.2 starts on 29Dec2024 at 17:29:40 

     This program is part of the open-source Quantum ESPRESSO suite
     for quantum simulation of materials; please cite
         "P. Giannozzi et al., J. Phys.:Condens. Matter 21 395502 (2009);
         "P. Giannozzi et al., J. Phys.:Condens. Matter 29 465901 (2017);
         "P. Giannozzi et al., J. Chem. Phys. 152 154105 (2020);
          URL http://www.quantum-espresso.org", 
     in publications or presentations arising from this work. More details at
     http://www.quantum-espresso.org/quote

     Parallel version (MPI & OpenMP), running on       8 processor cores
     Number of MPI processes:                 8
     Threads/MPI process:                     1

     MPI processes distributed on     1 nodes
     481783 MiB available memory on the printing compute node when the environment starts

     Waiting for input...
     Reading input from standard input

     Current dimensions of program PWSCF are:
     Max number of different atomic species (ntypx) = 10
     Max number of k-points (npk) =  40000
     Max angular momentum in pseudopotentials (lmaxx) =  4

     R & G space division:  proc/nbgrp/npool/nimage =       8
     Subspace diagonalization in iterative solution of the eigenvalue problem:
     a serial algorithm will be used


     Parallelization info
     --------------------
     sticks:   dense  smooth     PW     G-vecs:    dense   smooth      PW
     Min         544     544    154                14022    14022    2086
     Max         546     546    156                14023    14023    2087
     Sum        4357    4357   1237               112179   112179   16689

     Using Slab Decomposition



     bravais-lattice index     =            4
     lattice parameter (alat)  =      14.0677  a.u.
     unit-cell volume          =    1160.2444 (a.u.)^3
     number of atoms/cell      =            8
     number of atomic types    =            2
     number of electrons       =        30.00
     number of Kohn-Sham states=           19
     kinetic-energy cutoff     =      80.0000  Ry
     charge density cutoff     =     320.0000  Ry
     scf convergence threshold =      1.0E-08
     mixing beta               =       0.7000
     number of iterations used =            8  plain     mixing
     energy convergence thresh.=      1.0E-04
     force convergence thresh. =      1.0E-03
     press convergence thresh. =      1.0E+00
     Exchange-correlation= PBE
                           (   1   4   3   4   0   0   0)
     nstep                     =           50


     celldm(1)=  14.067656  celldm(2)=   0.000000  celldm(3)=   0.481231
     celldm(4)=   0.000000  celldm(5)=   0.000000  celldm(6)=   0.000000

     crystal axes: (cart. coord. in units of alat)
               a(1) = (   1.000000   0.000000   0.000000 )  
               a(2) = (  -0.500000   0.866025   0.000000 )  
               a(3) = (   0.000000   0.000000   0.481231 )  

     reciprocal axes: (cart. coord. in units 2 pi/alat)
               b(1) = (  1.000000  0.577350 -0.000000 )  
               b(2) = (  0.000000  1.154701  0.000000 )  
               b(3) = (  0.000000 -0.000000  2.078004 )  


     PseudoPot. # 1 for Si read from file:
     ../pseudo/Si_ONCV_PBE_sr.upf
     MD5 check sum: e543d271109d17c80368dfa7c482276d
     Pseudo is Norm-conserving + core correction, Zval =  4.0
     Generated using ONCVPSP code by D. R. Hamann
     Using radial grid of 1510 points,  6 beta functions with: 
                l(1) =   0
                l(2) =   0
                l(3) =   1
                l(4) =   1
                l(5) =   2
                l(6) =   2

     PseudoPot. # 2 for Li read from file:
     ../pseudo/Li_ONCV_PBE_sr.upf
     MD5 check sum: 50ff420e78310ffa21704f3361e624a4
     Pseudo is Norm-conserving, Zval =  3.0
     Generated using ONCVPSP code by D. R. Hamann
     Using radial grid of 1944 points,  4 beta functions with: 
                l(1) =   0
                l(2) =   0
                l(3) =   1
                l(4) =   1

     atomic species   valence    mass     pseudopotential
        Si             4.00    28.08550     Si( 1.00)
        Li             3.00     6.94100     Li( 1.00)

     12 Sym. Ops., with inversion, found



   Cartesian axes

     site n.     atom                  positions (alat units)
         1           Si  tau(   1) = (  -0.1408213   0.2439096   0.4044093  )
         2           Si  tau(   2) = (  -0.3591787   0.6221158   0.0768218  )
         3           Si  tau(   3) = (   0.3591787   0.6221158   0.4044093  )
         4           Si  tau(   4) = (   0.1408213   0.2439096   0.0768218  )
         5           Si  tau(   5) = (   0.2816425   0.0000000   0.4044093  )
         6           Si  tau(   6) = (   0.7183575   0.0000000   0.0768218  )
         7           Li  tau(   7) = (  -0.0000000   0.5773503   0.2406155  )
         8           Li  tau(   8) = (   0.5000000   0.2886751   0.2406155  )

     number of k points=    23  Marzari-Vanderbilt smearing, width (Ry)=  0.0200
                       cart. coord. in units 2pi/alat
        k(    1) = (   0.0000000   0.0000000   0.0000000), wk =   0.0156250
        k(    2) = (   0.0000000   0.0000000   0.2597505), wk =   0.0312500
        k(    3) = (   0.0000000   0.0000000   0.5195010), wk =   0.0312500
        k(    4) = (   0.0000000   0.0000000   0.7792515), wk =   0.0312500
        k(    5) = (   0.0000000   0.0000000  -1.0390019), wk =   0.0156250
        k(    6) = (   0.0000000   0.2886751   0.0000000), wk =   0.0937500
        k(    7) = (   0.0000000   0.2886751   0.2597505), wk =   0.1875000
        k(    8) = (   0.0000000   0.2886751   0.5195010), wk =   0.1875000
        k(    9) = (   0.0000000   0.2886751   0.7792515), wk =   0.1875000
        k(   10) = (   0.0000000   0.2886751  -1.0390019), wk =   0.0937500
        k(   11) = (   0.0000000  -0.5773503   0.0000000), wk =   0.0468750
        k(   12) = (   0.0000000  -0.5773503   0.2597505), wk =   0.0937500
        k(   13) = (   0.0000000  -0.5773503   0.5195010), wk =   0.0937500
        k(   14) = (   0.0000000  -0.5773503   0.7792515), wk =   0.0937500
        k(   15) = (   0.0000000  -0.5773503  -1.0390019), wk =   0.0468750
        k(   16) = (   0.2500000   0.4330127   0.0000000), wk =   0.0937500
        k(   17) = (   0.2500000   0.4330127   0.2597505), wk =   0.0937500
        k(   18) = (   0.2500000   0.4330127   0.5195010), wk =   0.0937500
        k(   19) = (   0.2500000   0.4330127   0.7792515), wk =   0.0937500
        k(   20) = (   0.2500000   0.4330127  -1.0390019), wk =   0.0937500
        k(   21) = (  -0.2500000  -0.4330127   0.2597505), wk =   0.0937500
        k(   22) = (  -0.2500000  -0.4330127   0.5195010), wk =   0.0937500
        k(   23) = (  -0.2500000  -0.4330127   0.7792515), wk =   0.0937500

     Dense  grid:   112179 G-vectors     FFT dimensions: (  81,  81,  40)

     Estimated max dynamical RAM per process >      37.64 MB

     Estimated total dynamical RAM >     301.12 MB

     Initial potential from superposition of free atoms

     starting charge      29.9872, renormalised to      30.0000
     Starting wfcs are   28 randomized atomic wfcs

     total cpu time spent up to now is        2.6 secs

     Self-consistent Calculation

     iteration #  1     ecut=    80.00 Ry     beta= 0.70
     Davidson diagonalization with overlap
     ethr =  1.00E-02,  avg # of iterations =  2.5

     Threshold (ethr) on eigenvalues was too large:
     Diagonalizing with lowered threshold

     Davidson diagonalization with overlap
     ethr =  2.31E-04,  avg # of iterations =  6.1

     total cpu time spent up to now is        6.8 secs

     total energy              =     -79.31060990 Ry
     estimated scf accuracy    <       0.08208969 Ry

     iteration #  2     ecut=    80.00 Ry     beta= 0.70
     Davidson diagonalization with overlap
     ethr =  2.74E-04,  avg # of iterations =  2.6

     total cpu time spent up to now is        8.6 secs

     total energy              =     -79.31656015 Ry
     estimated scf accuracy    <       0.01183896 Ry

     iteration #  3     ecut=    80.00 Ry     beta= 0.70
     Davidson diagonalization with overlap
     ethr =  3.95E-05,  avg # of iterations =  5.2

     total cpu time spent up to now is       10.6 secs

     total energy              =     -79.31881973 Ry
     estimated scf accuracy    <       0.00990761 Ry

     iteration #  4     ecut=    80.00 Ry     beta= 0.70
     Davidson diagonalization with overlap
     ethr =  3.30E-05,  avg # of iterations =  2.0

     total cpu time spent up to now is       12.2 secs

     total energy              =     -79.32080796 Ry
     estimated scf accuracy    <       0.00008983 Ry

     iteration #  5     ecut=    80.00 Ry     beta= 0.70
     Davidson diagonalization with overlap
     c_bands:  1 eigenvalues not converged
     ethr =  2.99E-07,  avg # of iterations =  7.4

     total cpu time spent up to now is       14.5 secs

     total energy              =     -79.32083225 Ry
     estimated scf accuracy    <       0.00004851 Ry

     iteration #  6     ecut=    80.00 Ry     beta= 0.70
     Davidson diagonalization with overlap
     ethr =  1.62E-07,  avg # of iterations =  2.1

     total cpu time spent up to now is       16.2 secs

     total energy              =     -79.32084374 Ry
     estimated scf accuracy    <       0.00000060 Ry

     iteration #  7     ecut=    80.00 Ry     beta= 0.70
     Davidson diagonalization with overlap
     ethr =  2.00E-09,  avg # of iterations =  4.5

     total cpu time spent up to now is       18.1 secs

     total energy              =     -79.32084395 Ry
     estimated scf accuracy    <       0.00000018 Ry

     iteration #  8     ecut=    80.00 Ry     beta= 0.70
     Davidson diagonalization with overlap
     ethr =  5.87E-10,  avg # of iterations =  2.1

     total cpu time spent up to now is       19.8 secs

     total energy              =     -79.32084400 Ry
     estimated scf accuracy    <       0.00000002 Ry

     iteration #  9     ecut=    80.00 Ry     beta= 0.70
     Davidson diagonalization with overlap
     ethr =  6.23E-11,  avg # of iterations =  2.9

     total cpu time spent up to now is       21.4 secs

     End of self-consistent calculation

          k = 0.0000 0.0000 0.0000 ( 14029 PWs)   bands (ev):

   -42.4496 -42.4495  -6.3806  -4.4510  -4.4510  -2.4223  -2.4223   0.1042
     0.7416   2.3342   3.6678   3.6678   4.8138   4.8138   4.9081   6.0159
     6.3575   6.3575   6.5851

          k = 0.0000 0.0000 0.2598 ( 13981 PWs)   bands (ev):

   -42.4494 -42.4493  -6.2363  -4.3111  -4.3111  -2.2831  -2.2831   0.2329
     0.8676   1.7980   3.6367   3.6367   4.0066   4.4058   4.4058   5.3018
     5.3018   6.2392   6.2392

          k = 0.0000 0.0000 0.5195 ( 13975 PWs)   bands (ev):

   -42.4492 -42.4491  -5.8251  -3.9150  -3.9150  -1.8937  -1.8937   0.1916
     0.7473   1.2225   2.5002   2.5002   3.7614   3.7615   3.9621   4.7470
     4.7470   5.8249   5.8249

          k = 0.0000 0.0000 0.7793 ( 13988 PWs)   bands (ev):

   -42.4489 -42.4488  -5.2547  -3.3739  -3.3739  -1.3953  -1.3953  -1.1469
     1.2140   1.2140   1.2215   1.6989   2.5893   2.5893   4.1959   4.9558
     4.9558   5.8836   6.1777

          k = 0.0000 0.0000-1.0390 ( 14024 PWs)   bands (ev):

   -42.4488 -42.4487  -4.9143  -3.0588  -3.0588  -1.7789  -1.1674  -1.1674
     0.7642   0.7642   1.5458   1.9353   1.9353   1.9673   4.0789   5.1827
     5.1827   5.3975   5.8612

          k = 0.0000 0.2887 0.0000 ( 14021 PWs)   bands (ev):

   -42.4496 -42.4495  -6.2749  -4.7449  -4.5566  -2.3560  -2.0250   0.5448
     1.0988   1.3182   2.9964   3.9633   4.5979   4.9906   5.0775   5.9696
     6.1032   6.2321   6.3257

          k = 0.0000 0.2887 0.2598 ( 14037 PWs)   bands (ev):

   -42.4494 -42.4494  -6.1307  -4.6031  -4.4152  -2.2211  -1.8915   0.6648
     1.2260   1.2437   3.0560   3.0643   3.8894   4.1849   4.6723   5.2543
     5.9210   6.2879   6.5360

          k = 0.0000 0.2887 0.5195 ( 14024 PWs)   bands (ev):

   -42.4491 -42.4491  -5.7203  -4.2003  -4.0140  -1.8467  -1.5263   0.2435
     1.1264   1.5772   2.1786   2.2962   2.6694   3.5473   4.0739   4.6573
     5.3580   5.6953   6.5468

          k = 0.0000 0.2887 0.7793 ( 13987 PWs)   bands (ev):

   -42.4489 -42.4488  -5.1517  -3.6439  -3.4621  -1.3858  -1.1178  -1.0553
     0.9341   1.0398   1.6599   2.1125   2.6948   2.8828   3.1946   4.3721
     5.3858   5.7759   6.1966

          k = 0.0000 0.2887-1.0390 ( 14014 PWs)   bands (ev):

   -42.4487 -42.4487  -4.8131  -3.3130  -3.1370  -1.6788  -1.1920  -1.0405
     0.5881   0.6091   1.9690   2.0942   2.3740   2.4126   3.3700   4.6199
     5.0580   5.5468   5.6870

          k = 0.0000-0.5774 0.0000 ( 14046 PWs)   bands (ev):

   -42.4495 -42.4495  -6.1327  -5.0435  -4.6449  -2.3254  -1.4863   0.4254
     1.4914   1.5039   1.9816   4.0442   4.1903   4.9828   5.1003   5.8788
     5.8916   5.9005   6.3410

          k = 0.0000-0.5774 0.2598 ( 14026 PWs)   bands (ev):

   -42.4494 -42.4494  -5.9889  -4.9002  -4.5026  -2.1931  -1.3628   0.4725
     1.6130   1.6342   2.0896   3.0976   3.6708   3.7199   4.5776   5.3605
     5.9456   6.0896   6.4315

          k = 0.0000-0.5774 0.5195 ( 13998 PWs)   bands (ev):

   -42.4491 -42.4491  -5.5798  -4.4919  -4.0979  -1.8279  -1.0444   0.1612
     1.7137   1.8051   2.0170   2.1777   2.3333   2.6452   4.0419   5.1255
     5.2633   5.5628   6.1993

          k = 0.0000-0.5774 0.7793 ( 14004 PWs)   bands (ev):

   -42.4488 -42.4488  -5.0146  -3.9229  -3.5385  -1.3896  -0.9390  -0.8383
     0.7877   0.8887   2.1801   2.5019   2.6254   2.8401   2.9878   3.9192
     5.2777   5.7532   5.9424

          k = 0.0000-0.5774-1.0390 ( 13996 PWs)   bands (ev):

   -42.4487 -42.4487  -4.6797  -3.5795  -3.2055  -1.5395  -1.2239  -1.0145
     0.4597   0.6589   2.1712   2.6276   2.7596   2.8716   2.9530   3.6770
     4.8356   5.6456   6.1021

          k = 0.2500 0.4330 0.0000 ( 14034 PWs)   bands (ev):

   -42.4495 -42.4495  -6.1368  -4.9413  -4.7723  -2.0645  -1.7530   0.3086
     1.4847   1.5381   2.6994   3.0865   4.5514   4.7079   5.1003   5.7850
     5.9292   5.9899   6.5938

          k = 0.2500 0.4330 0.2598 ( 14037 PWs)   bands (ev):

   -42.4494 -42.4494  -5.9942  -4.7984  -4.6268  -1.9432  -1.6232   0.4343
     1.5291   1.6650   2.7052   2.7470   3.5688   4.0025   4.0203   5.4113
     5.9304   6.0312   6.2167

          k = 0.2500 0.4330 0.5195 ( 14029 PWs)   bands (ev):

   -42.4491 -42.4491  -5.5863  -4.3913  -4.2177  -1.6026  -1.2812   0.2504
     1.3583   1.9240   1.9514   2.1523   2.3325   3.4277   3.8715   4.5297
     4.9607   5.7191   6.1997

          k = 0.2500 0.4330 0.7793 ( 14021 PWs)   bands (ev):

   -42.4488 -42.4488  -5.0216  -3.8253  -3.6525  -1.2276  -0.9790  -0.9103
     0.7700   0.8690   1.8140   2.5621   2.6767   3.0412   3.3863   4.0657
     4.4182   5.7965   6.0691

          k = 0.2500 0.4330-1.0390 ( 14012 PWs)   bands (ev):

   -42.4487 -42.4487  -4.6834  -3.4846  -3.3221  -1.5448  -1.1195  -1.0332
     0.4596   0.5382   2.3101   2.4726   2.7066   2.8669   2.9855   4.2497
     4.3787   5.6304   5.9196

          k =-0.2500-0.4330 0.2598 ( 14037 PWs)   bands (ev):

   -42.4494 -42.4494  -5.9917  -4.7982  -4.6323  -1.9269  -1.6279   0.3238
     1.6177   1.6756   2.8045   2.9130   3.6094   3.7680   3.8458   5.4807
     5.5879   6.5185   6.9210

          k =-0.2500-0.4330 0.5195 ( 14029 PWs)   bands (ev):

   -42.4491 -42.4491  -5.5813  -4.3909  -4.2288  -1.5629  -1.2923   0.0522
     1.7384   1.8686   1.9959   2.1114   2.3962   3.2124   3.6866   4.8348
     4.9732   5.7984   6.3722

          k =-0.2500-0.4330 0.7793 ( 14021 PWs)   bands (ev):

   -42.4488 -42.4488  -5.0155  -3.8246  -3.6669  -1.1594  -1.0275  -0.9351
     0.7694   0.7918   2.0661   2.5718   2.6348   2.9917   3.2763   4.1932
     4.3573   5.9856   6.1936

     the Fermi energy is     4.4990 ev

!    total energy              =     -79.32084401 Ry
     estimated scf accuracy    <          1.8E-09 Ry
     smearing contrib. (-TS)   =       0.00061020 Ry
     internal energy E=F+TS    =     -79.32145421 Ry

     The total energy is F=E-TS. E is the sum of the following terms:
     one-electron contribution =      -4.20891158 Ry
     hartree contribution      =       9.40818491 Ry
     xc contribution           =     -24.47088101 Ry
     ewald contribution        =     -60.04984652 Ry

     convergence has been achieved in   9 iterations

     Forces acting on atoms (cartesian axes, Ry/au):

     atom    1 type  1   force =    -0.00139742    0.00242041   -0.00769405
     atom    2 type  1   force =     0.00139742   -0.00242041    0.00769405
     atom    3 type  1   force =    -0.00139742   -0.00242041   -0.00769405
     atom    4 type  1   force =     0.00139742    0.00242041    0.00769405
     atom    5 type  1   force =     0.00279485   -0.00000000   -0.00769405
     atom    6 type  1   force =    -0.00279485    0.00000000    0.00769405
     atom    7 type  2   force =    -0.00000000   -0.00000000    0.00000000
     atom    8 type  2   force =     0.00000000    0.00000000    0.00000000
     The non-local contrib.  to forces
     atom    1 type  1   force =     0.01329769   -0.02303228    0.00217790
     atom    2 type  1   force =    -0.01329769    0.02303228   -0.00217790
     atom    3 type  1   force =     0.01329769    0.02303228    0.00217790
     atom    4 type  1   force =    -0.01329769   -0.02303228   -0.00217790
     atom    5 type  1   force =    -0.02659539   -0.00000000    0.00217790
     atom    6 type  1   force =     0.02659539   -0.00000000   -0.00217790
     atom    7 type  2   force =     0.00000000    0.00000000    0.00000000
     atom    8 type  2   force =     0.00000000    0.00000000    0.00000000
     The ionic contribution  to forces
     atom    1 type  1   force =    -0.42449843    0.73525291   -0.41633106
     atom    2 type  1   force =     0.42449843   -0.73525291    0.41633106
     atom    3 type  1   force =    -0.42449849   -0.73525295   -0.41633107
     atom    4 type  1   force =     0.42449849    0.73525295    0.41633107
     atom    5 type  1   force =     0.84899691    0.00000004   -0.41633106
     atom    6 type  1   force =    -0.84899691   -0.00000004    0.41633106
     atom    7 type  2   force =     0.00000006   -0.00000004    0.00000000
     atom    8 type  2   force =    -0.00000006    0.00000004    0.00000000
     The local contribution  to forces
     atom    1 type  1   force =     0.40974716   -0.70970291    0.40475753
     atom    2 type  1   force =    -0.40974716    0.70970291   -0.40475753
     atom    3 type  1   force =     0.40974716    0.70970291    0.40475753
     atom    4 type  1   force =    -0.40974716   -0.70970291   -0.40475753
     atom    5 type  1   force =    -0.81949433   -0.00000000    0.40475753
     atom    6 type  1   force =     0.81949433    0.00000000   -0.40475753
     atom    7 type  2   force =     0.00000138   -0.00000079    0.00000000
     atom    8 type  2   force =    -0.00000138    0.00000079    0.00000000
     The core correction contribution to forces
     atom    1 type  1   force =     0.00003999   -0.00006927    0.00170141
     atom    2 type  1   force =    -0.00003999    0.00006927   -0.00170141
     atom    3 type  1   force =     0.00003999    0.00006927    0.00170141
     atom    4 type  1   force =    -0.00003999   -0.00006927   -0.00170141
     atom    5 type  1   force =    -0.00007998   -0.00000000    0.00170141
     atom    6 type  1   force =     0.00007998    0.00000000   -0.00170141
     atom    7 type  2   force =     0.00000000    0.00000000    0.00000000
     atom    8 type  2   force =     0.00000000    0.00000000    0.00000000
     The Hubbard contrib.    to forces
     atom    1 type  1   force =     0.00000000    0.00000000    0.00000000
     atom    2 type  1   force =     0.00000000    0.00000000    0.00000000
     atom    3 type  1   force =     0.00000000    0.00000000    0.00000000
     atom    4 type  1   force =     0.00000000    0.00000000    0.00000000
     atom    5 type  1   force =     0.00000000    0.00000000    0.00000000
     atom    6 type  1   force =     0.00000000    0.00000000    0.00000000
     atom    7 type  2   force =     0.00000000    0.00000000    0.00000000
     atom    8 type  2   force =     0.00000000    0.00000000    0.00000000
     The SCF correction term to forces
     atom    1 type  1   force =     0.00001619   -0.00002805    0.00000017
     atom    2 type  1   force =    -0.00001619    0.00002805   -0.00000017
     atom    3 type  1   force =     0.00001619    0.00002805    0.00000017
     atom    4 type  1   force =    -0.00001619   -0.00002805   -0.00000017
     atom    5 type  1   force =    -0.00003239   -0.00000000    0.00000017
     atom    6 type  1   force =     0.00003239    0.00000000   -0.00000017
     atom    7 type  2   force =    -0.00000000    0.00000000   -0.00000000
     atom    8 type  2   force =     0.00000000   -0.00000000   -0.00000000

     Total force =     0.020051     Total SCF correction =     0.000079


     Computing stress (Cartesian axis) and pressure

          total   stress  (Ry/bohr**3)                   (kbar)     P=      -57.98
  -0.00041529   0.00000000   0.00000000          -61.09        0.00        0.00
   0.00000000  -0.00041529   0.00000000            0.00      -61.09        0.00
   0.00000000   0.00000000  -0.00035188            0.00        0.00      -51.76


     BFGS Geometry Optimization
     Energy error            =      0.0E+00 Ry
     Gradient error          =      7.7E-03 Ry/Bohr
     Cell gradient error     =      5.6E+02 kbar

     number of scf cycles    =   1
     number of bfgs steps    =   0

     enthalpy           new  =     -75.3772532736 Ry

     new trust radius        =       0.5000000000 bohr
ibrav =      4
 celldm(1) =     13.03516328
 celldm(3) =      0.48186473
Input lattice vectors:
     0.92660521     0.00000000     0.00000000
    -0.46330260     0.80246365     0.00000000
     0.00000000     0.00000000     0.44649837
New lattice vectors in INITIAL alat:
     0.92660521     0.00000000     0.00000000
    -0.46330260     0.80246365     0.00000000
     0.00000000     0.00000000     0.44649837
New lattice vectors in NEW alat (for information only):
     1.00000000     0.00000000     0.00000000
    -0.50000000     0.86602540     0.00000000
     0.00000000     0.00000000     0.48186473
Discrepancy in bohr =     0.000000    0.000000    0.000000
     new conv_thr            =       0.0000000100 Ry

     new unit-cell volume =    924.28350 a.u.^3 (   136.96468 Ang^3 )
     density =      2.21133 g/cm^3

CELL_PARAMETERS (alat= 14.06765600)
   0.926605205   0.000000000   0.000000000
  -0.463302603   0.802463647   0.000000000
   0.000000000   0.000000000   0.446498370

ATOMIC_POSITIONS (crystal)
Si            0.0000000000        0.2817954168        0.8394892200
Si           -0.0000000000        0.7182045832        0.1605107800
Si            0.7182045832        0.7182045832        0.8394892200
Si            0.2817954168        0.2817954168        0.1605107800
Si            0.2817954168        0.0000000000        0.8394892200
Si            0.7182045832        0.0000000000        0.1605107800
Li            0.3333333300        0.6666666700        0.5000000000
Li            0.6666666700        0.3333333300        0.5000000000



     Writing config-only to output data dir ./output/SiLi.save/
     NEW-OLD atomic charge density approx. for the potential
     extrapolated charge   22.34455, renormalised to   30.00000

     total cpu time spent up to now is       27.9 secs

     Self-consistent Calculation

     iteration #  1     ecut=    80.00 Ry     beta= 0.70
     Davidson diagonalization with overlap
     c_bands:  2 eigenvalues not converged
     c_bands:  1 eigenvalues not converged
     ethr =  1.00E-06,  avg # of iterations = 15.3

     total cpu time spent up to now is       33.9 secs

     total energy              =     -78.86526415 Ry
     estimated scf accuracy    <       0.44725897 Ry

     iteration #  2     ecut=    80.00 Ry     beta= 0.70
     Davidson diagonalization with overlap
     ethr =  1.49E-03,  avg # of iterations =  3.9

     total cpu time spent up to now is       36.1 secs

     total energy              =     -79.15791414 Ry
     estimated scf accuracy    <       1.93768553 Ry

     iteration #  3     ecut=    80.00 Ry     beta= 0.70
     Davidson diagonalization with overlap
     ethr =  1.49E-03,  avg # of iterations =  2.2

     total cpu time spent up to now is       37.7 secs

     total energy              =     -79.31722293 Ry
     estimated scf accuracy    <       0.14431126 Ry

     iteration #  4     ecut=    80.00 Ry     beta= 0.70
     Davidson diagonalization with overlap
     ethr =  4.81E-04,  avg # of iterations =  2.2

     total cpu time spent up to now is       39.3 secs

     total energy              =     -79.33880005 Ry
     estimated scf accuracy    <       0.00983117 Ry

     iteration #  5     ecut=    80.00 Ry     beta= 0.70
     Davidson diagonalization with overlap
     ethr =  3.28E-05,  avg # of iterations =  5.4

     total cpu time spent up to now is       41.4 secs

     total energy              =     -79.34341994 Ry
     estimated scf accuracy    <       0.00046367 Ry

     iteration #  6     ecut=    80.00 Ry     beta= 0.70
     Davidson diagonalization with overlap
     ethr =  1.55E-06,  avg # of iterations =  4.6

     total cpu time spent up to now is       43.4 secs

     total energy              =     -79.34361097 Ry
     estimated scf accuracy    <       0.00021902 Ry

     iteration #  7     ecut=    80.00 Ry     beta= 0.70
     Davidson diagonalization with overlap
     ethr =  7.30E-07,  avg # of iterations =  2.0

     total cpu time spent up to now is       45.0 secs

     total energy              =     -79.34364397 Ry
     estimated scf accuracy    <       0.00000347 Ry

     iteration #  8     ecut=    80.00 Ry     beta= 0.70
     Davidson diagonalization with overlap
     ethr =  1.16E-08,  avg # of iterations =  5.1

     total cpu time spent up to now is       47.2 secs

     total energy              =     -79.34364698 Ry
     estimated scf accuracy    <       0.00000295 Ry

     iteration #  9     ecut=    80.00 Ry     beta= 0.70
     Davidson diagonalization with overlap
     ethr =  9.82E-09,  avg # of iterations =  2.0

     total cpu time spent up to now is       48.7 secs

     total energy              =     -79.34364733 Ry
     estimated scf accuracy    <       0.00000008 Ry

     iteration # 10     ecut=    80.00 Ry     beta= 0.70
     Davidson diagonalization with overlap
     ethr =  2.76E-10,  avg # of iterations =  4.3

     total cpu time spent up to now is       50.8 secs

     total energy              =     -79.34364738 Ry
     estimated scf accuracy    <       0.00000006 Ry

     iteration # 11     ecut=    80.00 Ry     beta= 0.70
     Davidson diagonalization with overlap
     ethr =  1.86E-10,  avg # of iterations =  2.0

     total cpu time spent up to now is       52.3 secs

     End of self-consistent calculation

          k = 0.0000 0.0000 0.0000 ( 14029 PWs)   bands (ev):

   -40.0684 -40.0680  -5.7654  -3.3278  -3.3278  -1.1322  -1.1322   1.0310
     2.0376   5.5023   5.5134   5.5134   6.8285   6.8285   6.9065   7.9170
     8.7633   8.7633   9.4735

          k = 0.0000 0.0000 0.2800 ( 13981 PWs)   bands (ev):

   -40.0680 -40.0676  -5.5871  -3.1512  -3.1512  -0.9511  -0.9511   1.1893
     2.1814   4.2287   5.5462   5.5462   6.2170   6.4745   6.4745   7.4407
     7.4407   8.6409   8.6409

          k = 0.0000 0.0000 0.5599 ( 13975 PWs)   bands (ev):

   -40.0672 -40.0668  -5.0724  -2.6417  -2.6417  -0.4256  -0.4256   1.5637
     2.0706   2.5876   4.2690   4.2690   5.7258   5.7258   6.5056   6.7668
     6.7668   7.9259   7.9259

          k = 0.0000 0.0000 0.8399 ( 13988 PWs)   bands (ev):

   -40.0664 -40.0660  -4.3285  -1.9071  -1.9071   0.0943   0.3375   0.3375
     2.3500   2.5609   2.5609   3.1362   4.2501   4.2501   6.3434   7.0378
     7.0378   7.9681   8.3089

          k = 0.0000 0.0000-1.1198 ( 14024 PWs)   bands (ev):

   -40.0660 -40.0657  -3.8468  -1.4326  -1.4326  -0.7543   0.7790   0.7790
     1.8756   1.8756   2.7512   3.3442   3.3442   3.4480   5.8132   7.3078
     7.3626   7.3626   8.8915

          k = 0.0000 0.3115 0.0000 ( 14021 PWs)   bands (ev):

   -40.0683 -40.0680  -5.6356  -3.7338  -3.4762  -1.0624  -0.6095   1.5975
     2.4846   3.4488   4.6156   6.4091   6.7991   7.0219   7.5428   8.2041
     8.4308   8.7026   8.7198

          k = 0.0000 0.3115 0.2800 ( 14037 PWs)   bands (ev):

   -40.0680 -40.0677  -5.4571  -3.5564  -3.2980  -0.8884  -0.4327   1.7544
     2.6359   3.5043   4.6429   4.7662   6.0752   6.3142   6.8670   7.4315
     8.3191   8.7388   8.8320

          k = 0.0000 0.3115 0.5599 ( 14024 PWs)   bands (ev):

   -40.0672 -40.0669  -4.9419  -3.0436  -2.7830  -0.3875   0.0754   1.9128
     2.3933   3.0596   3.8435   4.0017   4.4354   5.3166   6.1213   6.8113
     7.5969   7.9128   8.9353

          k = 0.0000 0.3115 0.8399 ( 13987 PWs)   bands (ev):

   -40.0663 -40.0660  -4.1974  -2.2995  -2.0354   0.2108   0.3282   0.7646
     2.1690   2.3605   2.9325   3.6680   4.4090   4.6769   5.1594   6.2544
     7.3038   8.1221   8.3092

          k = 0.0000 0.3115-1.1198 ( 14014 PWs)   bands (ev):

   -40.0660 -40.0657  -3.7154  -1.8121  -1.5453  -0.6264   0.6839   0.8518
     1.6609   1.7872   3.3342   3.5709   3.9239   4.0547   5.4595   6.6060
     6.7837   7.5962   7.8015

          k = 0.0000-0.6231 0.0000 ( 14046 PWs)   bands (ev):

   -40.0682 -40.0681  -5.4593  -4.1286  -3.5958  -1.0518   0.1237   2.2027
     2.7423   2.9724   3.4128   6.2483   6.6140   7.1455   7.8265   8.0742
     8.0829   8.1478   8.6827

          k = 0.0000-0.6231 0.2800 ( 14026 PWs)   bands (ev):

   -40.0679 -40.0678  -5.2805  -3.9509  -3.4166  -0.8828   0.2931   2.3443
     2.8954   3.1270   3.5571   4.8452   5.7939   5.9118   6.6447   7.3920
     8.2239   8.7117   8.8493

          k = 0.0000-0.6231 0.5599 ( 13998 PWs)   bands (ev):

   -40.0671 -40.0669  -4.7645  -3.4369  -2.8980  -0.3988   0.7697   2.0576
     3.0991   3.3991   3.5666   3.5717   4.0822   4.1661   6.0271   7.3562
     7.4462   7.8806   8.5061

          k = 0.0000-0.6231 0.8399 ( 14004 PWs)   bands (ev):

   -40.0663 -40.0661  -4.0194  -2.6880  -2.1419   0.2499   0.4187   1.1765
     1.9875   2.1924   3.8925   4.1550   4.2074   4.5287   4.6543   5.8794
     7.4130   7.9998   8.1104

          k = 0.0000-0.6231-1.1198 ( 13996 PWs)   bands (ev):

   -40.0659 -40.0658  -3.5377  -2.1934  -1.6409  -0.4465   0.5903   0.6210
     1.5051   2.1718   3.6934   4.4161   4.5488   4.5949   4.7511   5.4673
     6.6972   7.5113   8.0165

          k = 0.2698 0.4673 0.0000 ( 14034 PWs)   bands (ev):

   -40.0682 -40.0681  -5.4645  -3.9944  -3.7729  -0.6645  -0.2781   1.8559
     2.9247   3.0296   4.2516   5.0707   7.0631   7.1424   7.3747   8.0086
     8.2428   8.3020   8.9009

          k = 0.2698 0.4673 0.2800 ( 14037 PWs)   bands (ev):

   -40.0679 -40.0678  -5.2865  -3.8170  -3.5930  -0.4985  -0.1026   2.0490
     3.0395   3.1846   4.3449   4.5467   5.4637   5.9931   6.2202   7.4743
     8.1751   8.5458   8.7408

          k = 0.2698 0.4673 0.5599 ( 14029 PWs)   bands (ev):

   -40.0671 -40.0669  -4.7714  -3.3029  -3.0746  -0.0229   0.3896   2.1801
     2.6055   3.4826   3.5672   3.7847   3.8262   5.1342   5.8272   6.6218
     7.1862   7.9919   8.4697

          k = 0.2698 0.4673 0.8399 ( 14021 PWs)   bands (ev):

   -40.0663 -40.0661  -4.0270  -2.5537  -2.3194   0.4060   0.6006   0.9898
     1.9153   2.0799   3.3853   4.2560   4.2905   4.8143   5.3057   5.9219
     6.5459   7.6862   8.3159

          k = 0.2698 0.4673-1.1198 ( 14012 PWs)   bands (ev):

   -40.0659 -40.0658  -3.5431  -2.0573  -1.8234  -0.4526   0.7015   0.7290
     1.5629   1.8388   4.0212   4.0822   4.3127   4.7045   4.7869   6.1847
     6.3047   7.6313   7.8535

          k =-0.2698-0.4673 0.2800 ( 14037 PWs)   bands (ev):

   -40.0679 -40.0678  -5.2849  -3.8160  -3.5954  -0.4943  -0.1127   1.9775
     3.0817   3.1951   4.4000   4.8136   5.3101   5.9606   6.0326   7.5122
     7.8709   8.9969   9.3846

          k =-0.2698-0.4673 0.5599 ( 14029 PWs)   bands (ev):

   -40.0671 -40.0669  -4.7681  -3.3007  -3.0797  -0.0111   0.3623   1.8860
     3.1114   3.3502   3.6594   3.7768   3.9135   4.9103   5.6488   6.9028
     7.1801   8.0120   8.7153

          k =-0.2698-0.4673 0.8399 ( 14021 PWs)   bands (ev):

   -40.0663 -40.0661  -4.0225  -2.5506  -2.3267   0.3551   0.6369   0.9403
     1.9697   2.0520   3.5682   4.2670   4.3011   4.7721   5.1332   6.0039
     6.4199   8.0129   8.4870

     the Fermi energy is     6.5920 ev

!    total energy              =     -79.34364739 Ry
     estimated scf accuracy    <          1.9E-09 Ry
     smearing contrib. (-TS)   =       0.00136043 Ry
     internal energy E=F+TS    =     -79.34500781 Ry

     The total energy is F=E-TS. E is the sum of the following terms:
     one-electron contribution =       2.17934978 Ry
     hartree contribution      =       8.48889499 Ry
     xc contribution           =     -25.20932908 Ry
     ewald contribution        =     -64.80392350 Ry

     convergence has been achieved in  11 iterations

     Forces acting on atoms (cartesian axes, Ry/au):

     atom    1 type  1   force =    -0.02853807    0.04942939   -0.05618848
     atom    2 type  1   force =     0.02853807   -0.04942939    0.05618848
     atom    3 type  1   force =    -0.02853807   -0.04942939   -0.05618848
     atom    4 type  1   force =     0.02853807    0.04942939    0.05618848
     atom    5 type  1   force =     0.05707615   -0.00000000   -0.05618848
     atom    6 type  1   force =    -0.05707615    0.00000000    0.05618848
     atom    7 type  2   force =    -0.00000000   -0.00000000    0.00000000
     atom    8 type  2   force =     0.00000000    0.00000000    0.00000000
     The non-local contrib.  to forces
     atom    1 type  1   force =    -0.02145341    0.03715839   -0.05824079
     atom    2 type  1   force =     0.02145341   -0.03715839    0.05824079
     atom    3 type  1   force =    -0.02145341   -0.03715839   -0.05824079
     atom    4 type  1   force =     0.02145341    0.03715839    0.05824079
     atom    5 type  1   force =     0.04290681    0.00000000   -0.05824079
     atom    6 type  1   force =    -0.04290681   -0.00000000    0.05824079
     atom    7 type  2   force =     0.00000000   -0.00000000    0.00000000
     atom    8 type  2   force =    -0.00000000    0.00000000    0.00000000
     The ionic contribution  to forces
     atom    1 type  1   force =    -0.48870378    0.84645986   -0.48074804
     atom    2 type  1   force =     0.48870378   -0.84645986    0.48074804
     atom    3 type  1   force =    -0.48870385   -0.84645990   -0.48074805
     atom    4 type  1   force =     0.48870385    0.84645990    0.48074805
     atom    5 type  1   force =     0.97740763    0.00000004   -0.48074804
     atom    6 type  1   force =    -0.97740763   -0.00000004    0.48074804
     atom    7 type  2   force =     0.00000007   -0.00000004    0.00000000
     atom    8 type  2   force =    -0.00000007    0.00000004    0.00000000
     The local contribution  to forces
     atom    1 type  1   force =     0.47896553   -0.82959264    0.47646024
     atom    2 type  1   force =    -0.47896553    0.82959264   -0.47646024
     atom    3 type  1   force =     0.47896553    0.82959264    0.47646024
     atom    4 type  1   force =    -0.47896553   -0.82959264   -0.47646024
     atom    5 type  1   force =    -0.95793107    0.00000000    0.47646024
     atom    6 type  1   force =     0.95793107   -0.00000000   -0.47646024
     atom    7 type  2   force =     0.00000126   -0.00000073    0.00000000
     atom    8 type  2   force =    -0.00000126    0.00000073    0.00000000
     The core correction contribution to forces
     atom    1 type  1   force =     0.00263631   -0.00456622    0.00633891
     atom    2 type  1   force =    -0.00263631    0.00456622   -0.00633891
     atom    3 type  1   force =     0.00263631    0.00456622    0.00633891
     atom    4 type  1   force =    -0.00263631   -0.00456622   -0.00633891
     atom    5 type  1   force =    -0.00527261    0.00000000    0.00633891
     atom    6 type  1   force =     0.00527261   -0.00000000   -0.00633891
     atom    7 type  2   force =     0.00000000    0.00000000    0.00000000
     atom    8 type  2   force =     0.00000000    0.00000000    0.00000000
     The Hubbard contrib.    to forces
     atom    1 type  1   force =     0.00000000    0.00000000    0.00000000
     atom    2 type  1   force =     0.00000000    0.00000000    0.00000000
     atom    3 type  1   force =     0.00000000    0.00000000    0.00000000
     atom    4 type  1   force =     0.00000000    0.00000000    0.00000000
     atom    5 type  1   force =     0.00000000    0.00000000    0.00000000
     atom    6 type  1   force =     0.00000000    0.00000000    0.00000000
     atom    7 type  2   force =     0.00000000    0.00000000    0.00000000
     atom    8 type  2   force =     0.00000000    0.00000000    0.00000000
     The SCF correction term to forces
     atom    1 type  1   force =     0.00001732   -0.00003000    0.00000120
     atom    2 type  1   force =    -0.00001732    0.00003000   -0.00000120
     atom    3 type  1   force =     0.00001732    0.00003000    0.00000120
     atom    4 type  1   force =    -0.00001732   -0.00003000   -0.00000120
     atom    5 type  1   force =    -0.00003464    0.00000000    0.00000120
     atom    6 type  1   force =     0.00003464   -0.00000000   -0.00000120
     atom    7 type  2   force =     0.00000000   -0.00000000   -0.00000000
     atom    8 type  2   force =    -0.00000000    0.00000000   -0.00000000

     Total force =     0.196186     Total SCF correction =     0.000085


     Computing stress (Cartesian axis) and pressure

          total   stress  (Ry/bohr**3)                   (kbar)     P=       52.76
   0.00038528   0.00000000   0.00000000           56.68        0.00        0.00
   0.00000000   0.00038528  -0.00000000            0.00       56.68       -0.00
   0.00000000   0.00000000   0.00030547            0.00        0.00       44.94

     Energy error            =      8.2E-01 Ry
     Gradient error          =      5.7E-02 Ry/Bohr
     Cell gradient error     =      4.6E+02 kbar

     number of scf cycles    =   2
     number of bfgs steps    =   1

     enthalpy           old  =     -75.3772532736 Ry
     enthalpy           new  =     -76.2020716198 Ry

     CASE: enthalpy          _new < enthalpy          _old

     new trust radius        =       0.7224276810 bohr
ibrav =      4
 celldm(1) =     11.53108560
 celldm(3) =      0.47999841
Input lattice vectors:
     0.81968777    -0.00000000     0.00000000
    -0.40984389     0.70987043    -0.00000000
     0.00000000    -0.00000000     0.39344883
New lattice vectors in INITIAL alat:
     0.81968777     0.00000000     0.00000000
    -0.40984389     0.70987043     0.00000000
     0.00000000     0.00000000     0.39344883
New lattice vectors in NEW alat (for information only):
     1.00000000     0.00000000     0.00000000
    -0.50000000     0.86602540     0.00000000
     0.00000000     0.00000000     0.47999841
Discrepancy in bohr =     0.000000    0.000000    0.000000
     new conv_thr            =       0.0000000057 Ry

     new unit-cell volume =    637.35444 a.u.^3 (    94.44618 Ang^3 )
     density =      3.20684 g/cm^3

CELL_PARAMETERS (alat= 14.06765600)
   0.819687772   0.000000000   0.000000000
  -0.409843886   0.709870434   0.000000000
   0.000000000   0.000000000   0.393448825

ATOMIC_POSITIONS (crystal)
Si           -0.0000000000        0.2888486343        0.8251574467
Si            0.0000000000        0.7111513657        0.1748425533
Si            0.7111513657        0.7111513657        0.8251574467
Si            0.2888486343        0.2888486343        0.1748425533
Si            0.2888486343        0.0000000000        0.8251574467
Si            0.7111513657        0.0000000000        0.1748425533
Li            0.3333333300        0.6666666700        0.5000000000
Li            0.6666666700        0.3333333300        0.5000000000



     Writing config-only to output data dir ./output/SiLi.save/
     NEW-OLD atomic charge density approx. for the potential

     negative rho (up, down):  1.760E-03 0.000E+00
     extrapolated charge   16.50013, renormalised to   30.00000

     total cpu time spent up to now is       58.7 secs

     Self-consistent Calculation

     iteration #  1     ecut=    80.00 Ry     beta= 0.70
     Davidson diagonalization with overlap
     c_bands:  1 eigenvalues not converged
     c_bands:  1 eigenvalues not converged
     c_bands:  1 eigenvalues not converged
     c_bands:  1 eigenvalues not converged
     c_bands:  1 eigenvalues not converged
     c_bands:  1 eigenvalues not converged
     c_bands:  1 eigenvalues not converged
     c_bands:  1 eigenvalues not converged
     c_bands:  1 eigenvalues not converged
     ethr =  1.00E-06,  avg # of iterations = 18.2

     total cpu time spent up to now is       65.1 secs

     total energy              =     -77.93588186 Ry
     estimated scf accuracy    <       1.84022733 Ry

     iteration #  2     ecut=    80.00 Ry     beta= 0.70
     Davidson diagonalization with overlap
     ethr =  6.13E-03,  avg # of iterations =  3.5

     total cpu time spent up to now is       67.1 secs

     total energy              =     -78.45593433 Ry
     estimated scf accuracy    <       3.16196835 Ry

     iteration #  3     ecut=    80.00 Ry     beta= 0.70
     Davidson diagonalization with overlap
     ethr =  6.13E-03,  avg # of iterations =  2.1

     total cpu time spent up to now is       68.7 secs

     total energy              =     -79.00414820 Ry
     estimated scf accuracy    <       0.03598964 Ry

     iteration #  4     ecut=    80.00 Ry     beta= 0.70
     Davidson diagonalization with overlap
     ethr =  1.20E-04,  avg # of iterations =  4.8

     total cpu time spent up to now is       70.6 secs

     total energy              =     -79.01934775 Ry
     estimated scf accuracy    <       0.00637601 Ry

     iteration #  5     ecut=    80.00 Ry     beta= 0.70
     Davidson diagonalization with overlap
     ethr =  2.13E-05,  avg # of iterations =  3.3

     total cpu time spent up to now is       72.3 secs

     total energy              =     -79.02102023 Ry
     estimated scf accuracy    <       0.00030700 Ry

     iteration #  6     ecut=    80.00 Ry     beta= 0.70
     Davidson diagonalization with overlap
     ethr =  1.02E-06,  avg # of iterations =  5.5

     total cpu time spent up to now is       74.2 secs

     total energy              =     -79.02111717 Ry
     estimated scf accuracy    <       0.00000822 Ry

     iteration #  7     ecut=    80.00 Ry     beta= 0.70
     Davidson diagonalization with overlap
     ethr =  2.74E-08,  avg # of iterations =  4.3

     total cpu time spent up to now is       76.0 secs

     total energy              =     -79.02111835 Ry
     estimated scf accuracy    <       0.00000690 Ry

     iteration #  8     ecut=    80.00 Ry     beta= 0.70
     Davidson diagonalization with overlap
     ethr =  2.30E-08,  avg # of iterations =  2.0

     total cpu time spent up to now is       77.6 secs

     total energy              =     -79.02111955 Ry
     estimated scf accuracy    <       0.00000004 Ry

     iteration #  9     ecut=    80.00 Ry     beta= 0.70
     Davidson diagonalization with overlap
     ethr =  1.30E-10,  avg # of iterations =  5.3

     total cpu time spent up to now is       79.8 secs

     total energy              =     -79.02111960 Ry
     estimated scf accuracy    <       0.00000001 Ry

     iteration # 10     ecut=    80.00 Ry     beta= 0.70
     Davidson diagonalization with overlap
     ethr =  4.59E-11,  avg # of iterations =  2.0

     total cpu time spent up to now is       81.3 secs

     End of self-consistent calculation

          k = 0.0000 0.0000 0.0000 ( 14029 PWs)   bands (ev):

   -35.5022 -35.4990  -4.0300  -0.6147  -0.6147   1.3766   1.3766   3.3084
     4.9409   9.4294   9.4294  11.1124  11.1124  11.3364  11.5130  12.8029
    13.9993  13.9993  15.3108

          k = 0.0000 0.0000 0.3177 ( 13981 PWs)   bands (ev):

   -35.5004 -35.4973  -3.7833  -0.3657  -0.3657   1.6297   1.6297   3.5208
     5.1147   8.3887   9.5848   9.5848  11.0346  11.0346  11.8433  11.9796
    11.9796  13.6244  13.6244

          k = 0.0000 0.0000 0.6354 ( 13975 PWs)   bands (ev):

   -35.4961 -35.4931  -3.0553   0.3709   0.3709   2.3826   2.3826   4.1366
     5.3125   5.6100   8.4077   8.4077  10.0194  10.0194  10.8848  10.8848
    11.8379  12.3489  12.3489

          k = 0.0000 0.0000 0.9531 ( 13988 PWs)   bands (ev):

   -35.4917 -35.4890  -1.9163   1.5371   1.5371   2.7351   3.6003   3.6003
     5.0528   5.9557   5.9557   6.2938   7.7868   7.7868  10.0634  11.4634
    11.4634  11.8364  13.3389

          k = 0.0000 0.0000-1.2708 ( 14024 PWs)   bands (ev):

   -35.4899 -35.4872  -0.9867   1.3257   2.5487   2.5487   4.4089   4.4089
     4.9051   4.9051   5.6679   6.1139   6.1139   6.6959   9.0237  10.9963
    12.1365  12.1365  14.0496

          k = 0.0000 0.3522 0.0000 ( 14021 PWs)   bands (ev):

   -35.5018 -35.4994  -3.8368  -1.3583  -0.9253   1.5253   2.2381   4.1682
     5.5562   7.1716   8.1446  11.2563  11.4451  11.6456  12.9134  13.1274
    13.5092  13.7166  13.8843

          k = 0.0000 0.3522 0.3177 ( 14037 PWs)   bands (ev):

   -35.5000 -35.4977  -3.5888  -1.1117  -0.6741   1.7623   2.4867   4.3854
     5.7496   7.3903   8.2671   8.6976  10.7915  11.0197  11.6029  12.0109
    13.3443  13.7641  13.8510

          k = 0.0000 0.3522 0.6354 ( 14024 PWs)   bands (ev):

   -35.4957 -35.4935  -2.8566  -0.3828   0.0699   2.4609   3.2238   4.9864
     5.5361   6.2969   7.6851   8.0095   8.3872   9.1010  10.4563  11.3120
    12.2732  12.7255  13.4053

          k = 0.0000 0.3522 0.9531 ( 13987 PWs)   bands (ev):

   -35.4914 -35.4893  -1.7088   0.7671   1.2545   2.9181   3.5469   4.3815
     5.2282   5.6468   6.0360   7.0569   8.1316   8.5327   9.2757  10.2622
    11.0622  12.1972  13.2112

          k = 0.0000 0.3522-1.2708 ( 14014 PWs)   bands (ev):

   -35.4896 -35.4876  -0.7630   1.4940   1.7465   2.3100   3.7604   4.0601
     4.5057   5.5845   6.5514   6.6391   7.0609   7.8707   9.5110  10.5852
    11.0260  11.2284  12.1016

          k = 0.0000-0.7044 0.0000 ( 14046 PWs)   bands (ev):

   -35.5011 -35.5001  -3.5527  -2.0170  -1.1411   1.5220   3.5261   5.2809
     5.6959   6.2753   6.6439  10.4187  11.7167  11.7271  12.6321  12.8955
    13.3756  13.6431  13.8198

          k = 0.0000-0.7044 0.3177 ( 14026 PWs)   bands (ev):

   -35.4994 -35.4983  -3.3020  -1.7741  -0.8889   1.7484   3.7661   5.5244
     5.9161   6.4741   6.8622   8.9673  10.1616  10.5480  10.8803  12.1718
    12.9670  13.8656  13.9350

          k = 0.0000-0.7044 0.6354 ( 13998 PWs)   bands (ev):

   -35.4951 -35.4941  -2.5610  -1.0568  -0.1412   2.4123   4.4706   5.6639
     6.2395   6.8294   6.8997   7.2464   7.5887   8.0871  10.0326  11.7544
    12.4286  12.9341  13.4391

          k = 0.0000-0.7044 0.9531 ( 14004 PWs)   bands (ev):

   -35.4908 -35.4899  -1.3944   0.0687   1.0524   3.1833   3.4326   4.5461
     5.3990   5.6640   7.4792   7.8356   7.8489   8.0355   8.5234  10.1069
    11.6050  12.3326  12.5364

          k = 0.0000-0.7044-1.2708 ( 13996 PWs)   bands (ev):

   -35.4890 -35.4881  -0.4141   1.0000   1.7371   2.1306   3.1778   3.8306
     4.2439   6.6309   6.7753   8.0001   8.6432   8.7312   8.8083   9.5937
    10.1540  10.9750  11.5701

          k = 0.3050 0.5283 0.0000 ( 14034 PWs)   bands (ev):

   -35.5011 -35.5001  -3.5638  -1.7963  -1.4651   2.2823   2.6748   4.7465
     6.1017   6.3575   7.6388   9.3074  11.6608  11.7160  12.1266  13.3136
    13.3627  13.3764  14.1677

          k = 0.3050 0.5283 0.3177 ( 14037 PWs)   bands (ev):

   -35.4994 -35.4983  -3.3133  -1.5520  -1.2183   2.5154   2.9137   4.9774
     6.3185   6.5746   7.8264   8.9145   9.5547  10.4536  10.8907  11.6434
    12.3592  14.0420  14.3072

          k = 0.3050 0.5283 0.6354 ( 14029 PWs)   bands (ev):

   -35.4951 -35.4941  -2.5732  -0.8286  -0.4860   3.1890   3.6090   5.4094
     6.1422   6.9281   7.1677   7.4335   7.5963   8.7815  10.1796  10.7974
    11.7307  12.8635  12.8907

          k = 0.3050 0.5283 0.9531 ( 14021 PWs)   bands (ev):

   -35.4908 -35.4899  -1.4086   0.3107   0.6750   3.1719   4.1757   4.4487
     5.1548   5.1858   6.9300   7.7459   8.1006   8.6421   9.3437   9.9446
    11.1926  11.4592  12.7790

          k = 0.3050 0.5283-1.2708 ( 14012 PWs)   bands (ev):

   -35.4890 -35.4881  -0.4326   1.2698   1.6846   1.7290   3.3583   3.6101
     5.0440   5.7019   7.4247   7.5994   7.9820   8.6953   9.0567   9.8725
    10.6587  11.4852  11.5764

          k =-0.3050-0.5283 0.3177 ( 14037 PWs)   bands (ev):

   -35.4994 -35.4983  -3.3133  -1.5509  -1.2160   2.5063   2.9114   4.9893
     6.3191   6.5771   7.8674   8.7656   9.7282  10.2920  10.5592  12.0121
    12.5961  14.2299  14.6734

          k =-0.3050-0.5283 0.6354 ( 14029 PWs)   bands (ev):

   -35.4951 -35.4941  -2.5734  -0.8266  -0.4812   3.1727   3.6114   5.5217
     5.9742   6.9810   7.1389   7.3517   7.7046   8.5682  10.2066  11.2572
    11.7673  12.6867  13.3553

          k =-0.3050-0.5283 0.9531 ( 14021 PWs)   bands (ev):

   -35.4908 -35.4899  -1.4090   0.3129   0.6816   3.1785   4.1982   4.7162
     4.7879   5.0856   6.9517   7.9297   8.1879   8.7384   9.0940   9.8785
    11.0083  11.9508  12.6754

     the Fermi energy is    11.0499 ev

!    total energy              =     -79.02111960 Ry
     estimated scf accuracy    <          4.3E-10 Ry
     smearing contrib. (-TS)   =      -0.00135504 Ry
     internal energy E=F+TS    =     -79.01976456 Ry

     The total energy is F=E-TS. E is the sum of the following terms:
     one-electron contribution =      14.78144000 Ry
     hartree contribution      =       6.91633397 Ry
     xc contribution           =     -26.60383365 Ry
     ewald contribution        =     -74.11370488 Ry

     convergence has been achieved in  10 iterations

     Forces acting on atoms (cartesian axes, Ry/au):

     atom    1 type  1   force =    -0.07950497    0.13770664   -0.14057558
     atom    2 type  1   force =     0.07950497   -0.13770664    0.14057558
     atom    3 type  1   force =    -0.07950497   -0.13770664   -0.14057558
     atom    4 type  1   force =     0.07950497    0.13770664    0.14057558
     atom    5 type  1   force =     0.15900993    0.00000000   -0.14057558
     atom    6 type  1   force =    -0.15900993   -0.00000000    0.14057558
     atom    7 type  2   force =     0.00000000    0.00000000    0.00000000
     atom    8 type  2   force =    -0.00000000   -0.00000000    0.00000000
     The non-local contrib.  to forces
     atom    1 type  1   force =    -0.07415555    0.12844119   -0.15319822
     atom    2 type  1   force =     0.07415555   -0.12844119    0.15319822
     atom    3 type  1   force =    -0.07415555   -0.12844119   -0.15319822
     atom    4 type  1   force =     0.07415555    0.12844119    0.15319822
     atom    5 type  1   force =     0.14831111   -0.00000000   -0.15319822
     atom    6 type  1   force =    -0.14831111    0.00000000    0.15319822
     atom    7 type  2   force =     0.00000000    0.00000000    0.00000000
     atom    8 type  2   force =     0.00000000    0.00000000    0.00000000
     The ionic contribution  to forces
     atom    1 type  1   force =    -0.41015046    0.71040155   -0.44974876
     atom    2 type  1   force =     0.41015046   -0.71040155    0.44974876
     atom    3 type  1   force =    -0.41015056   -0.71040160   -0.44974878
     atom    4 type  1   force =     0.41015056    0.71040160    0.44974878
     atom    5 type  1   force =     0.82030102    0.00000005   -0.44974876
     atom    6 type  1   force =    -0.82030102   -0.00000005    0.44974876
     atom    7 type  2   force =     0.00000009   -0.00000005   -0.00000000
     atom    8 type  2   force =    -0.00000009    0.00000005   -0.00000000
     The local contribution  to forces
     atom    1 type  1   force =     0.39849165   -0.69020779    0.44957990
     atom    2 type  1   force =    -0.39849165    0.69020779   -0.44957990
     atom    3 type  1   force =     0.39849165    0.69020779    0.44957990
     atom    4 type  1   force =    -0.39849165   -0.69020779   -0.44957990
     atom    5 type  1   force =    -0.79698330   -0.00000000    0.44957990
     atom    6 type  1   force =     0.79698330    0.00000000   -0.44957990
     atom    7 type  2   force =     0.00000110   -0.00000064    0.00000000
     atom    8 type  2   force =    -0.00000110    0.00000064    0.00000000
     The core correction contribution to forces
     atom    1 type  1   force =     0.00630073   -0.01091318    0.01279123
     atom    2 type  1   force =    -0.00630073    0.01091318   -0.01279123
     atom    3 type  1   force =     0.00630073    0.01091318    0.01279123
     atom    4 type  1   force =    -0.00630073   -0.01091318   -0.01279123
     atom    5 type  1   force =    -0.01260146    0.00000000    0.01279123
     atom    6 type  1   force =     0.01260146    0.00000000   -0.01279123
     atom    7 type  2   force =     0.00000000    0.00000000    0.00000000
     atom    8 type  2   force =     0.00000000    0.00000000    0.00000000
     The Hubbard contrib.    to forces
     atom    1 type  1   force =     0.00000000    0.00000000    0.00000000
     atom    2 type  1   force =     0.00000000    0.00000000    0.00000000
     atom    3 type  1   force =     0.00000000    0.00000000    0.00000000
     atom    4 type  1   force =     0.00000000    0.00000000    0.00000000
     atom    5 type  1   force =     0.00000000    0.00000000    0.00000000
     atom    6 type  1   force =     0.00000000    0.00000000    0.00000000
     atom    7 type  2   force =     0.00000000    0.00000000    0.00000000
     atom    8 type  2   force =     0.00000000    0.00000000    0.00000000
     The SCF correction term to forces
     atom    1 type  1   force =     0.00000873   -0.00001512    0.00000029
     atom    2 type  1   force =    -0.00000873    0.00001512   -0.00000029
     atom    3 type  1   force =     0.00000873    0.00001512    0.00000029
     atom    4 type  1   force =    -0.00000873   -0.00001512   -0.00000029
     atom    5 type  1   force =    -0.00001746    0.00000000    0.00000029
     atom    6 type  1   force =     0.00001746   -0.00000000   -0.00000029
     atom    7 type  2   force =     0.00000000   -0.00000000   -0.00000000
     atom    8 type  2   force =    -0.00000000    0.00000000   -0.00000000

     Total force =     0.519879     Total SCF correction =     0.000043


     Computing stress (Cartesian axis) and pressure

          total   stress  (Ry/bohr**3)                   (kbar)     P=      495.70
   0.00349638   0.00000000   0.00000000          514.34        0.00        0.00
   0.00000000   0.00349638   0.00000000            0.00      514.34        0.00
   0.00000000   0.00000000   0.00311637            0.00        0.00      458.43

     Energy error            =      6.5E-01 Ry
     Gradient error          =      1.6E-01 Ry/Bohr
     Cell gradient error     =      4.2E+01 kbar

     number of scf cycles    =   3
     number of bfgs steps    =   2

     enthalpy           old  =     -76.2020716198 Ry
     enthalpy           new  =     -76.8547958784 Ry

     CASE: enthalpy          _new < enthalpy          _old

     new trust radius        =       0.2250785047 bohr
ibrav =      4
 celldm(1) =     11.12309586
 celldm(3) =      0.47542266
Input lattice vectors:
     0.79068580     0.00000000     0.00000000
    -0.39534290     0.68475399     0.00000000
    -0.00000000     0.00000000     0.37590995
New lattice vectors in INITIAL alat:
     0.79068580     0.00000000     0.00000000
    -0.39534290     0.68475399     0.00000000
     0.00000000     0.00000000     0.37590995
New lattice vectors in NEW alat (for information only):
     1.00000000     0.00000000     0.00000000
    -0.50000000     0.86602540     0.00000000
     0.00000000     0.00000000     0.47542266
Discrepancy in bohr =     0.000000    0.000000    0.000000
     new conv_thr            =       0.0000000100 Ry

     new unit-cell volume =    566.61433 a.u.^3 (    83.96358 Ang^3 )
     density =      3.60721 g/cm^3

CELL_PARAMETERS (alat= 14.06765600)
   0.790685801   0.000000000   0.000000000
  -0.395342901   0.684753990   0.000000000
   0.000000000   0.000000000   0.375909949

ATOMIC_POSITIONS (crystal)
Si           -0.0000000000        0.3004166170        0.8036581696
Si            0.0000000000        0.6995833830        0.1963418304
Si            0.6995833830        0.6995833830        0.8036581696
Si            0.3004166170        0.3004166170        0.1963418304
Si            0.3004166170        0.0000000000        0.8036581696
Si            0.6995833830        0.0000000000        0.1963418304
Li            0.3333333300        0.6666666700        0.5000000000
Li            0.6666666700        0.3333333300        0.5000000000



     Writing config-only to output data dir ./output/SiLi.save/
     NEW-OLD atomic charge density approx. for the potential
     extrapolated charge   26.25619, renormalised to   30.00000

     total cpu time spent up to now is       87.6 secs

     Self-consistent Calculation

     iteration #  1     ecut=    80.00 Ry     beta= 0.70
     Davidson diagonalization with overlap
     c_bands:  1 eigenvalues not converged
     ethr =  1.00E-06,  avg # of iterations = 14.6

     total cpu time spent up to now is       93.0 secs

     total energy              =     -78.91346658 Ry
     estimated scf accuracy    <       0.01888981 Ry

     iteration #  2     ecut=    80.00 Ry     beta= 0.70
     Davidson diagonalization with overlap
     ethr =  6.30E-05,  avg # of iterations =  2.9

     total cpu time spent up to now is       94.8 secs

     total energy              =     -78.93971798 Ry
     estimated scf accuracy    <       0.01386007 Ry

     iteration #  3     ecut=    80.00 Ry     beta= 0.70
     Davidson diagonalization with overlap
     ethr =  4.62E-05,  avg # of iterations =  2.0

     total cpu time spent up to now is       96.2 secs

     total energy              =     -78.94092823 Ry
     estimated scf accuracy    <       0.00227608 Ry

     iteration #  4     ecut=    80.00 Ry     beta= 0.70
     Davidson diagonalization with overlap
     ethr =  7.59E-06,  avg # of iterations =  2.8

     total cpu time spent up to now is       97.7 secs

     total energy              =     -78.94090894 Ry
     estimated scf accuracy    <       0.00074399 Ry

     iteration #  5     ecut=    80.00 Ry     beta= 0.70
     Davidson diagonalization with overlap
     ethr =  2.48E-06,  avg # of iterations =  2.9

     total cpu time spent up to now is       99.2 secs

     total energy              =     -78.94102121 Ry
     estimated scf accuracy    <       0.00001175 Ry

     iteration #  6     ecut=    80.00 Ry     beta= 0.70
     Davidson diagonalization with overlap
     ethr =  3.92E-08,  avg # of iterations =  4.8

     total cpu time spent up to now is      101.2 secs

     total energy              =     -78.94102901 Ry
     estimated scf accuracy    <       0.00001194 Ry

     iteration #  7     ecut=    80.00 Ry     beta= 0.70
     Davidson diagonalization with overlap
     ethr =  3.92E-08,  avg # of iterations =  2.0

     total cpu time spent up to now is      102.5 secs

     total energy              =     -78.94102977 Ry
     estimated scf accuracy    <       0.00000102 Ry

     iteration #  8     ecut=    80.00 Ry     beta= 0.70
     Davidson diagonalization with overlap
     ethr =  3.41E-09,  avg # of iterations =  3.6

     total cpu time spent up to now is      104.1 secs

     total energy              =     -78.94103018 Ry
     estimated scf accuracy    <       0.00000009 Ry

     iteration #  9     ecut=    80.00 Ry     beta= 0.70
     Davidson diagonalization with overlap
     ethr =  2.86E-10,  avg # of iterations =  2.8

     total cpu time spent up to now is      105.6 secs

     total energy              =     -78.94103017 Ry
     estimated scf accuracy    <       0.00000003 Ry

     iteration # 10     ecut=    80.00 Ry     beta= 0.70
     Davidson diagonalization with overlap
     ethr =  9.27E-11,  avg # of iterations =  2.2

     total cpu time spent up to now is      106.9 secs

     End of self-consistent calculation

          k = 0.0000 0.0000 0.0000 ( 14029 PWs)   bands (ev):

   -33.8397 -33.8337  -3.0390   0.7040   0.7040   2.0925   2.0925   4.4865
     5.9863  10.8337  10.8337  12.8365  12.8365  13.3785  13.4010  15.6844
    16.3848  16.3848  17.5103

          k = 0.0000 0.0000 0.3325 ( 13981 PWs)   bands (ev):

   -33.8365 -33.8307  -2.7650   0.9824   0.9824   2.3731   2.3731   4.7235
     6.1728  10.2225  11.0572  11.0572  12.9563  12.9563  14.0018  14.0018
    14.1258  15.4230  15.4230

          k = 0.0000 0.0000 0.6651 ( 13975 PWs)   bands (ev):

   -33.8289 -33.8235  -1.9508   1.8107   1.8107   3.2099   3.2099   5.4147
     6.7089   6.9050  10.4197  10.4197  11.7092  11.7092  12.2494  12.2494
    13.8306  14.0961  14.0961

          k = 0.0000 0.0000 0.9976 ( 13988 PWs)   bands (ev):

   -33.8213 -33.8162  -0.6389   3.1579   3.1579   4.0310   4.5762   4.5762
     6.5051   7.4682   7.6887   7.6887   9.0643   9.0643  11.4963  12.9686
    13.1123  13.1123  15.3364

          k = 0.0000 0.0000-1.3301 ( 14024 PWs)   bands (ev):

   -33.8182 -33.8132   0.6010   2.2758   4.5635   4.5635   5.5256   5.5256
     6.5089   6.5089   6.8841   6.8841   7.3054   7.9347  10.2026  12.0321
    14.1290  14.1290  15.9219

          k = 0.0000 0.3651 0.0000 ( 14021 PWs)   bands (ev):

   -33.8389 -33.8345  -2.7971  -0.3066   0.2062   2.4069   3.2191   5.4499
     6.6443   8.4292   9.5031  13.1676  13.3161  13.7143  14.6987  15.2949
    15.6432  15.9164  16.3644

          k = 0.0000 0.3651 0.3325 ( 14037 PWs)   bands (ev):

   -33.8358 -33.8315  -2.5213  -0.0319   0.4872   2.6685   3.4946   5.6941
     6.8546   8.6627   9.7053  10.5998  12.8379  13.1237  13.5379  13.9058
    14.9357  15.6253  16.1067

          k = 0.0000 0.3651 0.6651 ( 14024 PWs)   bands (ev):

   -33.8282 -33.8242  -1.7014   0.7853   1.3244   3.4424   4.3128   6.4048
     7.1174   7.4511   9.3604   9.7063  10.1065  10.5762  12.1017  13.0327
    14.1443  14.7032  15.1472

          k = 0.0000 0.3651 0.9976 ( 13987 PWs)   bands (ev):

   -33.8207 -33.8168  -0.3773   2.1091   2.6929   4.2694   4.6704   5.5731
     6.6735   7.2030   7.6643   8.2896   9.5940  10.0647  10.8140  11.7781
    12.5926  13.3739  15.1130

          k = 0.0000 0.3651-1.3301 ( 14014 PWs)   bands (ev):

   -33.8175 -33.8138   0.8962   2.4746   3.4567   4.1895   4.7257   5.0345
     5.9660   7.3529   7.5059   7.9682   8.5258   9.4857  10.8653  12.2201
    12.3169  12.9785  13.3679

          k = 0.0000-0.7302 0.0000 ( 14046 PWs)   bands (ev):

   -33.8377 -33.8357  -2.3891  -1.1717  -0.0814   2.4450   4.8943   6.1664
     7.0494   7.5489   7.9513  11.8265  13.8483  13.8790  14.6017  14.7735
    14.9735  15.9443  16.3306

          k = 0.0000-0.7302 0.3325 ( 14026 PWs)   bands (ev):

   -33.8346 -33.8327  -2.1081  -0.9037   0.2006   2.6943   5.1598   6.4336
     7.3034   7.7733   8.1940  11.0553  11.9321  11.9328  13.0526  14.3510
    14.7811  15.4253  15.8347

          k = 0.0000-0.7302 0.6651 ( 13998 PWs)   bands (ev):

   -33.8271 -33.8253  -1.2713  -0.1076   1.0413   3.4290   5.9314   7.0746
     7.6013   8.1821   8.3635   8.9189   8.9839   9.8431  11.5247  13.3867
    14.5155  15.1369  15.4532

          k = 0.0000-0.7302 0.9976 ( 14004 PWs)   bands (ev):

   -33.8196 -33.8179   0.0892   1.1726   2.4174   4.5589   4.6896   5.6677
     6.9016   7.3989   8.6731   9.1693   9.5203   9.5873  10.1016  11.8393
    12.9891  13.9674  14.2124

          k = 0.0000-0.7302-1.3301 ( 13996 PWs)   bands (ev):

   -33.8165 -33.8148   1.4730   2.3740   2.7894   3.9455   4.0239   4.7545
     5.6657   7.7907   8.7886   9.4710  10.1880  10.5073  10.6941  11.1870
    11.5277  12.1440  12.5231

          k = 0.3162 0.5476 0.0000 ( 14034 PWs)   bands (ev):

   -33.8377 -33.8357  -2.4155  -0.8718  -0.5197   3.4483   3.6985   5.8833
     7.3951   7.5650   8.9073  11.1644  13.1604  13.2771  14.0925  15.4013
    15.5681  16.0564  16.4642

          k = 0.3162 0.5476 0.3325 ( 14037 PWs)   bands (ev):

   -33.8346 -33.8327  -2.1352  -0.5999  -0.2460   3.7013   3.9586   6.1351
     7.6387   7.8098   9.1466  11.0422  11.4492  12.3576  12.8073  13.1814
    13.6469  16.3183  16.5735

          k = 0.3162 0.5476 0.6651 ( 14029 PWs)   bands (ev):

   -33.8271 -33.8253  -1.3012   0.2089   0.5704   4.4359   4.7217   6.7169
     7.8781   8.3695   8.4941   9.0979   9.3083  10.1397  12.1549  12.3604
    13.3400  14.3810  14.7846

          k = 0.3162 0.5476 0.9976 ( 14021 PWs)   bands (ev):

   -33.8196 -33.8179   0.0525   1.5174   1.8966   4.6348   5.4046   5.5158
     6.7415   6.7729   8.4147   9.2692   9.5254  10.2154  10.8304  11.4376
    12.7878  13.3484  14.0747

          k = 0.3162 0.5476-1.3301 ( 14012 PWs)   bands (ev):

   -33.8165 -33.8148   1.4084   2.7738   2.8027   3.2349   4.2453   4.5000
     6.7885   7.4415   8.6298   8.6616   9.8154  10.3583  11.0042  11.1480
    12.5277  12.5831  12.7174

          k =-0.3162-0.5476 0.3325 ( 14037 PWs)   bands (ev):

   -33.8346 -33.8327  -2.1356  -0.5999  -0.2441   3.6994   3.9678   6.1572
     7.6401   7.8057   9.1663  10.6492  11.7058  12.1276  12.2249  13.9466
    14.2586  16.3042  16.7512

          k =-0.3162-0.5476 0.6651 ( 14029 PWs)   bands (ev):

   -33.8271 -33.8253  -1.3024   0.2080   0.5737   4.4457   4.7629   6.9503
     7.5254   8.3554   8.4093   8.9562   9.3267   9.9825  12.3296  13.0108
    13.4910  14.4355  14.8539

          k =-0.3162-0.5476 0.9976 ( 14021 PWs)   bands (ev):

   -33.8196 -33.8179   0.0500   1.5124   1.8981   4.6671   5.6215   6.0231
     6.0659   6.3746   8.3170   9.5680   9.6869  10.4141  10.6187  11.3470
    12.7841  13.7224  14.0131

     the Fermi energy is    12.7713 ev

!    total energy              =     -78.94103018 Ry
     estimated scf accuracy    <          4.9E-11 Ry
     smearing contrib. (-TS)   =      -0.00054985 Ry
     internal energy E=F+TS    =     -78.94048033 Ry

     The total energy is F=E-TS. E is the sum of the following terms:
     one-electron contribution =      19.36827392 Ry
     hartree contribution      =       6.45168132 Ry
     xc contribution           =     -27.01920150 Ry
     ewald contribution        =     -77.74123407 Ry

     convergence has been achieved in  10 iterations

     Forces acting on atoms (cartesian axes, Ry/au):

     atom    1 type  1   force =    -0.05380377    0.09319086   -0.09410709
     atom    2 type  1   force =     0.05380377   -0.09319086    0.09410709
     atom    3 type  1   force =    -0.05380377   -0.09319086   -0.09410709
     atom    4 type  1   force =     0.05380377    0.09319086    0.09410709
     atom    5 type  1   force =     0.10760754    0.00000000   -0.09410709
     atom    6 type  1   force =    -0.10760754    0.00000000    0.09410709
     atom    7 type  2   force =    -0.00000000   -0.00000000    0.00000000
     atom    8 type  2   force =     0.00000000    0.00000000    0.00000000
     The non-local contrib.  to forces
     atom    1 type  1   force =    -0.05126822    0.08879917   -0.09857507
     atom    2 type  1   force =     0.05126822   -0.08879917    0.09857507
     atom    3 type  1   force =    -0.05126822   -0.08879917   -0.09857507
     atom    4 type  1   force =     0.05126822    0.08879917    0.09857507
     atom    5 type  1   force =     0.10253645    0.00000000   -0.09857507
     atom    6 type  1   force =    -0.10253645    0.00000000    0.09857507
     atom    7 type  2   force =     0.00000000    0.00000000    0.00000000
     atom    8 type  2   force =     0.00000000    0.00000000    0.00000000
     The ionic contribution  to forces
     atom    1 type  1   force =    -0.09956518    0.17245208   -0.22516199
     atom    2 type  1   force =     0.09956518   -0.17245208    0.22516199
     atom    3 type  1   force =    -0.09956529   -0.17245214   -0.22516202
     atom    4 type  1   force =     0.09956529    0.17245214    0.22516202
     atom    5 type  1   force =     0.19913047    0.00000006   -0.22516199
     atom    6 type  1   force =    -0.19913047   -0.00000006    0.22516199
     atom    7 type  2   force =     0.00000010   -0.00000006   -0.00000000
     atom    8 type  2   force =    -0.00000010    0.00000006   -0.00000000
     The local contribution  to forces
     atom    1 type  1   force =     0.09249361   -0.16020363    0.22109554
     atom    2 type  1   force =    -0.09249361    0.16020363   -0.22109554
     atom    3 type  1   force =     0.09249361    0.16020363    0.22109554
     atom    4 type  1   force =    -0.09249361   -0.16020363   -0.22109554
     atom    5 type  1   force =    -0.18498722    0.00000000    0.22109554
     atom    6 type  1   force =     0.18498722   -0.00000000   -0.22109554
     atom    7 type  2   force =     0.00000106   -0.00000061    0.00000000
     atom    8 type  2   force =    -0.00000106    0.00000061    0.00000000
     The core correction contribution to forces
     atom    1 type  1   force =     0.00453430   -0.00785364    0.00853430
     atom    2 type  1   force =    -0.00453430    0.00785364   -0.00853430
     atom    3 type  1   force =     0.00453430    0.00785364    0.00853430
     atom    4 type  1   force =    -0.00453430   -0.00785364   -0.00853430
     atom    5 type  1   force =    -0.00906861   -0.00000000    0.00853430
     atom    6 type  1   force =     0.00906861   -0.00000000   -0.00853430
     atom    7 type  2   force =     0.00000000    0.00000000    0.00000000
     atom    8 type  2   force =     0.00000000    0.00000000    0.00000000
     The Hubbard contrib.    to forces
     atom    1 type  1   force =     0.00000000    0.00000000    0.00000000
     atom    2 type  1   force =     0.00000000    0.00000000    0.00000000
     atom    3 type  1   force =     0.00000000    0.00000000    0.00000000
     atom    4 type  1   force =     0.00000000    0.00000000    0.00000000
     atom    5 type  1   force =     0.00000000    0.00000000    0.00000000
     atom    6 type  1   force =     0.00000000    0.00000000    0.00000000
     atom    7 type  2   force =     0.00000000    0.00000000    0.00000000
     atom    8 type  2   force =     0.00000000    0.00000000    0.00000000
     The SCF correction term to forces
     atom    1 type  1   force =     0.00000179   -0.00000311    0.00000015
     atom    2 type  1   force =    -0.00000179    0.00000311   -0.00000015
     atom    3 type  1   force =     0.00000179    0.00000311    0.00000015
     atom    4 type  1   force =    -0.00000179   -0.00000311   -0.00000015
     atom    5 type  1   force =    -0.00000359   -0.00000000    0.00000015
     atom    6 type  1   force =     0.00000359    0.00000000   -0.00000015
     atom    7 type  2   force =    -0.00000000    0.00000000    0.00000000
     atom    8 type  2   force =     0.00000000   -0.00000000    0.00000000

     Total force =     0.350162     Total SCF correction =     0.000009


     Computing stress (Cartesian axis) and pressure

          total   stress  (Ry/bohr**3)                   (kbar)     P=      642.96
   0.00463012  -0.00000000   0.00000000          681.11       -0.00        0.00
  -0.00000000   0.00463012  -0.00000000           -0.00      681.11       -0.00
   0.00000000   0.00000000   0.00385200            0.00        0.00      566.65

     Energy error            =      1.6E-01 Ry
     Gradient error          =      1.1E-01 Ry/Bohr
     Cell gradient error     =      1.8E+02 kbar

     number of scf cycles    =   4
     number of bfgs steps    =   3

     enthalpy           old  =     -76.8547958784 Ry
     enthalpy           new  =     -77.0151472247 Ry

     CASE: enthalpy          _new < enthalpy          _old

     new trust radius        =       0.1822384922 bohr
ibrav =      4
 celldm(1) =     11.20295228
 celldm(3) =      0.46321410
Input lattice vectors:
     0.79636240    -0.00000000     0.00000000
    -0.39818120     0.68967007    -0.00000000
     0.00000000    -0.00000000     0.36888629
New lattice vectors in INITIAL alat:
     0.79636240     0.00000000     0.00000000
    -0.39818120     0.68967007     0.00000000
     0.00000000     0.00000000     0.36888629
New lattice vectors in NEW alat (for information only):
     1.00000000     0.00000000     0.00000000
    -0.50000000     0.86602540     0.00000000
     0.00000000     0.00000000     0.46321410
Discrepancy in bohr =     0.000000    0.000000    0.000000
     new conv_thr            =       0.0000000100 Ry

     new unit-cell volume =    564.03994 a.u.^3 (    83.58210 Ang^3 )
     density =      3.62367 g/cm^3

CELL_PARAMETERS (alat= 14.06765600)
   0.796362399   0.000000000   0.000000000
  -0.398181199   0.689670068   0.000000000
   0.000000000   0.000000000   0.368886289

ATOMIC_POSITIONS (crystal)
Si           -0.0000000000        0.3128120136        0.7811231201
Si            0.0000000000        0.6871879864        0.2188768799
Si            0.6871879864        0.6871879864        0.7811231201
Si            0.3128120136        0.3128120136        0.2188768799
Si            0.3128120136        0.0000000000        0.7811231201
Si            0.6871879864        0.0000000000        0.2188768799
Li            0.3333333300        0.6666666700        0.5000000000
Li            0.6666666700        0.3333333300        0.5000000000



     Writing config-only to output data dir ./output/SiLi.save/
     NEW-OLD atomic charge density approx. for the potential
     extrapolated charge   29.86313, renormalised to   30.00000

     total cpu time spent up to now is      112.6 secs

     Self-consistent Calculation

     iteration #  1     ecut=    80.00 Ry     beta= 0.70
     Davidson diagonalization with overlap
     c_bands:  1 eigenvalues not converged
     c_bands:  1 eigenvalues not converged
     c_bands:  1 eigenvalues not converged
     c_bands:  1 eigenvalues not converged
     ethr =  1.00E-06,  avg # of iterations = 15.7

     total cpu time spent up to now is      117.5 secs

     total energy              =     -78.99895305 Ry
     estimated scf accuracy    <       0.04702676 Ry

     iteration #  2     ecut=    80.00 Ry     beta= 0.70
     Davidson diagonalization with overlap
     ethr =  1.57E-04,  avg # of iterations =  3.1

     total cpu time spent up to now is      119.1 secs

     total energy              =     -79.00625751 Ry
     estimated scf accuracy    <       0.09757460 Ry

     iteration #  3     ecut=    80.00 Ry     beta= 0.70
     Davidson diagonalization with overlap
     ethr =  1.57E-04,  avg # of iterations =  2.0

     total cpu time spent up to now is      120.5 secs

     total energy              =     -79.02264214 Ry
     estimated scf accuracy    <       0.00031001 Ry

     iteration #  4     ecut=    80.00 Ry     beta= 0.70
     Davidson diagonalization with overlap
     ethr =  1.03E-06,  avg # of iterations =  5.8

     total cpu time spent up to now is      122.5 secs

     total energy              =     -79.02297218 Ry
     estimated scf accuracy    <       0.00016800 Ry

     iteration #  5     ecut=    80.00 Ry     beta= 0.70
     Davidson diagonalization with overlap
     ethr =  5.60E-07,  avg # of iterations =  2.0

     total cpu time spent up to now is      123.8 secs

     total energy              =     -79.02301104 Ry
     estimated scf accuracy    <       0.00000365 Ry

     iteration #  6     ecut=    80.00 Ry     beta= 0.70
     Davidson diagonalization with overlap
     ethr =  1.22E-08,  avg # of iterations =  3.8

     total cpu time spent up to now is      125.3 secs

     total energy              =     -79.02301187 Ry
     estimated scf accuracy    <       0.00000036 Ry

     iteration #  7     ecut=    80.00 Ry     beta= 0.70
     Davidson diagonalization with overlap
     ethr =  1.20E-09,  avg # of iterations =  3.4

     total cpu time spent up to now is      126.8 secs

     total energy              =     -79.02301200 Ry
     estimated scf accuracy    <       0.00000003 Ry

     iteration #  8     ecut=    80.00 Ry     beta= 0.70
     Davidson diagonalization with overlap
     ethr =  9.77E-11,  avg # of iterations =  2.7

     total cpu time spent up to now is      128.1 secs

     End of self-consistent calculation

          k = 0.0000 0.0000 0.0000 ( 14029 PWs)   bands (ev):

   -33.8124 -33.8063  -2.7594   1.0070   1.0070   1.7065   1.7065   4.8270
     5.7813  10.5783  10.5783  12.8409  12.8409  13.3856  14.1954  16.5296
    17.2896  17.2896  17.6666

          k = 0.0000 0.0000 0.3389 ( 13981 PWs)   bands (ev):

   -33.8086 -33.8026  -2.4733   1.2992   1.2992   1.9998   1.9998   5.0808
     5.9848  10.8387  10.8387  10.8754  13.0729  13.0729  14.1074  14.6746
    14.6746  15.5337  15.5337

          k = 0.0000 0.0000 0.6777 ( 13975 PWs)   bands (ev):

   -33.7993 -33.7937  -1.6201   2.1709   2.1709   2.8754   2.8754   5.8153
     6.5778   7.4718  11.0760  11.0760  11.7194  11.7194  12.0702  12.0702
    14.0871  14.0871  14.2790

          k = 0.0000 0.0000 1.0166 ( 13988 PWs)   bands (ev):

   -33.7900 -33.7847  -0.2248   3.6028   3.6028   4.3142   4.3142   4.4126
     7.0988   7.4541   8.2111   8.2111   8.9650   8.9650  11.8037  12.5780
    13.0003  13.0003  15.4061

          k = 0.0000 0.0000-1.3554 ( 14024 PWs)   bands (ev):

   -33.7861 -33.7810   1.2557   2.4067   5.2924   5.2924   5.6560   5.6560
     6.4664   6.4664   6.6191   6.6191   8.0429   8.1507  10.2248  11.5034
    14.4121  14.4121  15.3680

          k = 0.0000 0.3625 0.0000 ( 14021 PWs)   bands (ev):

   -33.8116 -33.8070  -2.4926  -0.2025   0.3037   2.2458   3.0509   5.7359
     6.4192   8.2022   9.3676  13.3457  13.4150  14.1306  14.7301  15.7756
    15.9204  16.2345  16.9318

          k = 0.0000 0.3625 0.3389 ( 14037 PWs)   bands (ev):

   -33.8078 -33.8033  -2.2050   0.0867   0.5986   2.5223   3.3396   5.9952
     6.6462   8.4626   9.6145  11.2478  13.4421  13.5591  13.7395  14.0667
    14.7794  15.7179  16.3954

          k = 0.0000 0.3625 0.6777 ( 14024 PWs)   bands (ev):

   -33.7986 -33.7944  -1.3471   0.9494   1.4788   3.3439   4.1989   6.7424
     7.3010   7.6764   9.3664  10.0774  10.4339  10.6491  12.2621  13.2109
    14.3397  14.7466  15.0290

          k = 0.0000 0.3625 1.0166 ( 13987 PWs)   bands (ev):

   -33.7893 -33.7854   0.0576   2.3649   2.9296   4.5771   4.7939   5.5575
     6.9365   7.5399   8.1435   8.2823   9.6311  10.1817  10.7401  11.7659
    12.7831  13.0782  15.0963

          k = 0.0000 0.3625-1.3554 ( 14014 PWs)   bands (ev):

   -33.7855 -33.7817   1.5757   2.6269   4.0521   4.6686   4.7974   4.9977
     6.2203   7.2284   7.6485   7.7428   9.1604   9.7786  10.8842  11.6865
    12.5177  12.9234  13.3739

          k = 0.0000-0.7250 0.0000 ( 14046 PWs)   bands (ev):

   -33.8103 -33.8083  -1.9535  -1.2183  -0.0184   2.3422   4.9241   5.7796
     7.1548   7.3885   7.9926  11.6884  14.1714  14.4511  14.4985  15.0123
    15.1693  16.2793  16.6404

          k = 0.0000-0.7250 0.3389 ( 14026 PWs)   bands (ev):

   -33.8066 -33.8046  -1.6590  -0.9375   0.2772   2.6073   5.2046   6.0612
     7.4251   7.6386   8.2449  11.7224  12.0424  12.3025  13.6801  14.6715
    14.9006  14.9165  16.0526

          k = 0.0000-0.7250 0.6777 ( 13998 PWs)   bands (ev):

   -33.7974 -33.7955  -0.7798  -0.1005   1.1601   3.3933   6.0255   6.8594
[...]
         8           Li  tau(   8) = (   0.4243594   0.2450040   0.1610454  )

     number of k points=    23  Marzari-Vanderbilt smearing, width (Ry)=  0.0200
                       cart. coord. in units 2pi/alat
        k(    1) = (   0.0000000   0.0000000   0.0000000), wk =   0.0156250
        k(    2) = (   0.0000000   0.0000000   0.3880893), wk =   0.0312500
        k(    3) = (   0.0000000   0.0000000   0.7761785), wk =   0.0312500
        k(    4) = (   0.0000000   0.0000000   1.1642678), wk =   0.0312500
        k(    5) = (   0.0000000   0.0000000  -1.5523571), wk =   0.0156250
        k(    6) = (   0.0000000   0.3401305   0.0000000), wk =   0.0937500
        k(    7) = (   0.0000000   0.3401305   0.3880893), wk =   0.1875000
        k(    8) = (   0.0000000   0.3401305   0.7761785), wk =   0.1875000
        k(    9) = (   0.0000000   0.3401305   1.1642678), wk =   0.1875000
        k(   10) = (   0.0000000   0.3401305  -1.5523571), wk =   0.0937500
        k(   11) = (   0.0000000  -0.6802610   0.0000000), wk =   0.0468750
        k(   12) = (   0.0000000  -0.6802610   0.3880893), wk =   0.0937500
        k(   13) = (   0.0000000  -0.6802610   0.7761785), wk =   0.0937500
        k(   14) = (   0.0000000  -0.6802610   1.1642678), wk =   0.0937500
        k(   15) = (   0.0000000  -0.6802610  -1.5523571), wk =   0.0468750
        k(   16) = (   0.2945616   0.5101957   0.0000000), wk =   0.0937500
        k(   17) = (   0.2945616   0.5101957   0.3880893), wk =   0.0937500
        k(   18) = (   0.2945616   0.5101957   0.7761785), wk =   0.0937500
        k(   19) = (   0.2945616   0.5101957   1.1642678), wk =   0.0937500
        k(   20) = (   0.2945616   0.5101957  -1.5523571), wk =   0.0937500
        k(   21) = (  -0.2945616  -0.5101957   0.3880893), wk =   0.0937500
        k(   22) = (  -0.2945616  -0.5101957   0.7761785), wk =   0.0937500
        k(   23) = (  -0.2945616  -0.5101957   1.1642678), wk =   0.0937500

     Dense  grid:    54091 G-vectors     FFT dimensions: (  72,  72,  25)

     Estimated max dynamical RAM per process >      24.69 MB

     Estimated total dynamical RAM >     197.56 MB

     Initial potential from superposition of free atoms

     starting charge      29.9872, renormalised to      30.0000
     Starting wfcs are   28 randomized atomic wfcs

     total cpu time spent up to now is      396.1 secs

     Self-consistent Calculation

     iteration #  1     ecut=    80.00 Ry     beta= 0.70
     Davidson diagonalization with overlap
     c_bands:  1 eigenvalues not converged
     c_bands:  1 eigenvalues not converged
     c_bands:  1 eigenvalues not converged
     c_bands:  1 eigenvalues not converged
     c_bands:  4 eigenvalues not converged
     c_bands:  2 eigenvalues not converged
     c_bands:  2 eigenvalues not converged
     c_bands:  2 eigenvalues not converged
     c_bands:  1 eigenvalues not converged
     c_bands:  1 eigenvalues not converged
     c_bands:  1 eigenvalues not converged
     c_bands:  2 eigenvalues not converged
     c_bands:  1 eigenvalues not converged
     c_bands:  2 eigenvalues not converged
     c_bands:  2 eigenvalues not converged
     c_bands:  3 eigenvalues not converged
     ethr =  1.00E-06,  avg # of iterations = 19.1

     total cpu time spent up to now is      398.8 secs

     total energy              =     -78.94382550 Ry
     estimated scf accuracy    <       0.29120349 Ry

     iteration #  2     ecut=    80.00 Ry     beta= 0.70
     Davidson diagonalization with overlap
     ethr =  9.71E-04,  avg # of iterations =  2.7

     total cpu time spent up to now is      399.6 secs

     total energy              =     -78.95795000 Ry
     estimated scf accuracy    <       0.61729452 Ry

     iteration #  3     ecut=    80.00 Ry     beta= 0.70
     Davidson diagonalization with overlap
     ethr =  9.71E-04,  avg # of iterations =  2.1

     total cpu time spent up to now is      400.2 secs

     total energy              =     -79.07181787 Ry
     estimated scf accuracy    <       0.00166461 Ry

     iteration #  4     ecut=    80.00 Ry     beta= 0.70
     Davidson diagonalization with overlap
     c_bands:  1 eigenvalues not converged
     ethr =  5.55E-06,  avg # of iterations =  8.6

     total cpu time spent up to now is      401.3 secs

     total energy              =     -79.07326083 Ry
     estimated scf accuracy    <       0.00285034 Ry

     iteration #  5     ecut=    80.00 Ry     beta= 0.70
     Davidson diagonalization with overlap
     ethr =  5.55E-06,  avg # of iterations =  2.0

     total cpu time spent up to now is      402.0 secs

     total energy              =     -79.07361685 Ry
     estimated scf accuracy    <       0.00006665 Ry

     iteration #  6     ecut=    80.00 Ry     beta= 0.70
     Davidson diagonalization with overlap
     ethr =  2.22E-07,  avg # of iterations =  4.1

     total cpu time spent up to now is      402.8 secs

     total energy              =     -79.07364539 Ry
     estimated scf accuracy    <       0.00001086 Ry

     iteration #  7     ecut=    80.00 Ry     beta= 0.70
     Davidson diagonalization with overlap
     ethr =  3.62E-08,  avg # of iterations =  2.2

     total cpu time spent up to now is      403.4 secs

     total energy              =     -79.07364803 Ry
     estimated scf accuracy    <       0.00000003 Ry

     iteration #  8     ecut=    80.00 Ry     beta= 0.70
     Davidson diagonalization with overlap
     ethr =  8.41E-11,  avg # of iterations =  5.9

     total cpu time spent up to now is      404.5 secs

     total energy              =     -79.07364812 Ry
     estimated scf accuracy    <       0.00000002 Ry

     iteration #  9     ecut=    80.00 Ry     beta= 0.70
     Davidson diagonalization with overlap
     ethr =  8.22E-11,  avg # of iterations =  2.0

     total cpu time spent up to now is      405.1 secs

     total energy              =     -79.07364812 Ry
     estimated scf accuracy    <          1.5E-10 Ry

     iteration # 10     ecut=    80.00 Ry     beta= 0.70
     Davidson diagonalization with overlap
     ethr =  5.16E-13,  avg # of iterations =  4.9

     total cpu time spent up to now is      406.0 secs

     total energy              =     -79.07364812 Ry
     estimated scf accuracy    <          1.8E-10 Ry

     iteration # 11     ecut=    80.00 Ry     beta= 0.70
     Davidson diagonalization with overlap
     ethr =  5.16E-13,  avg # of iterations =  2.0

     total cpu time spent up to now is      406.6 secs

     End of self-consistent calculation

          k = 0.0000 0.0000 0.0000 (  6781 PWs)   bands (ev):

   -33.4872 -33.4837  -2.8846   0.3956   0.3956   0.6245   0.6245   4.6873
     4.9403   8.7441   8.7441  10.6320  11.5325  11.5325  15.5261  15.5261
    15.9706  15.9706  16.5018

          k = 0.0000 0.0000 0.3881 (  6757 PWs)   bands (ev):

   -33.4746 -33.4712  -2.5063   0.7793   0.7793   1.0093   1.0093   5.0352
     5.2408   9.1018   9.1018  10.8161  11.9103  11.9103  15.4670  15.6585
    15.6585  16.2301  16.2301

          k = 0.0000 0.0000 0.7762 (  6739 PWs)   bands (ev):

   -33.4440 -33.4411  -1.3787   1.9211   1.9211   2.1549   2.1549   6.0683
     6.1285   9.7722  10.1731  10.1731  12.9762  12.9762  13.1400  13.6179
    13.6179  14.1345  14.1345

          k = 0.0000 0.0000 1.1643 (  6727 PWs)   bands (ev):

   -33.4133 -33.4109   0.4731   3.7802   3.7802   4.0205   4.0205   6.2574
     7.5113   7.8408   9.8598   9.8598  10.1926  10.1926  11.9645  11.9645
    13.5368  13.6050  14.5579

          k = 0.0000 0.0000-1.5524 (  6732 PWs)   bands (ev):

   -33.4006 -33.3983   2.6593   3.4742   5.7938   5.7938   5.9122   5.9122
     7.3225   7.3225   7.4886   7.4886   8.5990   9.4826  11.3914  11.8497
    14.0132  14.0132  15.0257

          k = 0.0000 0.3401 0.0000 (  6779 PWs)   bands (ev):

   -33.4868 -33.4841  -2.6445  -0.7736  -0.3821   1.3631   1.9750   5.2961
     5.4471   6.5409   7.9148  11.4633  12.1345  12.4194  13.6561  13.8128
    14.7206  18.1549  18.4228

          k = 0.0000 0.3401 0.3881 (  6764 PWs)   bands (ev):

   -33.4742 -33.4717  -2.2651  -0.3909   0.0049   1.7344   2.3544   5.6327
     5.7857   6.8990   8.2716  11.7217  12.4726  12.6741  13.8197  14.0588
    14.9226  16.0299  17.5190

          k = 0.0000 0.3401 0.7762 (  6764 PWs)   bands (ev):

   -33.4437 -33.4415  -1.1343   0.7492   1.1575   2.8369   3.4804   6.6072
     6.8113   7.8941   9.3222  10.5014  12.4534  12.5513  13.2828  13.6991
    14.0063  14.8623  15.0251

          k = 0.0000 0.3401 1.1643 (  6753 PWs)   bands (ev):

   -33.4130 -33.4112   0.7224   2.6167   3.0445   4.6070   5.2686   6.4913
     7.9702   8.4565   8.9689   9.2334  10.0323  10.7302  11.1065  11.4543
    13.8958  14.2005  15.0068

          k = 0.0000 0.3401-1.5524 (  6720 PWs)   bands (ev):

   -33.4003 -33.3986   2.9362   3.6757   4.9868   5.2274   5.4320   5.5032
     7.2017   7.8416   8.1594   8.2729   9.8140  10.4757  11.8724  12.0093
    12.3956  12.5883  13.2983

          k = 0.0000-0.6803 0.0000 (  6786 PWs)   bands (ev):

   -33.4860 -33.4849  -2.0753  -1.7448  -0.6771   1.5617   3.7331   4.2894
     6.1718   6.2979   6.9523  10.3653  12.2162  12.5140  13.1706  13.6506
    17.3498  17.7503  20.0401

          k = 0.0000-0.6803 0.3881 (  6788 PWs)   bands (ev):

   -33.4735 -33.4724  -1.6887  -1.3705  -0.2892   1.9225   4.1042   4.6610
     6.5259   6.6620   7.2974  10.6447  12.4877  12.7687  13.4420  13.8210
    16.1646  16.3940  17.5315

          k = 0.0000-0.6803 0.7762 (  6764 PWs)   bands (ev):

   -33.4431 -33.4421  -0.5360  -0.2553   0.8664   2.9928   5.1973   5.7498
     7.5725   7.7439   8.3214  11.0429  11.2471  11.3990  13.2368  13.9706
    14.0433  14.5963  15.0831

          k = 0.0000-0.6803 1.1643 (  6724 PWs)   bands (ev):

   -33.4125 -33.4117   1.3588   1.5720   2.7604   4.7029   6.5607   6.7744
     7.9364   8.2570   8.8051   9.4463   9.6017  10.0625  10.5758  13.0250
    13.4721  13.8159  14.9415

          k = 0.0000-0.6803-1.5524 (  6740 PWs)   bands (ev):

   -33.3998 -33.3991   3.7140   3.7845   4.1138   4.5003   5.1963   5.2845
     7.0152   8.1203   9.7056   9.8280  10.3650  10.3889  11.3024  11.8512
    12.1739  12.2820  12.5565

          k = 0.2946 0.5102 0.0000 (  6777 PWs)   bands (ev):

   -33.4860 -33.4849  -2.1875  -1.3016  -1.1478   2.4872   2.5172   4.5069
     6.1210   6.5189   7.3322  10.4655  11.1398  11.4202  14.6692  15.7709
    16.5413  16.5714  19.3524

          k = 0.2946 0.5102 0.3881 (  6781 PWs)   bands (ev):

   -33.4735 -33.4724  -1.8046  -0.9182  -0.7680   2.8485   2.8862   4.8684
     6.4741   6.8788   7.6975  10.8383  11.4525  11.6759  14.9820  15.0414
    16.1544  16.2502  17.4771

          k = 0.2946 0.5102 0.7762 (  6771 PWs)   bands (ev):

   -33.4431 -33.4421  -0.6643   0.2242   0.3640   3.9144   3.9813   5.9233
     7.5261   7.9470   8.7902  11.1295  11.8339  12.0869  12.1541  12.4295
    12.5389  15.8328  15.8505

          k = 0.2946 0.5102 1.1643 (  6747 PWs)   bands (ev):

   -33.4125 -33.4117   1.2072   2.1028   2.2214   5.5069   5.6238   6.6285
     8.4180   8.5286   8.5324   9.2725   9.6879  10.6033  11.2341  11.6870
    13.1002  14.0823  14.3354

          k = 0.2946 0.5102-1.5524 (  6730 PWs)   bands (ev):

   -33.3998 -33.3991   3.4801   4.0454   4.4918   4.5221   4.8090   4.9392
     8.0231   8.4200   8.8103   8.8609  10.3564  10.6548  11.4776  11.8690
    12.2940  12.8640  12.8842

          k =-0.2946-0.5102 0.3881 (  6781 PWs)   bands (ev):

   -33.4735 -33.4724  -1.8050  -0.9194  -0.7680   2.8520   2.8936   4.8792
     6.4716   6.8780   7.6952  10.7741  11.3095  11.6038  15.0198  15.5870
    16.5928  16.7532  16.8292

          k =-0.2946-0.5102 0.7762 (  6771 PWs)   bands (ev):

   -33.4431 -33.4421  -0.6654   0.2205   0.3628   3.9341   4.0076   5.9724
     7.5099   7.9463   8.7798  10.4462  11.2176  11.2507  12.8917  13.7587
    13.9022  15.6405  15.7859

          k =-0.2946-0.5102 1.1643 (  6747 PWs)   bands (ev):

   -33.4125 -33.4117   1.2035   2.0902   2.2120   5.6687   5.7831   6.8502
     7.9300   8.0081   8.1062   9.4597   9.7994  10.6259  11.7842  11.9142
    13.8030  14.1128  14.2634

     the Fermi energy is    12.7602 ev

!    total energy              =     -79.07364812 Ry
     estimated scf accuracy    <          8.8E-12 Ry
     smearing contrib. (-TS)   =       0.00146143 Ry
     internal energy E=F+TS    =     -79.07510955 Ry

     The total energy is F=E-TS. E is the sum of the following terms:
     one-electron contribution =      18.08435341 Ry
     hartree contribution      =       7.31219236 Ry
     xc contribution           =     -27.03382424 Ry
     ewald contribution        =     -77.43783107 Ry

     convergence has been achieved in  11 iterations

     Forces acting on atoms (cartesian axes, Ry/au):

     atom    1 type  1   force =     0.00000723   -0.00001253   -0.00015101
     atom    2 type  1   force =    -0.00000723    0.00001253    0.00015101
     atom    3 type  1   force =     0.00000723    0.00001253   -0.00015101
     atom    4 type  1   force =    -0.00000723   -0.00001253    0.00015101
     atom    5 type  1   force =    -0.00001447   -0.00000000   -0.00015101
     atom    6 type  1   force =     0.00001447   -0.00000000    0.00015101
     atom    7 type  2   force =     0.00000000    0.00000000    0.00000000
     atom    8 type  2   force =    -0.00000000   -0.00000000    0.00000000
     The non-local contrib.  to forces
     atom    1 type  1   force =    -0.00137117    0.00237493   -0.01840283
     atom    2 type  1   force =     0.00137117   -0.00237493    0.01840283
     atom    3 type  1   force =    -0.00137117   -0.00237493   -0.01840283
     atom    4 type  1   force =     0.00137117    0.00237493    0.01840283
     atom    5 type  1   force =     0.00274234    0.00000000   -0.01840283
     atom    6 type  1   force =    -0.00274234    0.00000000    0.01840283
     atom    7 type  2   force =    -0.00000000    0.00000000    0.00000000
     atom    8 type  2   force =     0.00000000   -0.00000000    0.00000000
     The ionic contribution  to forces
     atom    1 type  1   force =     0.49723881   -0.86124275   -0.02155265
     atom    2 type  1   force =    -0.49723881    0.86124275    0.02155265
     atom    3 type  1   force =     0.49723869    0.86124268   -0.02155266
     atom    4 type  1   force =    -0.49723869   -0.86124268    0.02155266
     atom    5 type  1   force =    -0.99447750    0.00000007   -0.02155265
     atom    6 type  1   force =     0.99447750   -0.00000007    0.02155265
     atom    7 type  2   force =     0.00000012   -0.00000007   -0.00000000
     atom    8 type  2   force =    -0.00000012    0.00000007   -0.00000000
     The local contribution  to forces
     atom    1 type  1   force =    -0.49623930    0.85951167    0.03756739
     atom    2 type  1   force =     0.49623930   -0.85951167   -0.03756739
     atom    3 type  1   force =    -0.49623930   -0.85951167    0.03756739
     atom    4 type  1   force =     0.49623930    0.85951167   -0.03756739
     atom    5 type  1   force =     0.99247859    0.00000000    0.03756739
     atom    6 type  1   force =    -0.99247859   -0.00000000   -0.03756739
     atom    7 type  2   force =     0.00000114   -0.00000066    0.00000000
     atom    8 type  2   force =    -0.00000114    0.00000066    0.00000000
     The core correction contribution to forces
     atom    1 type  1   force =     0.00038028   -0.00065867    0.00223709
     atom    2 type  1   force =    -0.00038028    0.00065867   -0.00223709
     atom    3 type  1   force =     0.00038028    0.00065867    0.00223709
     atom    4 type  1   force =    -0.00038028   -0.00065867   -0.00223709
     atom    5 type  1   force =    -0.00076057   -0.00000000    0.00223709
     atom    6 type  1   force =     0.00076057    0.00000000   -0.00223709
     atom    7 type  2   force =     0.00000000    0.00000000    0.00000000
     atom    8 type  2   force =     0.00000000    0.00000000    0.00000000
     The Hubbard contrib.    to forces
     atom    1 type  1   force =     0.00000000    0.00000000    0.00000000
     atom    2 type  1   force =     0.00000000    0.00000000    0.00000000
     atom    3 type  1   force =     0.00000000    0.00000000    0.00000000
     atom    4 type  1   force =     0.00000000    0.00000000    0.00000000
     atom    5 type  1   force =     0.00000000    0.00000000    0.00000000
     atom    6 type  1   force =     0.00000000    0.00000000    0.00000000
     atom    7 type  2   force =     0.00000000    0.00000000    0.00000000
     atom    8 type  2   force =     0.00000000    0.00000000    0.00000000
     The SCF correction term to forces
     atom    1 type  1   force =    -0.00000132    0.00000228   -0.00000001
     atom    2 type  1   force =     0.00000132   -0.00000228    0.00000001
     atom    3 type  1   force =    -0.00000132   -0.00000228   -0.00000001
     atom    4 type  1   force =     0.00000132    0.00000228    0.00000001
     atom    5 type  1   force =     0.00000263    0.00000000   -0.00000001
     atom    6 type  1   force =    -0.00000263   -0.00000000    0.00000001
     atom    7 type  2   force =     0.00000000   -0.00000000    0.00000000
     atom    8 type  2   force =    -0.00000000    0.00000000    0.00000000

     Total force =     0.000372     Total SCF correction =     0.000006


     Computing stress (Cartesian axis) and pressure

          total   stress  (Ry/bohr**3)                   (kbar)     P=      500.55
   0.00340480  -0.00000000   0.00000000          500.86       -0.00        0.00
   0.00000000   0.00340480  -0.00000000            0.00      500.86       -0.00
   0.00000000  -0.00000000   0.00339838            0.00       -0.00      499.92


     Writing all to output data dir ./output/SiLi.save/

     init_run     :      2.71s CPU      3.51s WALL (       2 calls)
     electrons    :    272.34s CPU    296.79s WALL (      20 calls)
     update_pot   :     19.58s CPU     19.77s WALL (      18 calls)
     forces       :     14.35s CPU     14.60s WALL (      20 calls)
     stress       :     70.74s CPU     73.44s WALL (      20 calls)

     Called by init_run:
     wfcinit      :      1.05s CPU      1.20s WALL (       2 calls)
     potinit      :      0.75s CPU      1.07s WALL (       2 calls)
     hinit0       :      0.74s CPU      0.96s WALL (       2 calls)

     Called by electrons:
     c_bands      :    242.67s CPU    263.07s WALL (     168 calls)
     sum_band     :     26.25s CPU     29.05s WALL (     168 calls)
     v_of_rho     :      3.33s CPU      4.24s WALL (     186 calls)
     mix_rho      :      0.29s CPU      0.37s WALL (     168 calls)

     Called by c_bands:
     init_us_2    :      4.99s CPU      5.41s WALL (    8694 calls)
     init_us_2:cp :      4.97s CPU      5.41s WALL (    8694 calls)
     cegterg      :    225.28s CPU    244.38s WALL (    3864 calls)

     Called by *egterg:
     cdiaghg      :      7.57s CPU      7.83s WALL (   19624 calls)
     h_psi        :    193.23s CPU    211.76s WALL (   20130 calls)
     g_psi        :      0.97s CPU      0.99s WALL (   16220 calls)

     Called by h_psi:
     h_psi:calbec :     19.40s CPU     20.35s WALL (   20130 calls)
     vloc_psi     :    155.16s CPU    172.40s WALL (   20130 calls)
     add_vuspsi   :     18.14s CPU     18.46s WALL (   20130 calls)

     General routines
     calbec       :     22.96s CPU     23.96s WALL (   22430 calls)
     fft          :      2.15s CPU      3.44s WALL (    2360 calls)
     ffts         :      0.11s CPU      0.18s WALL (     168 calls)
     fftw         :    160.57s CPU    178.35s WALL (  564032 calls)

     Parallel routines

     PWSCF        :   6m20.14s CPU   6m49.02s WALL


   This run was terminated on:  17:36:29  29Dec2024            

=------------------------------------------------------------------------------=
   JOB DONE.
=------------------------------------------------------------------------------=
