
     Program PWSCF v.7.2 starts on 29Dec2024 at 10:52: 7 

     This program is part of the open-source Quantum ESPRESSO suite
     for quantum simulation of materials; please cite
         "P. Giannozzi et al., J. Phys.:Condens. Matter 21 395502 (2009);
         "P. Giannozzi et al., J. Phys.:Condens. Matter 29 465901 (2017);
         "P. Giannozzi et al., J. Chem. Phys. 152 154105 (2020);
          URL http://www.quantum-espresso.org", 
     in publications or presentations arising from this work. More details at
     http://www.quantum-espresso.org/quote

     Parallel version (MPI & OpenMP), running on       8 processor cores
     Number of MPI processes:                 8
     Threads/MPI process:                     1

     MPI processes distributed on     1 nodes
     482424 MiB available memory on the printing compute node when the environment starts

     Waiting for input...
     Reading input from standard input

     Current dimensions of program PWSCF are:
     Max number of different atomic species (ntypx) = 10
     Max number of k-points (npk) =  40000
     Max angular momentum in pseudopotentials (lmaxx) =  4

     R & G space division:  proc/nbgrp/npool/nimage =       8
     Subspace diagonalization in iterative solution of the eigenvalue problem:
     a serial algorithm will be used


     Parallelization info
     --------------------
     sticks:   dense  smooth     PW     G-vecs:    dense   smooth      PW
     Min         155     155     46                 3339     3339     558
     Max         156     156     47                 3341     3341     560
     Sum        1243    1243    373                26721    26721    4473

     Using Slab Decomposition



     bravais-lattice index     =            5
     lattice parameter (alat)  =       7.8939  a.u.
     unit-cell volume          =     275.2363 (a.u.)^3
     number of atoms/cell      =            4
     number of atomic types    =            2
     number of electrons       =        15.00
     number of Kohn-Sham states=           12
     kinetic-energy cutoff     =      80.0000  Ry
     charge density cutoff     =     320.0000  Ry
     scf convergence threshold =      1.0E-08
     mixing beta               =       0.7000
     number of iterations used =            8  plain     mixing
     energy convergence thresh.=      1.0E-04
     force convergence thresh. =      1.0E-03
     press convergence thresh. =      1.0E+00
     Exchange-correlation= PBE
                           (   1   4   3   4   0   0   0)
     nstep                     =           50


     celldm(1)=   7.893932  celldm(2)=   0.000000  celldm(3)=   0.000000
     celldm(4)=   0.627370  celldm(5)=   0.000000  celldm(6)=   0.000000

     crystal axes: (cart. coord. in units of alat)
               a(1) = (   0.431642  -0.249209   0.866937 )  
               a(2) = (   0.000000   0.498417   0.866937 )  
               a(3) = (  -0.431642  -0.249209   0.866937 )  

     reciprocal axes: (cart. coord. in units 2 pi/alat)
               b(1) = (  1.158367 -0.668784  0.384495 )  
               b(2) = (  0.000000  1.337568  0.384495 )  
               b(3) = ( -1.158367 -0.668784  0.384495 )  


     PseudoPot. # 1 for Si read from file:
     ../pseudo/Si_ONCV_PBE_sr.upf
     MD5 check sum: e543d271109d17c80368dfa7c482276d
     Pseudo is Norm-conserving + core correction, Zval =  4.0
     Generated using ONCVPSP code by D. R. Hamann
     Using radial grid of 1510 points,  6 beta functions with: 
                l(1) =   0
                l(2) =   0
                l(3) =   1
                l(4) =   1
                l(5) =   2
                l(6) =   2

     PseudoPot. # 2 for Li read from file:
     ../pseudo/Li_ONCV_PBE_sr.upf
     MD5 check sum: 50ff420e78310ffa21704f3361e624a4
     Pseudo is Norm-conserving, Zval =  3.0
     Generated using ONCVPSP code by D. R. Hamann
     Using radial grid of 1944 points,  4 beta functions with: 
                l(1) =   0
                l(2) =   0
                l(3) =   1
                l(4) =   1

     atomic species   valence    mass     pseudopotential
        Si             4.00    28.08550     Si( 1.00)
        Li             3.00     6.94100     Li( 1.00)

      6 Sym. Ops. (no inversion) found



   Cartesian axes

     site n.     atom                  positions (alat units)
         1           Si  tau(   1) = (  -0.0000000  -0.0000000   0.2752517  )
         2           Si  tau(   2) = (  -0.0000000  -0.0000000   0.8585350  )
         3           Si  tau(   3) = (  -0.0000000  -0.0000000   2.3292247  )
         4           Li  tau(   4) = (   0.0000000  -0.0000000   1.8002261  )

     number of k points=    44  Marzari-Vanderbilt smearing, width (Ry)=  0.0200
                       cart. coord. in units 2pi/alat
        k(    1) = (   0.0000000   0.0000000   0.0000000), wk =   0.0058309
        k(    2) = (  -0.1654811  -0.0955405   0.0549279), wk =   0.0349854
        k(    3) = (  -0.3309621  -0.1910811   0.1098558), wk =   0.0349854
        k(    4) = (  -0.4964432  -0.2866216   0.1647837), wk =   0.0349854
        k(    5) = (  -0.1654811   0.0955405   0.1098558), wk =   0.0349854
        k(    6) = (  -0.3309621  -0.0000000   0.1647837), wk =   0.0699708
        k(    7) = (  -0.4964432  -0.0955405   0.2197116), wk =   0.0699708
        k(    8) = (   0.4964432   0.4777027  -0.1098558), wk =   0.0699708
        k(    9) = (   0.3309621   0.3821622  -0.0549279), wk =   0.0699708
        k(   10) = (   0.1654811   0.2866216   0.0000000), wk =   0.0349854
        k(   11) = (  -0.3309621   0.1910811   0.2197116), wk =   0.0349854
        k(   12) = (  -0.4964432   0.0955405   0.2746395), wk =   0.0699708
        k(   13) = (   0.4964432   0.6687838  -0.0549279), wk =   0.0699708
        k(   14) = (   0.3309621   0.5732432   0.0000000), wk =   0.0349854
        k(   15) = (  -0.4964432   0.2866216   0.3295674), wk =   0.0349854
        k(   16) = (   0.4964432   0.8598648   0.0000000), wk =   0.0349854
        k(   17) = (   0.0000000  -0.0000000   0.1647837), wk =   0.0116618
        k(   18) = (  -0.1654811  -0.0955405   0.2197116), wk =   0.0349854
        k(   19) = (  -0.3309621  -0.1910811   0.2746395), wk =   0.0349854
        k(   20) = (   0.6619243   0.3821622  -0.0549279), wk =   0.0349854
        k(   21) = (   0.4964432   0.2866216   0.0000000), wk =   0.0349854
        k(   22) = (   0.3309621   0.1910811   0.0549279), wk =   0.0349854
        k(   23) = (  -0.1654811   0.0955405   0.2746395), wk =   0.0349854
        k(   24) = (  -0.3309621   0.0000000   0.3295674), wk =   0.0699708
        k(   25) = (   0.6619243   0.5732432   0.0000000), wk =   0.0699708
        k(   26) = (   0.4964432   0.4777027   0.0549279), wk =   0.0699708
        k(   27) = (   0.3309621   0.3821622   0.1098558), wk =   0.0699708
        k(   28) = (  -0.3309621   0.1910811   0.3844953), wk =   0.0349854
        k(   29) = (   0.6619243   0.7643243   0.0549279), wk =   0.0699708
        k(   30) = (   0.4964432   0.6687838   0.1098558), wk =   0.0699708
        k(   31) = (   0.3309621   0.5732432   0.1647837), wk =   0.0699708
        k(   32) = (   0.6619243  -0.3821622  -0.2746395), wk =   0.0349854
        k(   33) = (   0.4964432  -0.4777027  -0.2197116), wk =   0.0699708
        k(   34) = (   0.4964432  -0.2866216  -0.1647837), wk =   0.0349854
        k(   35) = (   0.0000000  -0.0000000   0.3295674), wk =   0.0116618
        k(   36) = (  -0.1654811  -0.0955405   0.3844953), wk =   0.0349854
        k(   37) = (   0.8274053   0.4777027   0.0549279), wk =   0.0349854
        k(   38) = (   0.6619243   0.3821622   0.1098558), wk =   0.0349854
        k(   39) = (  -0.1654811   0.0955405   0.4394232), wk =   0.0349854
        k(   40) = (   0.8274053   0.6687838   0.1098558), wk =   0.0699708
        k(   41) = (   0.6619243   0.5732432   0.1647837), wk =   0.0699708
        k(   42) = (   0.8274053  -0.4777027  -0.2197116), wk =   0.0349854
        k(   43) = (  -0.0000000   0.0000000   0.4943511), wk =   0.0116618
        k(   44) = (   0.9928864   0.5732432   0.1647837), wk =   0.0349854

     Dense  grid:    26721 G-vectors     FFT dimensions: (  45,  45,  45)

     Estimated max dynamical RAM per process >      17.97 MB

     Estimated total dynamical RAM >     143.75 MB

     Initial potential from superposition of free atoms

     starting charge      14.9936, renormalised to      15.0000
     Starting wfcs are   14 randomized atomic wfcs

     total cpu time spent up to now is        1.0 secs

     Self-consistent Calculation

     iteration #  1     ecut=    80.00 Ry     beta= 0.70
     Davidson diagonalization with overlap
     ethr =  1.00E-02,  avg # of iterations =  5.3

     Threshold (ethr) on eigenvalues was too large:
     Diagonalizing with lowered threshold

     Davidson diagonalization with overlap
     ethr =  4.69E-04,  avg # of iterations =  2.9

     total cpu time spent up to now is        2.5 secs

     total energy              =     -39.46837909 Ry
     estimated scf accuracy    <       0.07454417 Ry

     iteration #  2     ecut=    80.00 Ry     beta= 0.70
     Davidson diagonalization with overlap
     ethr =  4.97E-04,  avg # of iterations =  2.1

     total cpu time spent up to now is        3.3 secs

     total energy              =     -39.48243442 Ry
     estimated scf accuracy    <       0.01607922 Ry

     iteration #  3     ecut=    80.00 Ry     beta= 0.70
     Davidson diagonalization with overlap
     ethr =  1.07E-04,  avg # of iterations =  2.4

     total cpu time spent up to now is        3.9 secs

     total energy              =     -39.48595282 Ry
     estimated scf accuracy    <       0.00057513 Ry

     iteration #  4     ecut=    80.00 Ry     beta= 0.70
     Davidson diagonalization with overlap
     ethr =  3.83E-06,  avg # of iterations =  5.3

     total cpu time spent up to now is        4.7 secs

     total energy              =     -39.48602361 Ry
     estimated scf accuracy    <       0.00001963 Ry

     iteration #  5     ecut=    80.00 Ry     beta= 0.70
     Davidson diagonalization with overlap
     ethr =  1.31E-07,  avg # of iterations =  2.4

     total cpu time spent up to now is        5.3 secs

     total energy              =     -39.48602943 Ry
     estimated scf accuracy    <       0.00000132 Ry

     iteration #  6     ecut=    80.00 Ry     beta= 0.70
     Davidson diagonalization with overlap
     ethr =  8.78E-09,  avg # of iterations =  2.5

     total cpu time spent up to now is        6.0 secs

     total energy              =     -39.48602985 Ry
     estimated scf accuracy    <       0.00000009 Ry

     iteration #  7     ecut=    80.00 Ry     beta= 0.70
     Davidson diagonalization with overlap
     ethr =  5.81E-10,  avg # of iterations =  2.5

     total cpu time spent up to now is        6.6 secs

     End of self-consistent calculation

          k = 0.0000 0.0000 0.0000 (  3337 PWs)   bands (ev):

   -33.3063  -2.6371   7.1977   7.6655  10.3716  10.3716  11.5831  11.5831
    13.2520  14.5457  14.5457  15.8248

          k =-0.1655-0.0955 0.0549 (  3326 PWs)   bands (ev):

   -33.3053  -2.3684   6.6833   7.8400   8.6824   9.5716  11.3038  11.9887
    13.6609  14.2803  15.3958  15.7572

          k =-0.3310-0.1911 0.1099 (  3314 PWs)   bands (ev):

   -33.3029  -1.5860   4.9165   6.5392   8.7841   9.7359  10.2594  11.0780
    13.1673  14.9582  16.2742  18.4281

          k =-0.4964-0.2866 0.1648 (  3333 PWs)   bands (ev):

   -33.3010  -0.4894   2.7362   6.6222   8.4103   8.8189  10.3683  11.3238
    12.8967  15.1753  17.6714  19.3105

          k =-0.1655 0.0955 0.1099 (  3323 PWs)   bands (ev):

   -33.3052  -2.2993   5.8684   8.4548   8.8354   9.3445  10.6936  12.7877
    13.3622  15.0288  15.3556  16.8356

          k =-0.3310-0.0000 0.1648 (  3322 PWs)   bands (ev):

   -33.3034  -1.7022   5.4253   6.0472   8.2678   9.1114  11.2220  12.8051
    13.2552  15.2018  16.4490  18.1321

          k =-0.4964-0.0955 0.2197 (  3335 PWs)   bands (ev):

   -33.3013  -0.6598   3.5017   5.5718   7.7817   8.4144  10.9388  12.9345
    14.6397  15.6158  16.1087  18.3385

          k = 0.4964 0.4777-0.1099 (  3330 PWs)   bands (ev):

   -33.3004   0.0313   2.4008   5.9862   7.5055   8.3402  10.1381  12.6682
    14.0801  15.9042  17.9639  19.3482

          k = 0.3310 0.3822-0.0549 (  3315 PWs)   bands (ev):

   -33.3014  -0.9524   4.0014   6.5451   7.6111   9.0007   9.6072  11.2904
    13.9224  16.2197  16.9858  20.3425

          k = 0.1655 0.2866 0.0000 (  3321 PWs)   bands (ev):

   -33.3036  -1.9036   6.2799   7.2956   8.0211   8.5213  10.2897  11.5480
    13.5608  14.9129  17.1910  17.4174

          k =-0.3310 0.1911 0.2197 (  3323 PWs)   bands (ev):

   -33.3027  -1.2965   4.7096   6.2419   7.4436   7.6293  11.5827  12.7471
    14.7120  17.1677  17.9461  18.9215

          k =-0.4964 0.0955 0.2746 (  3328 PWs)   bands (ev):

   -33.3012  -0.4015   3.8328   5.0406   6.8014   7.1070  12.5294  13.4570
    14.9544  17.0362  17.7911  19.9190

          k = 0.4964 0.6688-0.0549 (  3317 PWs)   bands (ev):

   -33.3001   0.7090   2.3797   4.7066   6.6135   7.1199  12.2541  13.9667
    15.3084  16.3294  18.1311  19.4474

          k = 0.3310 0.5732 0.0000 (  3326 PWs)   bands (ev):

   -33.3002   0.1286   2.9345   5.0680   7.1020   7.7258  10.9994  11.9735
    15.7785  16.9448  18.5010  19.4315

          k =-0.4964 0.2866 0.3296 (  3336 PWs)   bands (ev):

   -33.3007   0.2721   2.8433   5.3582   6.1505   6.7301  11.1193  15.9163
    16.0539  17.9702  18.7960  19.7039

          k = 0.4964 0.8599 0.0000 (  3324 PWs)   bands (ev):

   -33.3002   1.0444   2.1055   4.9124   5.9577   6.6829  12.3329  14.9914
    15.4213  18.2368  18.4837  20.0598

          k = 0.0000-0.0000 0.1648 (  3349 PWs)   bands (ev):

   -33.3061  -2.4325   4.8520   9.9888   9.9888  10.1701  12.1275  12.1275
    13.1952  13.9536  13.9536  16.1652

          k =-0.1655-0.0955 0.2197 (  3333 PWs)   bands (ev):

   -33.3050  -2.0306   4.3030   7.3076   9.8584  11.1508  11.6075  12.6387
    13.6316  13.7597  15.2122  16.5007

          k =-0.3310-0.1911 0.2746 (  3321 PWs)   bands (ev):

   -33.3026  -1.1367   4.1405   4.6870   8.7501  11.1390  11.4805  11.7608
    13.9764  15.6976  15.8277  17.3056

          k = 0.6619 0.3822-0.0549 (  3337 PWs)   bands (ev):

   -33.3008  -0.1028   2.5910   4.8854   7.9792  10.5211  11.0793  11.3767
    12.9244  15.4391  18.1089  18.9923

          k = 0.4964 0.2866 0.0000 (  3329 PWs)   bands (ev):

   -33.3010  -0.5700   3.3017   5.9280   7.7191   9.5005  10.2400  11.5987
    12.1337  15.6397  19.9296  20.4003

          k = 0.3310 0.1911 0.0549 (  3325 PWs)   bands (ev):

   -33.3029  -1.6402   5.5974   7.0825   8.0096   8.1784   9.9435  12.2993
    12.6167  16.0896  16.9806  18.8412

          k =-0.1655 0.0955 0.2746 (  3323 PWs)   bands (ev):

   -33.3048  -1.8253   3.5599   8.1820   8.3764  10.5983  12.2088  12.7010
    14.2092  15.3024  15.4261  17.8588

          k =-0.3310 0.0000 0.3296 (  3332 PWs)   bands (ev):

   -33.3031  -1.1058   3.3274   5.6133   7.8604   9.9752  12.8232  13.4968
    14.5525  15.5517  16.7474  18.0661

          k = 0.6619 0.5732 0.0000 (  3329 PWs)   bands (ev):

   -33.3011  -0.0161   3.2302   3.7617   7.0176   9.6790  12.6226  13.4718
    14.0525  15.6378  16.9400  19.0665

          k = 0.4964 0.4777 0.0549 (  3326 PWs)   bands (ev):

   -33.3003   0.2340   2.8162   4.5714   6.6052   9.4414  10.9788  12.4164
    13.4736  17.2516  19.2829  20.0287

          k = 0.3310 0.3822 0.1099 (  3321 PWs)   bands (ev):

   -33.3014  -0.8656   4.4093   6.0350   6.6411   8.2381  10.8534  12.2241
    13.3461  17.3293  18.1089  19.2086

          k =-0.3310 0.1911 0.3845 (  3312 PWs)   bands (ev):

   -33.3024  -0.5748   2.8296   5.3735   7.2430   8.8770  11.4459  15.5824
    16.1525  17.2838  18.1955  18.4910

          k = 0.6619 0.7643 0.0549 (  3319 PWs)   bands (ev):

   -33.3010   0.3818   2.6802   4.0392   6.3258   8.6059  12.5156  14.4612
    16.0764  16.4763  18.6474  19.1651

          k = 0.4964 0.6688 0.1099 (  3314 PWs)   bands (ev):

   -33.3000   1.2424   2.1045   4.0259   5.6952   8.6448  11.5916  14.8828
    15.2836  16.2611  18.0142  20.0963

          k = 0.3310 0.5732 0.1648 (  3315 PWs)   bands (ev):

   -33.3001   0.2820   2.7142   5.5675   5.9378   8.2237  10.2825  14.1099
    15.5715  16.5184  17.8328  18.9235

          k = 0.6619-0.3822-0.2746 (  3327 PWs)   bands (ev):

   -33.3006   0.8543   2.2354   3.9600   6.7927   7.7809  11.2035  15.2441
    16.1853  18.5553  18.7067  19.4488

          k = 0.4964-0.4777-0.2197 (  3320 PWs)   bands (ev):

   -33.3002   0.6546   2.6974   4.2917   5.9863   7.9774  12.1665  13.0434
    15.4821  17.9606  18.8500  19.7918

          k = 0.4964-0.2866-0.1648 (  3325 PWs)   bands (ev):

   -33.3008  -0.3094   3.7926   4.8902   7.0520   7.4644  11.4043  12.9366
    13.6160  17.3019  20.2722  20.8889

          k = 0.0000-0.0000 0.3296 (  3320 PWs)   bands (ev):

   -33.3057  -1.8249   2.6361   9.5650   9.5650  11.8233  12.1274  12.1274
    14.1608  14.4856  14.4856  17.0309

          k =-0.1655-0.0955 0.3845 (  3331 PWs)   bands (ev):

   -33.3046  -1.2994   2.2348   7.0593   9.1599  11.7824  12.4369  13.8931
    13.9338  14.7631  15.7379  17.5637

          k = 0.8274 0.4777 0.0549 (  3324 PWs)   bands (ev):

   -33.3024  -0.3283   2.3974   4.4574   7.9761  11.1567  12.7173  13.1471
    14.7202  15.7947  16.4716  17.6729

          k = 0.6619 0.3822 0.1099 (  3326 PWs)   bands (ev):

   -33.3007   0.4869   2.8577   3.3082   7.2339   9.6489  11.7608  12.9192
    13.4867  16.7995  19.0201  20.5118

          k =-0.1655 0.0955 0.4394 (  3322 PWs)   bands (ev):

   -33.3045  -0.9748   1.6371   7.5610   8.2822  11.2272  12.8854  13.4867
    14.1090  16.4768  17.2882  18.2120

          k = 0.8274 0.6688 0.1099 (  3331 PWs)   bands (ev):

   -33.3029  -0.1909   1.6225   5.4237   7.3490  11.5067  12.6338  13.6363
    14.8204  16.7374  17.4151  18.1769

          k = 0.6619 0.5732 0.1648 (  3322 PWs)   bands (ev):

   -33.3010   0.7650   2.2492   3.5180   6.4250  10.3053  12.1824  13.1237
    15.9198  16.2336  18.5986  19.1901

          k = 0.8274-0.4777-0.2197 (  3315 PWs)   bands (ev):

   -33.3022   0.2747   1.5051   4.7291   7.4267  10.3054  11.9796  14.7030
    16.2952  16.3222  17.5133  18.6980

          k =-0.0000 0.0000 0.4944 (  3329 PWs)   bands (ev):

   -33.3053  -0.8753   0.8733   9.3637   9.3637  11.7005  11.7005  11.8934
    15.9559  16.3270  16.3270  18.4482

          k = 0.9929 0.5732 0.1648 (  3342 PWs)   bands (ev):

   -33.3044  -0.3649   0.7586   7.1508   8.5565  11.4488  12.9055  13.9933
    14.9155  15.6153  16.6239  17.9348

     the Fermi energy is    12.9484 ev

!    total energy              =     -39.48602987 Ry
     estimated scf accuracy    <          2.2E-09 Ry
     smearing contrib. (-TS)   =       0.00008889 Ry
     internal energy E=F+TS    =     -39.48611876 Ry

     The total energy is F=E-TS. E is the sum of the following terms:
     one-electron contribution =       9.25081756 Ry
     hartree contribution      =       3.66597775 Ry
     xc contribution           =     -13.54899036 Ry
     ewald contribution        =     -38.85392370 Ry

     convergence has been achieved in   7 iterations

     Forces acting on atoms (cartesian axes, Ry/au):

     atom    1 type  1   force =     0.00000000    0.00000000    0.10100902
     atom    2 type  1   force =    -0.00000000   -0.00000000    0.01228193
     atom    3 type  1   force =     0.00000000    0.00000000   -0.08805069
     atom    4 type  2   force =    -0.00000000    0.00000000   -0.02524026
     The non-local contrib.  to forces
     atom    1 type  1   force =    -0.00000000   -0.00000000    0.07228220
     atom    2 type  1   force =    -0.00000000    0.00000000   -0.00156075
     atom    3 type  1   force =     0.00000000    0.00000000   -0.02108554
     atom    4 type  2   force =     0.00000000    0.00000000   -0.03278810
     The ionic contribution  to forces
     atom    1 type  1   force =     0.00000000   -0.00000000    0.95273280
     atom    2 type  1   force =     0.00000000   -0.00000000    0.01284763
     atom    3 type  1   force =     0.00000000    0.00000000   -0.67617885
     atom    4 type  2   force =    -0.00000000    0.00000000   -0.28940158
     The local contribution  to forces
     atom    1 type  1   force =     0.00000000    0.00000000   -0.91722614
     atom    2 type  1   force =     0.00000000   -0.00000000    0.00234888
     atom    3 type  1   force =     0.00000000   -0.00000000    0.60494514
     atom    4 type  2   force =    -0.00000000   -0.00000000    0.29693312
     The core correction contribution to forces
     atom    1 type  1   force =    -0.00000000    0.00000000   -0.00677351
     atom    2 type  1   force =    -0.00000000    0.00000000   -0.00136305
     atom    3 type  1   force =    -0.00000000   -0.00000000    0.00426968
     atom    4 type  2   force =     0.00000000    0.00000000    0.00000000
     The Hubbard contrib.    to forces
     atom    1 type  1   force =     0.00000000    0.00000000    0.00000000
     atom    2 type  1   force =     0.00000000    0.00000000    0.00000000
     atom    3 type  1   force =     0.00000000    0.00000000    0.00000000
     atom    4 type  2   force =     0.00000000    0.00000000    0.00000000
     The SCF correction term to forces
     atom    1 type  1   force =     0.00000000   -0.00000000   -0.00000593
     atom    2 type  1   force =     0.00000000    0.00000000    0.00000963
     atom    3 type  1   force =    -0.00000000   -0.00000000   -0.00000072
     atom    4 type  2   force =    -0.00000000    0.00000000    0.00001671

     Total force =     0.136907     Total SCF correction =     0.000020


     Computing stress (Cartesian axis) and pressure

          total   stress  (Ry/bohr**3)                   (kbar)     P=      573.00
   0.00392509   0.00000000  -0.00000000          577.40        0.00       -0.00
  -0.00000000   0.00392509   0.00000000           -0.00      577.40        0.00
  -0.00000000   0.00000000   0.00383541           -0.00        0.00      564.21


     BFGS Geometry Optimization
     Energy error            =      0.0E+00 Ry
     Gradient error          =      1.0E-01 Ry/Bohr
     Cell gradient error     =      7.7E+01 kbar

     number of scf cycles    =   1
     number of bfgs steps    =   0

     enthalpy           new  =     -38.5505207659 Ry

     new trust radius        =       0.1010090211 bohr
ibrav =      5
 celldm(1) =      7.98447009
 celldm(4) =      0.62612825
Input lattice vectors:
     0.43731973    -0.25248667     0.87639732
     0.00000000     0.50497333     0.87639732
    -0.43731973    -0.25248667     0.87639732
New lattice vectors in INITIAL alat:
     0.43731973    -0.25248667     0.87639732
     0.00000000     0.50497333     0.87639732
    -0.43731973    -0.25248667     0.87639732
New lattice vectors in NEW alat (for information only):
     0.43236082    -0.24962364     0.86645956
     0.00000000     0.49924727     0.86645956
    -0.43236082    -0.24962364     0.86645956
Discrepancy in bohr =     0.000000    0.000000    0.000000
     new conv_thr            =       0.0000000100 Ry

     new unit-cell volume =    285.60768 a.u.^3 (    42.32269 Ang^3 )
     density =      3.57815 g/cm^3

CELL_PARAMETERS (alat=  7.89393151)
   0.437319734  -0.252486666   0.876397320
   0.000000000   0.504973332   0.876397320
  -0.437319734  -0.252486666   0.876397320

ATOMIC_POSITIONS (crystal)
Si            0.1107529180        0.1107529180        0.1107529180
Si            0.3307008947        0.3307008947        0.3307008947
Si            0.8912872525        0.8912872525        0.8912872525
Li            0.6909491049        0.6909491049        0.6909491049



     Writing config-only to output data dir ./output/SiLi.save/
     NEW-OLD atomic charge density approx. for the potential
     extrapolated charge   15.54447, renormalised to   15.00000

     total cpu time spent up to now is        8.0 secs

     Self-consistent Calculation

     iteration #  1     ecut=    80.00 Ry     beta= 0.70
     Davidson diagonalization with overlap
     ethr =  1.00E-06,  avg # of iterations = 10.4

     total cpu time spent up to now is        9.6 secs

     total energy              =     -39.53120037 Ry
     estimated scf accuracy    <       0.00520496 Ry

     iteration #  2     ecut=    80.00 Ry     beta= 0.70
     Davidson diagonalization with overlap
     ethr =  3.47E-05,  avg # of iterations =  2.7

     total cpu time spent up to now is       10.4 secs

     total energy              =     -39.53541743 Ry
     estimated scf accuracy    <       0.00526196 Ry

     iteration #  3     ecut=    80.00 Ry     beta= 0.70
     Davidson diagonalization with overlap
     ethr =  3.47E-05,  avg # of iterations =  1.3

     total cpu time spent up to now is       11.0 secs

     total energy              =     -39.53582941 Ry
     estimated scf accuracy    <       0.00040936 Ry

     iteration #  4     ecut=    80.00 Ry     beta= 0.70
     Davidson diagonalization with overlap
     ethr =  2.73E-06,  avg # of iterations =  2.4

     total cpu time spent up to now is       11.6 secs

     total energy              =     -39.53585297 Ry
     estimated scf accuracy    <       0.00004715 Ry

     iteration #  5     ecut=    80.00 Ry     beta= 0.70
     Davidson diagonalization with overlap
     ethr =  3.14E-07,  avg # of iterations =  2.4

     total cpu time spent up to now is       12.2 secs

     total energy              =     -39.53586598 Ry
     estimated scf accuracy    <       0.00000045 Ry

     iteration #  6     ecut=    80.00 Ry     beta= 0.70
     Davidson diagonalization with overlap
     ethr =  3.03E-09,  avg # of iterations =  4.2

     total cpu time spent up to now is       13.0 secs

     total energy              =     -39.53586640 Ry
     estimated scf accuracy    <       0.00000014 Ry

     iteration #  7     ecut=    80.00 Ry     beta= 0.70
     Davidson diagonalization with overlap
     ethr =  9.49E-10,  avg # of iterations =  2.0

     total cpu time spent up to now is       13.6 secs

     End of self-consistent calculation

          k = 0.0000 0.0000 0.0000 (  3337 PWs)   bands (ev):

   -33.7593  -2.8189   6.9370   7.1759  10.0465  10.0465  11.1701  11.1701
    12.5410  14.0158  14.0158  15.0197

          k =-0.1633-0.0943 0.0543 (  3326 PWs)   bands (ev):

   -33.7585  -2.5522   6.3597   7.4824   8.2560   9.3040  10.7252  11.4132
    13.1671  13.8432  14.6381  15.2746

          k =-0.3267-0.1886 0.1087 (  3314 PWs)   bands (ev):

   -33.7565  -1.7743   4.6215   6.1708   8.5899   9.2056   9.7415  10.4306
    12.6825  14.3063  15.8081  17.7633

          k =-0.4900-0.2829 0.1630 (  3333 PWs)   bands (ev):

   -33.7550  -0.6745   2.4401   6.2735   8.2571   8.2812   9.6812  10.7409
    12.4985  14.5222  17.0392  18.7589

          k =-0.1633 0.0943 0.1087 (  3323 PWs)   bands (ev):

   -33.7584  -2.4838   5.5289   8.2068   8.5138   8.8248  10.1071  12.3505
    12.8640  14.6044  14.6648  16.1493

          k =-0.3267 0.0000 0.1630 (  3322 PWs)   bands (ev):

   -33.7570  -1.8902   5.1219   5.6971   7.9846   8.5531  10.7369  12.2197
    12.7913  14.7057  15.7643  17.4972

          k =-0.4900-0.0943 0.2173 (  3335 PWs)   bands (ev):

   -33.7553  -0.8491   3.2212   5.2013   7.5211   7.8600  10.4223  12.3998
    14.1351  14.9515  15.5753  17.6551

          k = 0.4900 0.4715-0.1087 (  3330 PWs)   bands (ev):

   -33.7545  -0.1496   2.1176   5.6122   7.1655   7.8648   9.6366  12.1128
    13.6323  15.1979  17.3351  18.6994

          k = 0.3267 0.3772-0.0543 (  3315 PWs)   bands (ev):

   -33.7554  -1.1435   3.7395   6.1748   7.2054   8.5602   9.1136  10.7833
    13.4228  15.5317  16.4190  19.6974

          k = 0.1633 0.2829 0.0000 (  3321 PWs)   bands (ev):

   -33.7571  -2.0905   6.0512   6.9441   7.5513   8.0834   9.8338  10.9444
    13.1134  14.4189  16.4032  16.7748

          k =-0.3267 0.1886 0.2173 (  3323 PWs)   bands (ev):

   -33.7564  -1.4855   4.3986   5.9419   7.0731   7.1404  11.0972  12.2508
    14.1145  16.7962  17.1763  18.2530

          k =-0.4900 0.0943 0.2717 (  3328 PWs)   bands (ev):

   -33.7551  -0.5885   3.5802   4.6394   6.2987   6.8238  12.0530  12.8819
    14.3825  16.4222  17.2517  19.0926

          k = 0.4900 0.6601-0.0543 (  3317 PWs)   bands (ev):

   -33.7542   0.5395   2.1314   4.2656   6.1421   6.8281  11.7274  13.4249
    14.7660  15.7668  17.4422  18.7689

          k = 0.3267 0.5658 0.0000 (  3326 PWs)   bands (ev):

   -33.7543  -0.0630   2.7288   4.6032   6.6656   7.3778  10.4787  11.4927
    15.2323  16.3916  17.7540  18.6962

          k =-0.4900 0.2829 0.3260 (  3336 PWs)   bands (ev):

   -33.7547   0.1083   2.5263   4.9314   5.7553   6.4372  10.6315  15.3105
    15.4310  17.3268  18.0939  18.9813

          k = 0.4900 0.8487 0.0000 (  3324 PWs)   bands (ev):

   -33.7543   0.9682   1.7232   4.4872   5.5191   6.4077  11.8449  14.3782
    14.8180  17.6094  17.8805  19.3344

          k = 0.0000 0.0000 0.1630 (  3349 PWs)   bands (ev):

   -33.7592  -2.6164   4.5183   9.6433   9.6433   9.7666  11.7778  11.7778
    12.4428  13.3459  13.3459  15.3973

          k =-0.1633-0.0943 0.2173 (  3333 PWs)   bands (ev):

   -33.7582  -2.2170   3.9749   6.9554   9.6686  10.7262  10.9375  12.0762
    13.1009  13.1934  14.6989  15.8707

          k =-0.3267-0.1886 0.2717 (  3321 PWs)   bands (ev):

   -33.7563  -1.3250   3.8372   4.3265   8.5513  10.4910  10.8815  11.2929
    13.4000  15.1394  15.3523  16.6896

          k = 0.6533 0.3772-0.0543 (  3337 PWs)   bands (ev):

   -33.7549  -0.2789   2.2868   4.5094   7.7509   9.9730  10.4846  10.8005
    12.5272  14.7679  17.4870  18.4264

          k = 0.4900 0.2829 0.0000 (  3329 PWs)   bands (ev):

   -33.7550  -0.7578   3.0241   5.5102   7.4638   9.0326   9.6796  11.0274
    11.6846  14.9734  19.4116  19.6986

          k = 0.3267 0.1886 0.0543 (  3325 PWs)   bands (ev):

   -33.7565  -1.8284   5.3574   6.6425   7.7027   7.7245   9.4023  11.8445
    12.0460  15.3818  16.5661  18.1940

          k =-0.1633 0.0943 0.2717 (  3323 PWs)   bands (ev):

   -33.7581  -2.0128   3.2384   7.8608   8.0458  10.0118  11.7895  12.2274
    13.8207  14.5850  14.8227  17.1193

          k =-0.3267 0.0000 0.3260 (  3332 PWs)   bands (ev):

   -33.7567  -1.2936   3.0018   5.2839   7.5459   9.4386  12.3864  12.9943
    13.9053  14.9769  16.2265  17.4010

          k = 0.6533 0.5658 0.0000 (  3329 PWs)   bands (ev):

   -33.7551  -0.1921   2.9620   3.3603   6.6931   9.2001  12.0942  12.8663
    13.6007  15.0675  16.2531  18.4228

          k = 0.4900 0.4715 0.0543 (  3326 PWs)   bands (ev):

   -33.7545   0.0555   2.5698   4.1220   6.2774   9.0224  10.4442  11.8956
    12.9521  16.5481  18.6273  19.4139

          k = 0.3267 0.3772 0.1087 (  3321 PWs)   bands (ev):

   -33.7553  -1.0567   4.2126   5.5334   6.2492   7.8852  10.3176  11.7300
    12.8212  16.7620  17.3920  18.5234

          k =-0.3267 0.1886 0.3803 (  3312 PWs)   bands (ev):

   -33.7561  -0.7564   2.4963   5.0461   6.9370   8.3544  10.9995  15.0328
    15.5104  16.7941  17.6853  17.8906

          k = 0.6533 0.7544 0.0543 (  3319 PWs)   bands (ev):

   -33.7550   0.2289   2.3305   3.6964   5.9774   8.1729  12.0400  13.8588
    15.5060  15.8926  17.9817  18.4945

          k = 0.4900 0.6601 0.1087 (  3314 PWs)   bands (ev):

   -33.7542   1.1430   1.8089   3.5454   5.3483   8.2537  11.0667  14.3616
    14.7097  15.6628  17.3928  19.2566

          k = 0.3267 0.5658 0.1630 (  3315 PWs)   bands (ev):

   -33.7543   0.0943   2.4858   5.0870   5.5590   7.8822   9.7639  13.5763
    15.0098  15.9894  17.1445  18.2428

          k = 0.6533-0.3772-0.2717 (  3327 PWs)   bands (ev):

   -33.7547   0.7796   1.8108   3.5938   6.5010   7.3312  10.7273  14.6422
    15.5355  17.8619  17.9961  18.8034

          k = 0.4900-0.4715-0.2173 (  3320 PWs)   bands (ev):

   -33.7544   0.4972   2.4381   3.8210   5.6447   7.5998  11.6924  12.4555
    14.8986  17.3073  18.2183  19.0352

          k = 0.4900-0.2829-0.1630 (  3325 PWs)   bands (ev):

   -33.7549  -0.4947   3.6075   4.3557   6.7655   7.0465  10.9067  12.3926
    13.0471  16.6010  19.6961  20.2108

          k = 0.0000 0.0000 0.3260 (  3320 PWs)   bands (ev):

   -33.7588  -2.0126   2.3277   9.2158   9.2158  11.3059  11.7509  11.7509
    13.4348  13.8876  13.8876  16.3460

          k =-0.1633-0.0943 0.3803 (  3331 PWs)   bands (ev):

   -33.7579  -1.4862   1.9237   6.7042   8.8626  11.2895  11.8879  13.3126
    13.4258  14.3066  15.0647  16.9491

          k = 0.8167 0.4715 0.0543 (  3324 PWs)   bands (ev):

   -33.7561  -0.5012   2.0567   4.1289   7.6924  10.5834  12.1285  12.7452
    14.0610  15.3237  15.8089  17.0802

          k = 0.6533 0.3772 0.1087 (  3326 PWs)   bands (ev):

   -33.7547   0.3419   2.5558   2.8986   6.9536   9.1344  11.3274  12.3522
    12.8798  16.1329  18.4292  19.8225

          k =-0.1633 0.0943 0.4347 (  3322 PWs)   bands (ev):

   -33.7578  -1.1563   1.3244   7.2082   7.9523  10.6830  12.4299  13.0338
    13.5670  15.7767  16.7184  17.5877

          k = 0.8167 0.6601 0.1087 (  3331 PWs)   bands (ev):

   -33.7565  -0.3453   1.2709   5.0928   7.0152  10.9662  12.1369  13.1473
    14.3241  16.0706  16.7958  17.4917

          k = 0.6533 0.5658 0.1630 (  3322 PWs)   bands (ev):

   -33.7550   0.6779   1.8187   3.1925   6.0910   9.8445  11.6680  12.5992
    15.3788  15.6080  17.8231  18.5279

          k = 0.8167-0.4715-0.2173 (  3315 PWs)   bands (ev):

   -33.7560   0.1819   1.0860   4.4006   7.1245   9.7380  11.5756  14.0856
    15.6112  15.8599  16.9558  17.9302

          k = 0.0000 0.0000 0.4890 (  3329 PWs)   bands (ev):

   -33.7585  -1.0467   0.5610   9.0169   9.0169  11.2841  11.2845  11.2845
    15.2200  15.7477  15.7477  17.8915

          k = 0.9800 0.5658 0.1630 (  3342 PWs)   bands (ev):

   -33.7577  -0.4925   0.3961   6.7942   8.2333  10.9334  12.4242  13.4174
    14.4323  15.0828  15.9604  17.2392

     the Fermi energy is    12.4400 ev

!    total energy              =     -39.53586643 Ry
     estimated scf accuracy    <          9.6E-09 Ry
     smearing contrib. (-TS)   =       0.00024119 Ry
     internal energy E=F+TS    =     -39.53610762 Ry

     The total energy is F=E-TS. E is the sum of the following terms:
     one-electron contribution =       8.82204468 Ry
     hartree contribution      =       3.60266091 Ry
     xc contribution           =     -13.44450506 Ry
     ewald contribution        =     -38.51630816 Ry

     convergence has been achieved in   7 iterations

     Forces acting on atoms (cartesian axes, Ry/au):

     atom    1 type  1   force =    -0.00000000   -0.00000000    0.04278766
     atom    2 type  1   force =     0.00000000    0.00000000    0.01832905
     atom    3 type  1   force =     0.00000000   -0.00000000   -0.03416015
     atom    4 type  2   force =    -0.00000000    0.00000000   -0.02695657
     The non-local contrib.  to forces
     atom    1 type  1   force =    -0.00000000   -0.00000000    0.02117454
     atom    2 type  1   force =    -0.00000000    0.00000000    0.00085881
     atom    3 type  1   force =     0.00000000   -0.00000000    0.03961248
     atom    4 type  2   force =     0.00000000   -0.00000000   -0.03378852
     The ionic contribution  to forces
     atom    1 type  1   force =     0.00000000   -0.00000000    0.66810503
     atom    2 type  1   force =    -0.00000000   -0.00000000    0.07443383
     atom    3 type  1   force =     0.00000000    0.00000000   -0.38569879
     atom    4 type  2   force =    -0.00000000    0.00000000   -0.35684007
     The local contribution  to forces
     atom    1 type  1   force =     0.00000000    0.00000000   -0.64437764
     atom    2 type  1   force =     0.00000000   -0.00000000   -0.05527387
     atom    3 type  1   force =     0.00000000   -0.00000000    0.31270662
     atom    4 type  2   force =    -0.00000000   -0.00000000    0.36368490
     The core correction contribution to forces
     atom    1 type  1   force =    -0.00000000    0.00000000   -0.00217560
     atom    2 type  1   force =     0.00000000    0.00000000   -0.00166764
     atom    3 type  1   force =    -0.00000000   -0.00000000   -0.00075545
     atom    4 type  2   force =     0.00000000    0.00000000    0.00000000
     The Hubbard contrib.    to forces
     atom    1 type  1   force =     0.00000000    0.00000000    0.00000000
     atom    2 type  1   force =     0.00000000    0.00000000    0.00000000
     atom    3 type  1   force =     0.00000000    0.00000000    0.00000000
     atom    4 type  2   force =     0.00000000    0.00000000    0.00000000
     The SCF correction term to forces
     atom    1 type  1   force =    -0.00000000    0.00000000    0.00005847
     atom    2 type  1   force =    -0.00000000   -0.00000000   -0.00002495
     atom    3 type  1   force =    -0.00000000   -0.00000000   -0.00002788
     atom    4 type  2   force =    -0.00000000   -0.00000000   -0.00001575

     Total force =     0.063721     Total SCF correction =     0.000071


     Computing stress (Cartesian axis) and pressure

          total   stress  (Ry/bohr**3)                   (kbar)     P=      468.23
   0.00319617   0.00000000  -0.00000000          470.17        0.00       -0.00
   0.00000000   0.00319617   0.00000000            0.00      470.17        0.00
  -0.00000000   0.00000000   0.00315645           -0.00        0.00      464.33

     Energy error            =      1.5E-02 Ry
     Gradient error          =      4.3E-02 Ry/Bohr
     Cell gradient error     =      3.6E+01 kbar

     number of scf cycles    =   2
     number of bfgs steps    =   1

     enthalpy           old  =     -38.5505207659 Ry
     enthalpy           new  =     -38.5651056736 Ry

     CASE: enthalpy          _new < enthalpy          _old

     new trust radius        =       0.0865518123 bohr
ibrav =      5
 celldm(1) =      7.94603428
 celldm(4) =      0.62501017
Input lattice vectors:
     0.43586483    -0.25164668     0.87174542
    -0.00000000     0.50329335     0.87174542
    -0.43586483    -0.25164668     0.87174542
New lattice vectors in INITIAL alat:
     0.43586483    -0.25164668     0.87174542
     0.00000000     0.50329335     0.87174542
    -0.43586483    -0.25164668     0.87174542
New lattice vectors in NEW alat (for information only):
     0.43300683    -0.24999661     0.86602932
     0.00000000     0.49999322     0.86602932
    -0.43300683    -0.24999661     0.86602932
Discrepancy in bohr =     0.000000    0.000000    0.000000
     new conv_thr            =       0.0000000043 Ry

     new unit-cell volume =    282.20455 a.u.^3 (    41.81840 Ang^3 )
     density =      3.62130 g/cm^3

CELL_PARAMETERS (alat=  7.89393151)
   0.435864831  -0.251646677   0.871745421
   0.000000000   0.503293355   0.871745421
  -0.435864831  -0.251646677   0.871745421

ATOMIC_POSITIONS (crystal)
Si            0.1149231528        0.1149231528        0.1149231528
Si            0.3320749624        0.3320749624        0.3320749624
Si            0.8878592993        0.8878592993        0.8878592993
Li            0.6888327555        0.6888327555        0.6888327555



     Writing config-only to output data dir ./output/SiLi.save/
     NEW-OLD atomic charge density approx. for the potential
     extrapolated charge   14.81919, renormalised to   15.00000

     total cpu time spent up to now is       15.0 secs

     Self-consistent Calculation

     iteration #  1     ecut=    80.00 Ry     beta= 0.70
     Davidson diagonalization with overlap
     ethr =  1.00E-06,  avg # of iterations =  8.9

     total cpu time spent up to now is       16.5 secs

     total energy              =     -39.52980822 Ry
     estimated scf accuracy    <       0.00052830 Ry

     iteration #  2     ecut=    80.00 Ry     beta= 0.70
     Davidson diagonalization with overlap
     ethr =  3.52E-06,  avg # of iterations =  2.0

     total cpu time spent up to now is       17.2 secs

     total energy              =     -39.53006267 Ry
     estimated scf accuracy    <       0.00008878 Ry

     iteration #  3     ecut=    80.00 Ry     beta= 0.70
     Davidson diagonalization with overlap
     ethr =  5.92E-07,  avg # of iterations =  1.0

     total cpu time spent up to now is       17.8 secs

     total energy              =     -39.53006774 Ry
     estimated scf accuracy    <       0.00000632 Ry

     iteration #  4     ecut=    80.00 Ry     beta= 0.70
     Davidson diagonalization with overlap
     ethr =  4.22E-08,  avg # of iterations =  2.0

     total cpu time spent up to now is       18.4 secs

     total energy              =     -39.53006891 Ry
     estimated scf accuracy    <       0.00000044 Ry

     iteration #  5     ecut=    80.00 Ry     beta= 0.70
     Davidson diagonalization with overlap
     ethr =  2.93E-09,  avg # of iterations =  2.4

     total cpu time spent up to now is       19.0 secs

     total energy              =     -39.53006904 Ry
     estimated scf accuracy    <       0.00000003 Ry

     iteration #  6     ecut=    80.00 Ry     beta= 0.70
     Davidson diagonalization with overlap
     ethr =  2.18E-10,  avg # of iterations =  2.3

     total cpu time spent up to now is       19.7 secs

     End of self-consistent calculation

          k = 0.0000 0.0000 0.0000 (  3337 PWs)   bands (ev):

   -33.6006  -2.7165   7.2125   7.2680  10.2482  10.2482  11.3863  11.3863
    12.8401  14.2310  14.2310  15.3300

          k =-0.1639-0.0946 0.0546 (  3326 PWs)   bands (ev):

   -33.5997  -2.4460   6.5512   7.6566   8.4523   9.5333  10.9097  11.5435
    13.4495  14.0438  14.7120  15.5747

          k =-0.3278-0.1892 0.1092 (  3314 PWs)   bands (ev):

   -33.5977  -1.6556   4.7797   6.3520   8.8608   9.3904   9.9022  10.4701
    12.8960  14.4597  16.0313  18.0564

          k =-0.4916-0.2838 0.1639 (  3333 PWs)   bands (ev):

   -33.5961  -0.5296   2.5598   6.4506   8.4489   8.6148   9.6446  10.7926
    12.8149  14.7044  17.2727  18.9921

          k =-0.1639 0.0946 0.1092 (  3323 PWs)   bands (ev):

   -33.5996  -2.3769   5.7067   8.4804   8.6976   8.9390  10.2731  12.5488
    13.0588  14.8913  14.9114  16.4344

          k =-0.3278-0.0000 0.1639 (  3322 PWs)   bands (ev):

   -33.5981  -1.7742   5.3010   5.8764   8.1728   8.6634  10.9542  12.3853
    12.9882  14.9663  15.8596  17.7797

          k =-0.4916-0.0946 0.2185 (  3335 PWs)   bands (ev):

   -33.5963  -0.7123   3.3706   5.3633   7.6709   8.0130  10.5967  12.5539
    14.4097  15.0940  15.8183  17.8456

          k = 0.4916 0.4731-0.1092 (  3330 PWs)   bands (ev):

   -33.5956   0.0102   2.2413   5.7649   7.3063   8.0469   9.7865  12.2531
    13.8955  15.3839  17.5558  18.9384

          k = 0.3278 0.3785-0.0546 (  3315 PWs)   bands (ev):

   -33.5965  -1.0133   3.9115   6.3128   7.3672   8.7612   9.2511  10.9536
    13.6189  15.6981  16.6399  19.9902

          k = 0.1639 0.2838 0.0000 (  3321 PWs)   bands (ev):

   -33.5983  -1.9771   6.2770   7.1299   7.6647   8.2543  10.0734  11.0472
    13.3201  14.6323  16.4677  17.0506

          k =-0.3278 0.1892 0.2185 (  3323 PWs)   bands (ev):

   -33.5975  -1.3629   4.5790   6.1596   7.1297   7.3075  11.2657  12.4860
    14.2773  17.1535  17.3518  18.5574

          k =-0.4916 0.0946 0.2731 (  3328 PWs)   bands (ev):

   -33.5962  -0.4476   3.7881   4.7570   6.3042   7.0752  12.2431  13.0661
    14.5860  16.6306  17.5562  19.2034

          k = 0.4916 0.6623-0.0546 (  3317 PWs)   bands (ev):

   -33.5953   0.7140   2.3058   4.3348   6.1674   7.0989  11.9072  13.6310
    14.9734  15.9888  17.6762  18.9772

          k = 0.3278 0.5677 0.0000 (  3326 PWs)   bands (ev):

   -33.5954   0.0892   2.9364   4.6462   6.7447   7.6292  10.6243  11.7165
    15.4417  16.6317  17.8763  18.8984

          k =-0.4916 0.2838 0.3277 (  3336 PWs)   bands (ev):

   -33.5958   0.2738   2.6723   5.0385   5.8917   6.5962  10.7971  15.5421
    15.5917  17.5453  18.3270  19.2859

          k = 0.4916 0.8515 0.0000 (  3324 PWs)   bands (ev):

   -33.5954   1.2092   1.8114   4.5910   5.5545   6.6477  12.0259  14.5507
    15.0221  17.8630  18.1511  19.5335

          k = 0.0000-0.0000 0.1639 (  3349 PWs)   bands (ev):

   -33.6004  -2.5121   4.6852   9.8409   9.8409   9.9595  12.0276  12.0276
    12.7395  13.4586  13.4586  15.7179

          k =-0.1639-0.0946 0.2185 (  3333 PWs)   bands (ev):

   -33.5994  -2.1073   4.1350   7.1307   9.9911  10.9105  10.9564  12.3006
    13.3386  13.3709  14.9804  15.9975

          k =-0.3278-0.1892 0.2731 (  3321 PWs)   bands (ev):

   -33.5974  -1.1989   3.9780   4.4874   8.8235  10.5237  11.0110  11.5114
    13.6657  15.3188  15.5585  16.9368

          k = 0.6555 0.3785-0.0546 (  3337 PWs)   bands (ev):

   -33.5960  -0.1200   2.3944   4.6630   7.9781  10.1894  10.5557  10.8626
    12.8263  14.9610  17.7179  18.6455

          k = 0.4916 0.2838 0.0000 (  3329 PWs)   bands (ev):

   -33.5961  -0.6172   3.1653   5.6555   7.6655   9.2265   9.8192  11.1291
    11.8837  15.1727  19.6881  19.9832

          k = 0.3278 0.1892 0.0546 (  3325 PWs)   bands (ev):

   -33.5977  -1.7106   5.5623   6.8113   7.8136   7.9128   9.6048  12.0251
    12.1794  15.5533  16.8557  18.4941

          k =-0.1639 0.0946 0.2731 (  3323 PWs)   bands (ev):

   -33.5993  -1.9008   3.3918   8.0939   8.2185  10.1059  11.9847  12.4427
    14.0486  14.8611  15.0313  17.4565

          k =-0.3278 0.0000 0.3277 (  3332 PWs)   bands (ev):

   -33.5978  -1.1686   3.1482   5.4555   7.7113   9.5739  12.5922  13.1682
    14.0994  15.2309  16.4846  17.6725

          k = 0.6555 0.5677 0.0000 (  3329 PWs)   bands (ev):

   -33.5962  -0.0364   3.1124   3.4781   6.8340   9.3724  12.2430  13.0402
    13.8741  15.2599  16.4578  18.6283

          k = 0.4916 0.4731 0.0546 (  3326 PWs)   bands (ev):

   -33.5955   0.2186   2.7297   4.2143   6.4141   9.2327  10.5832  12.0836
    13.1491  16.7319  18.8477  19.6772

          k = 0.3278 0.3785 0.1092 (  3321 PWs)   bands (ev):

   -33.5964  -0.9254   4.4535   5.5945   6.3720   8.0842  10.5013  11.9019
    13.0107  16.9994  17.5154  18.8204

          k =-0.3278 0.1892 0.3824 (  3312 PWs)   bands (ev):

   -33.5972  -0.6197   2.6349   5.2141   7.0996   8.4653  11.1895  15.2569
    15.6413  17.1096  17.9281  18.2619

          k = 0.6555 0.7569 0.0546 (  3319 PWs)   bands (ev):

   -33.5961   0.4003   2.4635   3.8236   6.0873   8.3482  12.2300  14.0267
    15.7157  16.1220  18.2432  18.7589

          k = 0.4916 0.6623 0.1092 (  3314 PWs)   bands (ev):

   -33.5952   1.3606   1.9768   3.5667   5.4582   8.4603  11.2340  14.5826
    14.9181  15.8475  17.6380  19.4378

          k = 0.3278 0.5677 0.1639 (  3315 PWs)   bands (ev):

   -33.5954   0.2514   2.6717   5.1322   5.6879   8.1050   9.9169  13.7835
    15.2171  16.2326  17.3749  18.4255

          k = 0.6555-0.3785-0.2731 (  3327 PWs)   bands (ev):

   -33.5957   1.0216   1.8669   3.7092   6.6622   7.4679  10.9026  14.7972
    15.7693  18.0860  18.1979  19.0694

          k = 0.4916-0.4731-0.2185 (  3320 PWs)   bands (ev):

   -33.5954   0.6764   2.6198   3.8726   5.7580   7.7940  11.8861  12.6115
    15.1167  17.5076  18.4864  19.2312

          k = 0.4916-0.2838-0.1639 (  3325 PWs)   bands (ev):

   -33.5959  -0.3494   3.8552   4.3793   6.9345   7.1973  11.0701  12.6202
    13.1942  16.7901  20.0092  20.5593

          k = 0.0000-0.0000 0.3277 (  3320 PWs)   bands (ev):

   -33.6000  -1.9026   2.4741   9.4156   9.4156  11.5266  11.9371  11.9371
    13.6920  14.0341  14.0341  16.7059

          k =-0.1639-0.0946 0.3824 (  3331 PWs)   bands (ev):

   -33.5990  -1.3676   2.0624   6.8775   9.0816  11.4476  11.9951  13.5210
    13.6125  14.5661  15.3633  17.2194

          k = 0.8194 0.4731 0.0546 (  3324 PWs)   bands (ev):

   -33.5972  -0.3553   2.1766   4.2787   7.8855  10.6919  12.2391  13.0489
    14.2586  15.5343  16.0225  17.3260

          k = 0.6555 0.3785 0.1092 (  3326 PWs)   bands (ev):

   -33.5958   0.5310   2.6354   3.0400   7.1308   9.2670  11.5368  12.4815
    13.0989  16.3365  18.6433  20.0801

          k =-0.1639 0.0946 0.4370 (  3322 PWs)   bands (ev):

   -33.5989  -1.0330   1.4560   7.4054   8.1268  10.7948  12.6596  13.2073
    13.7729  16.0336  16.9629  17.7866

          k = 0.8194 0.6623 0.1092 (  3331 PWs)   bands (ev):

   -33.5976  -0.1945   1.3825   5.2626   7.1609  11.1211  12.3144  13.3351
    14.5656  16.2479  17.0493  17.7664

          k = 0.6555 0.5677 0.1639 (  3322 PWs)   bands (ev):

   -33.5960   0.9034   1.8823   3.3224   6.2188  10.0334  11.8349  12.7869
    15.5884  15.8237  17.9861  18.8076

          k = 0.8194-0.4731-0.2185 (  3315 PWs)   bands (ev):

   -33.5971   0.3794   1.1543   4.5542   7.2942   9.8454  11.8116  14.2155
    15.8325  16.0973  17.2451  18.1058

          k =-0.0000 0.0000 0.4916 (  3329 PWs)   bands (ev):

   -33.5997  -0.9260   0.6893   9.2224   9.2224  11.4238  11.4238  11.5197
    15.4288  15.9429  15.9429  18.3065

          k = 0.9833 0.5677 0.1639 (  3342 PWs)   bands (ev):

   -33.5988  -0.3495   0.5054   6.9744   8.4209  11.0708  12.5669  13.6437
    14.6864  15.2836  16.2025  17.4658

     the Fermi energy is    12.6332 ev

!    total energy              =     -39.53006905 Ry
     estimated scf accuracy    <          3.8E-10 Ry
     smearing contrib. (-TS)   =       0.00044074 Ry
     internal energy E=F+TS    =     -39.53050978 Ry

     The total energy is F=E-TS. E is the sum of the following terms:
     one-electron contribution =       9.17122622 Ry
     hartree contribution      =       3.53024671 Ry
     xc contribution           =     -13.47011697 Ry
     ewald contribution        =     -38.76186574 Ry

     convergence has been achieved in   6 iterations

     Forces acting on atoms (cartesian axes, Ry/au):

     atom    1 type  1   force =    -0.00000000    0.00000000    0.00597562
     atom    2 type  1   force =    -0.00000000    0.00000000    0.02647451
     atom    3 type  1   force =    -0.00000000   -0.00000000   -0.00147824
     atom    4 type  2   force =    -0.00000000   -0.00000000   -0.03097189
     The non-local contrib.  to forces
     atom    1 type  1   force =     0.00000000    0.00000000   -0.00965204
     atom    2 type  1   force =     0.00000000   -0.00000000    0.00734907
     atom    3 type  1   force =     0.00000000    0.00000000    0.07783419
     atom    4 type  2   force =    -0.00000000   -0.00000000   -0.03357204
     The ionic contribution  to forces
     atom    1 type  1   force =     0.00000000   -0.00000000    0.48054437
     atom    2 type  1   force =    -0.00000000   -0.00000000    0.13002360
     atom    3 type  1   force =     0.00000000    0.00000000   -0.19757613
     atom    4 type  2   force =     0.00000000   -0.00000000   -0.41299184
     The local contribution  to forces
     atom    1 type  1   force =    -0.00000000    0.00000000   -0.46556284
     atom    2 type  1   force =     0.00000000   -0.00000000   -0.10858324
     atom    3 type  1   force =    -0.00000000   -0.00000000    0.12207828
     atom    4 type  2   force =    -0.00000000   -0.00000000    0.41559604
     The core correction contribution to forces
     atom    1 type  1   force =    -0.00000000    0.00000000    0.00064694
     atom    2 type  1   force =     0.00000000    0.00000000   -0.00230602
     atom    3 type  1   force =    -0.00000000   -0.00000000   -0.00381068
     atom    4 type  2   force =     0.00000000    0.00000000    0.00000000
     The Hubbard contrib.    to forces
     atom    1 type  1   force =     0.00000000    0.00000000    0.00000000
     atom    2 type  1   force =     0.00000000    0.00000000    0.00000000
     atom    3 type  1   force =     0.00000000    0.00000000    0.00000000
     atom    4 type  2   force =     0.00000000    0.00000000    0.00000000
     The SCF correction term to forces
     atom    1 type  1   force =    -0.00000000   -0.00000000    0.00000258
     atom    2 type  1   force =    -0.00000000    0.00000000   -0.00000551
     atom    3 type  1   force =    -0.00000000    0.00000000   -0.00000053
     atom    4 type  2   force =     0.00000000   -0.00000000   -0.00000066

     Total force =     0.041207     Total SCF correction =     0.000006


     Computing stress (Cartesian axis) and pressure

          total   stress  (Ry/bohr**3)                   (kbar)     P=      491.34
   0.00336658   0.00000000  -0.00000000          495.24        0.00       -0.00
  -0.00000000   0.00336658   0.00000000           -0.00      495.24        0.00
  -0.00000000   0.00000000   0.00328703           -0.00        0.00      483.54

     Energy error            =      5.8E-03 Ry
     Gradient error          =      3.1E-02 Ry/Bohr
     Cell gradient error     =      1.6E+01 kbar

     number of scf cycles    =   3
     number of bfgs steps    =   2

     enthalpy           old  =     -38.5651056736 Ry
     enthalpy           new  =     -38.5708752686 Ry

     CASE: enthalpy          _new < enthalpy          _old

     new trust radius        =       0.0675114215 bohr
ibrav =      5
 celldm(1) =      7.91606236
 celldm(4) =      0.62267648
Input lattice vectors:
     0.43556983    -0.25147636     0.86755604
     0.00000000     0.50295272     0.86755604
    -0.43556983    -0.25147636     0.86755604
New lattice vectors in INITIAL alat:
     0.43556983    -0.25147636     0.86755604
     0.00000000     0.50295272     0.86755604
    -0.43556983    -0.25147636     0.86755604
New lattice vectors in NEW alat (for information only):
     0.43435211    -0.25077331     0.86513062
     0.00000000     0.50154662     0.86513062
    -0.43435211    -0.25077331     0.86513062
Discrepancy in bohr =     0.000000    0.000000    0.000000
     new conv_thr            =       0.0000000031 Ry

     new unit-cell volume =    280.46832 a.u.^3 (    41.56112 Ang^3 )
     density =      3.64372 g/cm^3

CELL_PARAMETERS (alat=  7.89393151)
   0.435569832  -0.251476360   0.867556036
   0.000000000   0.502952720   0.867556036
  -0.435569832  -0.251476360   0.867556036

ATOMIC_POSITIONS (crystal)
Si            0.1176053659        0.1176053659        0.1176053659
Si            0.3346454261        0.3346454261        0.3346454261
Si            0.8858768124        0.8858768124        0.8858768124
Li            0.6855625656        0.6855625656        0.6855625656



     Writing config-only to output data dir ./output/SiLi.save/
     NEW-OLD atomic charge density approx. for the potential
     extrapolated charge   14.90718, renormalised to   15.00000

     total cpu time spent up to now is       21.0 secs

     Self-consistent Calculation

     iteration #  1     ecut=    80.00 Ry     beta= 0.70
     Davidson diagonalization with overlap
     c_bands:  1 eigenvalues not converged
     ethr =  1.00E-06,  avg # of iterations =  8.0

     total cpu time spent up to now is       22.3 secs

     total energy              =     -39.52740142 Ry
     estimated scf accuracy    <       0.00012011 Ry

     iteration #  2     ecut=    80.00 Ry     beta= 0.70
     Davidson diagonalization with overlap
     ethr =  8.01E-07,  avg # of iterations =  2.3

     total cpu time spent up to now is       22.9 secs

     total energy              =     -39.52745036 Ry
     estimated scf accuracy    <       0.00002518 Ry

     iteration #  3     ecut=    80.00 Ry     beta= 0.70
     Davidson diagonalization with overlap
     ethr =  1.68E-07,  avg # of iterations =  1.1

     total cpu time spent up to now is       23.4 secs

     total energy              =     -39.52745251 Ry
     estimated scf accuracy    <       0.00000156 Ry

     iteration #  4     ecut=    80.00 Ry     beta= 0.70
     Davidson diagonalization with overlap
     ethr =  1.04E-08,  avg # of iterations =  2.0

     total cpu time spent up to now is       24.0 secs

     total energy              =     -39.52745280 Ry
     estimated scf accuracy    <       0.00000014 Ry

     iteration #  5     ecut=    80.00 Ry     beta= 0.70
     Davidson diagonalization with overlap
     ethr =  9.45E-10,  avg # of iterations =  2.4

     total cpu time spent up to now is       24.6 secs

     total energy              =     -39.52745284 Ry
     estimated scf accuracy    <       0.00000002 Ry

     iteration #  6     ecut=    80.00 Ry     beta= 0.70
     Davidson diagonalization with overlap
     ethr =  1.10E-10,  avg # of iterations =  2.1

     total cpu time spent up to now is       25.1 secs

     End of self-consistent calculation

          k = 0.0000 0.0000 0.0000 (  3337 PWs)   bands (ev):

   -33.5258  -2.6630   7.2800   7.4944  10.3394  10.3394  11.4830  11.4830
    12.9803  14.3279  14.3279  15.5018

          k =-0.1640-0.0947 0.0549 (  3326 PWs)   bands (ev):

   -33.5249  -2.3907   6.6839   7.7457   8.6119   9.6345  11.0056  11.6212
    13.5915  14.1092  14.6982  15.7273

          k =-0.3280-0.1894 0.1098 (  3314 PWs)   bands (ev):

   -33.5229  -1.5941   4.8419   6.4983   8.9838   9.5075  10.0193  10.5053
    13.0169  14.4914  16.1008  18.2101

          k =-0.4920-0.2840 0.1647 (  3333 PWs)   bands (ev):

   -33.5213  -0.4528   2.6044   6.5967   8.5561   8.7814   9.6295  10.8218
    13.0327  14.7929  17.3911  19.0609

          k =-0.1640 0.0947 0.1098 (  3323 PWs)   bands (ev):

   -33.5248  -2.3209   5.8359   8.6157   8.7764   9.0384  10.3779  12.6326
    13.1582  15.0168  15.0253  16.5748

          k =-0.3280-0.0000 0.1647 (  3322 PWs)   bands (ev):

   -33.5233  -1.7136   5.4187   5.9686   8.2263   8.7715  11.1143  12.4821
    13.0601  15.0927  15.8660  17.9223

          k =-0.4920-0.0947 0.2196 (  3335 PWs)   bands (ev):

   -33.5215  -0.6405   3.4319   5.4824   7.6821   8.1719  10.7002  12.6596
    14.5711  15.1388  15.9536  17.9212

          k = 0.4920 0.4734-0.1098 (  3330 PWs)   bands (ev):

   -33.5208   0.0957   2.2893   5.8661   7.3650   8.1867   9.8724  12.3391
    14.0819  15.4593  17.6647  19.0170

          k = 0.3280 0.3787-0.0549 (  3315 PWs)   bands (ev):

   -33.5217  -0.9466   3.9880   6.3825   7.4910   8.8756   9.3605  11.0550
    13.7151  15.7508  16.7227  20.1312

          k = 0.1640 0.2840 0.0000 (  3321 PWs)   bands (ev):

   -33.5235  -1.9187   6.3786   7.2180   7.7760   8.3924  10.2163  11.0926
    13.3941  14.7373  16.4120  17.2332

          k =-0.3280 0.1894 0.2196 (  3323 PWs)   bands (ev):

   -33.5227  -1.2988   4.7023   6.2737   7.1558   7.3772  11.3430  12.6695
    14.3740  17.3397  17.3941  18.7247

          k =-0.4920 0.0947 0.2744 (  3328 PWs)   bands (ev):

   -33.5214  -0.3742   3.9147   4.8138   6.2894   7.2296  12.3214  13.1865
    14.7417  16.7289  17.7332  19.2215

          k = 0.4920 0.6628-0.0549 (  3317 PWs)   bands (ev):

   -33.5205   0.8052   2.3974   4.3610   6.1769   7.2830  12.0189  13.7699
    15.0460  16.1232  17.7975  19.0601

          k = 0.3280 0.5681 0.0000 (  3326 PWs)   bands (ev):

   -33.5206   0.1672   3.0439   4.6508   6.7952   7.8104  10.7232  11.8578
    15.5206  16.7461  17.9016  18.9599

          k =-0.4920 0.2840 0.3293 (  3336 PWs)   bands (ev):

   -33.5210   0.3580   2.7642   5.0975   5.9676   6.6617  10.8785  15.6925
    15.7157  17.7011  18.4525  19.4887

          k = 0.4920 0.8521 0.0000 (  3324 PWs)   bands (ev):

   -33.5206   1.3236   1.8810   4.6333   5.5647   6.7982  12.1011  14.6702
    15.1539  18.0325  18.3153  19.6393

          k =-0.0000 0.0000 0.1647 (  3349 PWs)   bands (ev):

   -33.5256  -2.4568   4.8070   9.9299   9.9299  10.1237  12.1373  12.1373
    12.8828  13.5045  13.5045  15.8911

          k =-0.1640-0.0947 0.2196 (  3333 PWs)   bands (ev):

   -33.5246  -2.0486   4.2489   7.2091  10.1511  10.9666  11.0590  12.4183
    13.4217  13.4481  15.1191  16.0471

          k =-0.3280-0.1894 0.2744 (  3321 PWs)   bands (ev):

   -33.5226  -1.1313   4.0454   4.5937   8.9486  10.5542  11.0824  11.6514
    13.8305  15.4216  15.6175  17.0630

          k = 0.6560 0.3787-0.0549 (  3337 PWs)   bands (ev):

   -33.5211  -0.0333   2.4299   4.7774   8.0797  10.3276  10.6072  10.8820
    13.0588  15.0389  17.8494  18.7046

          k = 0.4920 0.2840 0.0000 (  3329 PWs)   bands (ev):

   -33.5213  -0.5447   3.2243   5.7644   7.7541   9.3473   9.9171  11.1970
    12.0169  15.2408  19.7834  20.1670

          k = 0.3280 0.1894 0.0549 (  3325 PWs)   bands (ev):

   -33.5229  -1.6502   5.6527   6.9462   7.8912   7.9941   9.7455  12.1159
    12.2636  15.5980  16.9651  18.6571

          k =-0.1640 0.0947 0.2744 (  3323 PWs)   bands (ev):

   -33.5245  -1.8402   3.4999   8.2111   8.2911  10.1428  12.0676  12.6220
    14.1110  14.9905  15.1813  17.6436

          k =-0.3280 0.0000 0.3293 (  3332 PWs)   bands (ev):

   -33.5230  -1.1009   3.2480   5.5350   7.7776   9.6599  12.6740  13.2699
    14.2160  15.3844  16.6481  17.7977

          k = 0.6560 0.5681 0.0000 (  3329 PWs)   bands (ev):

   -33.5214   0.0481   3.1683   3.5706   6.8892   9.4938  12.3034  13.1584
    14.0557  15.3387  16.5584  18.7461

          k = 0.4920 0.4734 0.0549 (  3326 PWs)   bands (ev):

   -33.5207   0.3039   2.8025   4.2781   6.4731   9.4001  10.6482  12.1978
    13.2692  16.8024  18.9201  19.8038

          k = 0.3280 0.3787 0.1098 (  3321 PWs)   bands (ev):

   -33.5216  -0.8583   4.5800   5.6168   6.4462   8.2252  10.6215  12.0002
    13.1103  17.0841  17.5352  19.0191

          k =-0.3280 0.1894 0.3842 (  3312 PWs)   bands (ev):

   -33.5224  -0.5459   2.7298   5.2948   7.1667   8.5177  11.2851  15.4311
    15.6795  17.3304  18.0561  18.3780

          k = 0.6560 0.7574 0.0549 (  3319 PWs)   bands (ev):

   -33.5213   0.4909   2.5553   3.8776   6.1249   8.4635  12.3102  14.1295
    15.8453  16.2379  18.4434  18.9188

          k = 0.4920 0.6628 0.1098 (  3314 PWs)   bands (ev):

   -33.5204   1.4648   2.0911   3.5565   5.5090   8.6189  11.3259  14.7197
    14.9981  15.9361  17.7941  19.5294

          k = 0.3280 0.5681 0.1647 (  3315 PWs)   bands (ev):

   -33.5206   0.3326   2.7651   5.1331   5.7718   8.2881   9.9871  13.9385
    15.2931  16.3724  17.4888  18.4824

          k = 0.6560-0.3787-0.2744 (  3327 PWs)   bands (ev):

   -33.5209   1.1473   1.9125   3.7667   6.7291   7.5441  10.9966  14.9003
    15.9234  18.2310  18.2981  19.2311

          k = 0.4920-0.4734-0.2196 (  3320 PWs)   bands (ev):

   -33.5206   0.7669   2.7343   3.8875   5.8021   7.9301  11.9845  12.6944
    15.2821  17.6160  18.6121  19.3322

          k = 0.4920-0.2840-0.1647 (  3325 PWs)   bands (ev):

   -33.5211  -0.2752   4.0054   4.3841   7.0057   7.2919  11.1556  12.7873
    13.2896  16.8653  20.1944  20.7748

          k =-0.0000 0.0000 0.3293 (  3320 PWs)   bands (ev):

   -33.5252  -1.8415   2.5758   9.5072   9.5072  11.6491  11.9942  11.9942
    13.8736  14.1161  14.1161  16.9007

          k =-0.1640-0.0947 0.3842 (  3331 PWs)   bands (ev):

   -33.5242  -1.3012   2.1566   6.9544   9.1817  11.5134  12.0401  13.6204
    13.6868  14.7201  15.5689  17.3874

          k = 0.8199 0.4734 0.0549 (  3324 PWs)   bands (ev):

   -33.5224  -0.2740   2.2546   4.3487   7.9698  10.7268  12.3119  13.2717
    14.3686  15.5953  16.1379  17.4392

          k = 0.6560 0.3787 0.1098 (  3326 PWs)   bands (ev):

   -33.5210   0.6342   2.6558   3.1421   7.2066   9.3346  11.6774  12.5666
    13.2435  16.4330  18.6978  20.2000

          k =-0.1640 0.0947 0.4391 (  3322 PWs)   bands (ev):

   -33.5241  -0.9629   1.5444   7.4990   8.2006  10.8195  12.7956  13.2599
    13.8770  16.2039  17.1064  17.9144

          k = 0.8199 0.6628 0.1098 (  3331 PWs)   bands (ev):

   -33.5228  -0.1101   1.4580   5.3410   7.2175  11.2125  12.3813  13.4182
    14.7221  16.3260  17.2180  17.9189

          k = 0.6560 0.5681 0.1647 (  3322 PWs)   bands (ev):

   -33.5212   1.0280   1.9298   3.3786   6.2675  10.1685  11.9185  12.8784
    15.6741  15.9655  18.0783  18.9841

          k = 0.8199-0.4734-0.2196 (  3315 PWs)   bands (ev):

   -33.5223   0.4894   1.2049   4.6249   7.3655   9.8817  11.9630  14.2939
    15.9462  16.1807  17.4161  18.2175

          k =-0.0000 0.0000 0.4940 (  3329 PWs)   bands (ev):

   -33.5248  -0.8556   0.7740   9.3194   9.3194  11.4536  11.4536  11.6298
    15.5635  16.0527  16.0527  18.6057

          k = 0.9839 0.5681 0.1647 (  3342 PWs)   bands (ev):

   -33.5240  -0.2677   0.5792   7.0561   8.5029  11.1099  12.6098  13.7539
    14.8401  15.3916  16.3445  17.6191

     the Fermi energy is    12.7438 ev

!    total energy              =     -39.52745284 Ry
     estimated scf accuracy    <          1.1E-10 Ry
     smearing contrib. (-TS)   =       0.00046493 Ry
     internal energy E=F+TS    =     -39.52791777 Ry

     The total energy is F=E-TS. E is the sum of the following terms:
     one-electron contribution =       9.38937385 Ry
     hartree contribution      =       3.47480506 Ry
     xc contribution           =     -13.48105251 Ry
     ewald contribution        =     -38.91104416 Ry

     convergence has been achieved in   6 iterations

     Forces acting on atoms (cartesian axes, Ry/au):

     atom    1 type  1   force =     0.00000000   -0.00000000   -0.01225200
     atom    2 type  1   force =    -0.00000000    0.00000000    0.02861644
     atom    3 type  1   force =    -0.00000000    0.00000000    0.01516532
     atom    4 type  2   force =     0.00000000    0.00000000   -0.03152976
     The non-local contrib.  to forces
     atom    1 type  1   force =     0.00000000    0.00000000   -0.02242273
     atom    2 type  1   force =     0.00000000   -0.00000000    0.00750887
     atom    3 type  1   force =    -0.00000000    0.00000000    0.09539953
     atom    4 type  2   force =     0.00000000    0.00000000   -0.03079352
     The ionic contribution  to forces
     atom    1 type  1   force =     0.00000000   -0.00000000    0.38658248
     atom    2 type  1   force =    -0.00000000   -0.00000000    0.16881844
     atom    3 type  1   force =     0.00000000    0.00000000   -0.11213884
     atom    4 type  2   force =     0.00000000   -0.00000000   -0.44326208
     The local contribution  to forces
     atom    1 type  1   force =    -0.00000000    0.00000000   -0.37823433
     atom    2 type  1   force =     0.00000000   -0.00000000   -0.14536934
     atom    3 type  1   force =    -0.00000000   -0.00000000    0.03718541
     atom    4 type  2   force =    -0.00000000    0.00000000    0.44252799
     The core correction contribution to forces
     atom    1 type  1   force =    -0.00000000    0.00000000    0.00182047
     atom    2 type  1   force =    -0.00000000    0.00000000   -0.00233824
     atom    3 type  1   force =    -0.00000000   -0.00000000   -0.00527982
     atom    4 type  2   force =     0.00000000    0.00000000    0.00000000
     The Hubbard contrib.    to forces
     atom    1 type  1   force =     0.00000000    0.00000000    0.00000000
     atom    2 type  1   force =     0.00000000    0.00000000    0.00000000
     atom    3 type  1   force =     0.00000000    0.00000000    0.00000000
     atom    4 type  2   force =     0.00000000    0.00000000    0.00000000
     The SCF correction term to forces
     atom    1 type  1   force =     0.00000000    0.00000000    0.00000230
     atom    2 type  1   force =    -0.00000000   -0.00000000   -0.00000309
     atom    3 type  1   force =    -0.00000000    0.00000000   -0.00000076
     atom    4 type  2   force =     0.00000000   -0.00000000   -0.00000195

     Total force =     0.046831     Total SCF correction =     0.000004


     Computing stress (Cartesian axis) and pressure

          total   stress  (Ry/bohr**3)                   (kbar)     P=      501.26
   0.00350438   0.00000000   0.00000000          515.51        0.00        0.00
  -0.00000000   0.00350438   0.00000000           -0.00      515.51        0.00
  -0.00000000   0.00000000   0.00321375           -0.00        0.00      472.76

     Energy error            =      3.3E-03 Ry
     Gradient error          =      3.2E-02 Ry/Bohr
     Cell gradient error     =      2.7E+01 kbar

     number of scf cycles    =   4
     number of bfgs steps    =   3

     enthalpy           old  =     -38.5708752686 Ry
     enthalpy           new  =     -38.5741604107 Ry

     CASE: enthalpy          _new < enthalpy          _old

     new trust radius        =       0.1007804683 bohr
ibrav =      5
 celldm(1) =      7.86089437
 celldm(4) =      0.61574027
Input lattice vectors:
     0.43649176    -0.25200863     0.85884448
    -0.00000000     0.50401727     0.85884448
    -0.43649176    -0.25200863     0.85884448
New lattice vectors in INITIAL alat:
     0.43649176    -0.25200863     0.85884448
     0.00000000     0.50401727     0.85884448
    -0.43649176    -0.25200863     0.85884448
New lattice vectors in NEW alat (for information only):
     0.43832621    -0.25306776     0.86245397
     0.00000000     0.50613551     0.86245397
    -0.43832621    -0.25306776     0.86245397
Discrepancy in bohr =     0.000000    0.000000    0.000000
     new conv_thr            =       0.0000000032 Ry

     new unit-cell volume =    278.82859 a.u.^3 (    41.31813 Ang^3 )
     density =      3.66515 g/cm^3

CELL_PARAMETERS (alat=  7.89393151)
   0.436491758  -0.252008634   0.858844484
   0.000000000   0.504017267   0.858844484
  -0.436491758  -0.252008634   0.858844484

ATOMIC_POSITIONS (crystal)
Si            0.1203366134        0.1203366134        0.1203366134
Si            0.3386204895        0.3386204895        0.3386204895
Si            0.8840757863        0.8840757863        0.8840757863
Li            0.6806572808        0.6806572808        0.6806572808



     Writing config-only to output data dir ./output/SiLi.save/
     NEW-OLD atomic charge density approx. for the potential
     extrapolated charge   14.91183, renormalised to   15.00000

     total cpu time spent up to now is       26.4 secs

     Self-consistent Calculation

     iteration #  1     ecut=    80.00 Ry     beta= 0.70
     Davidson diagonalization with overlap
     ethr =  1.00E-06,  avg # of iterations =  8.9

     total cpu time spent up to now is       27.7 secs

     total energy              =     -39.52663221 Ry
     estimated scf accuracy    <       0.00020942 Ry

     iteration #  2     ecut=    80.00 Ry     beta= 0.70
     Davidson diagonalization with overlap
     ethr =  1.40E-06,  avg # of iterations =  2.0

     total cpu time spent up to now is       28.3 secs

     total energy              =     -39.52667668 Ry
     estimated scf accuracy    <       0.00003800 Ry

     iteration #  3     ecut=    80.00 Ry     beta= 0.70
     Davidson diagonalization with overlap
     ethr =  2.53E-07,  avg # of iterations =  2.0

     total cpu time spent up to now is       28.8 secs

     total energy              =     -39.52668302 Ry
     estimated scf accuracy    <       0.00000278 Ry

     iteration #  4     ecut=    80.00 Ry     beta= 0.70
     Davidson diagonalization with overlap
     ethr =  1.86E-08,  avg # of iterations =  2.0

     total cpu time spent up to now is       29.3 secs

     total energy              =     -39.52668356 Ry
     estimated scf accuracy    <       0.00000013 Ry

     iteration #  5     ecut=    80.00 Ry     beta= 0.70
     Davidson diagonalization with overlap
     ethr =  8.75E-10,  avg # of iterations =  2.1

     total cpu time spent up to now is       29.8 secs

     total energy              =     -39.52668359 Ry
     estimated scf accuracy    <          6.2E-09 Ry

     iteration #  6     ecut=    80.00 Ry     beta= 0.70
     Davidson diagonalization with overlap
     ethr =  4.16E-11,  avg # of iterations =  3.3

     total cpu time spent up to now is       30.4 secs

     End of self-consistent calculation

          k = 0.0000 0.0000 0.0000 (  3337 PWs)   bands (ev):

   -33.4430  -2.6193   7.4201   7.8508  10.3883  10.3883  11.5134  11.5134
    13.0346  14.4163  14.4163  15.6177

          k =-0.1636-0.0945 0.0554 (  3326 PWs)   bands (ev):

   -33.4422  -2.3463   6.8862   7.8104   8.8772   9.6902  11.0712  11.6792
    13.7048  14.1172  14.6219  15.8223

          k =-0.3273-0.1890 0.1109 (  3314 PWs)   bands (ev):

   -33.4402  -1.5465   4.8637   6.7189   9.0634   9.6571  10.1943  10.5451
    13.1289  14.4913  16.0788  18.2984

          k =-0.4909-0.2834 0.1663 (  3333 PWs)   bands (ev):

   -33.4386  -0.3936   2.6157   6.8075   8.6925   8.9090   9.6205  10.8555
    13.2813  14.9439  17.5740  19.0200

          k =-0.1636 0.0945 0.1109 (  3323 PWs)   bands (ev):

   -33.4421  -2.2752   6.0387   8.7108   8.8044   9.1839  10.5284  12.6762
    13.2282  15.0384  15.1349  16.6631

          k =-0.3273-0.0000 0.1663 (  3322 PWs)   bands (ev):

   -33.4406  -1.6645   5.5825   6.0350   8.2362   8.8983  11.3683  12.5898
    13.0675  15.1655  15.8400  18.0019

          k =-0.4909-0.0945 0.2218 (  3335 PWs)   bands (ev):

   -33.4389  -0.5834   3.4542   5.6516   7.6629   8.3526  10.8430  12.7900
    14.6980  15.1930  16.1033  18.0180

          k = 0.4909 0.4724-0.1109 (  3330 PWs)   bands (ev):

   -33.4381   0.1618   2.3062   5.9868   7.4153   8.3570  10.0036  12.4416
    14.3054  15.5435  17.8251  18.9856

          k = 0.3273 0.3779-0.0554 (  3315 PWs)   bands (ev):

   -33.4390  -0.8979   4.0308   6.4346   7.6612   9.0043   9.5454  11.1995
    13.7733  15.7555  16.7397  20.2875

          k = 0.1636 0.2834 0.0000 (  3321 PWs)   bands (ev):

   -33.4408  -1.8740   6.4386   7.2630   7.9843   8.6292  10.3620  11.1329
    13.4046  14.8013  16.2831  17.3994

          k =-0.3273 0.1890 0.2218 (  3323 PWs)   bands (ev):

   -33.4400  -1.2460   4.8700   6.3686   7.1775   7.3967  11.3825  12.9718
    14.4924  17.3874  17.4874  18.8365

          k =-0.4909 0.0945 0.2772 (  3328 PWs)   bands (ev):

   -33.4387  -0.3142   4.0329   4.8760   6.2632   7.3891  12.3385  13.3637
    14.9774  16.8545  17.9026  19.2147

          k = 0.4909 0.6614-0.0554 (  3317 PWs)   bands (ev):

   -33.4378   0.8776   2.4629   4.3809   6.1968   7.4980  12.1913  13.9691
    15.0302  16.2604  17.9447  19.0905

          k = 0.3273 0.5669 0.0000 (  3326 PWs)   bands (ev):

   -33.4379   0.2223   3.1285   4.6351   6.8639   8.0313  10.9066  12.0557
    15.5234  16.7995  17.8872  18.9350

          k =-0.4909 0.2834 0.3327 (  3336 PWs)   bands (ev):

   -33.4383   0.4280   2.8520   5.1734   6.0537   6.6777  10.9211  15.8435
    15.9934  17.9267  18.6357  19.7050

          k = 0.4909 0.8503 0.0000 (  3324 PWs)   bands (ev):

   -33.4379   1.4154   1.9472   4.6631   5.5795   6.9603  12.1160  14.8601
    15.3447  18.2585  18.5201  19.7840

          k =-0.0000 0.0000 0.1663 (  3349 PWs)   bands (ev):

   -33.4428  -2.4090   5.0000   9.9655   9.9655  10.3962  12.1900  12.1900
    12.9610  13.5311  13.5311  16.0057

          k =-0.1636-0.0945 0.2218 (  3333 PWs)   bands (ev):

   -33.4419  -1.9971   4.4236   7.2375  10.2622  10.9676  11.2819  12.5046
    13.4003  13.5490  15.1936  16.1052

          k =-0.3273-0.1890 0.2772 (  3321 PWs)   bands (ev):

   -33.4399  -1.0729   4.1076   4.7149   9.0293  10.5917  11.1438  11.8114
    14.0248  15.5796  15.6000  17.2104

          k = 0.6546 0.3779-0.0554 (  3337 PWs)   bands (ev):

   -33.4385   0.0397   2.4301   4.9345   8.1407  10.4703  10.6697  10.9272
    13.3641  15.1419  18.0723  18.6516

          k = 0.4909 0.2834 0.0000 (  3329 PWs)   bands (ev):

   -33.4386  -0.4916   3.2554   5.9036   7.8013   9.4906  10.1030  11.2788
    12.1655  15.2892  19.7754  20.4508

          k = 0.3273 0.1890 0.0554 (  3325 PWs)   bands (ev):

   -33.4402  -1.6044   5.7079   7.1243   8.0181   8.0301   9.9682  12.1803
    12.3595  15.5985  16.9928  18.7546

          k =-0.1636 0.0945 0.2772 (  3323 PWs)   bands (ev):

   -33.4417  -1.7847   3.6622   8.2849   8.3082  10.1548  12.1060  12.8992
    14.1059  15.0687  15.3359  17.7754

          k =-0.3273 0.0000 0.3327 (  3332 PWs)   bands (ev):

   -33.4403  -1.0386   3.3897   5.5710   7.8023   9.7494  12.6865  13.3638
    14.3671  15.5685  16.8600  17.8677

          k = 0.6546 0.5669 0.0000 (  3329 PWs)   bands (ev):

   -33.4387   0.1241   3.1784   3.7028   6.9107   9.6394  12.3382  13.3372
    14.2705  15.3568  16.6773  18.9517

          k = 0.4909 0.4724 0.0554 (  3326 PWs)   bands (ev):

   -33.4381   0.3686   2.8485   4.3593   6.5091   9.6228  10.7425  12.3516
    13.3924  16.8572  18.8894  19.8797

          k = 0.3273 0.3779 0.1109 (  3321 PWs)   bands (ev):

   -33.4389  -0.8087   4.6794   5.6234   6.5377   8.4134  10.7961  12.1254
    13.1933  17.1055  17.5080  19.2165

          k =-0.3273 0.1890 0.3881 (  3312 PWs)   bands (ev):

   -33.4397  -0.4764   2.8573   5.3454   7.1814   8.5609  11.3451  15.6899
    15.6913  17.6019  18.1945  18.4258

          k = 0.6546 0.7558 0.0554 (  3319 PWs)   bands (ev):

   -33.4386   0.5750   2.6588   3.9104   6.1268   8.6006  12.3307  14.2657
    16.0251  16.3332  18.7250  19.1363

          k = 0.4909 0.6614 0.1109 (  3314 PWs)   bands (ev):

   -33.4378   1.5454   2.1976   3.5375   5.5470   8.8297  11.4606  14.8596
    15.0482  15.9807  18.0310  19.6089

          k = 0.3273 0.5669 0.1663 (  3315 PWs)   bands (ev):

   -33.4379   0.3922   2.8315   5.1212   5.8634   8.5441  10.0833  14.1799
    15.2884  16.5504  17.5640  18.4890

          k = 0.6546-0.3779-0.2772 (  3327 PWs)   bands (ev):

   -33.4382   1.2621   1.9563   3.8255   6.7469   7.6343  11.0620  15.0517
    16.1414  18.3989  18.4513  19.4148

          k = 0.4909-0.4724-0.2218 (  3320 PWs)   bands (ev):

   -33.4379   0.8368   2.8448   3.8987   5.8205   8.1074  12.0662  12.7819
    15.5494  17.7810  18.6870  19.4076

          k = 0.4909-0.2834-0.1663 (  3325 PWs)   bands (ev):

   -33.4385  -0.2193   4.1478   4.3939   7.0305   7.4244  11.2165  13.0521
    13.4169  16.9405  20.4102  20.9821

          k =-0.0000 0.0000 0.3327 (  3320 PWs)   bands (ev):

   -33.4424  -1.7815   2.7267   9.5400   9.5400  11.7195  11.9919  11.9919
    14.1378  14.1856  14.1856  17.0641

          k =-0.1636-0.0945 0.3881 (  3331 PWs)   bands (ev):

   -33.4414  -1.2344   2.2912   6.9774   9.2312  11.5290  12.0537  13.6589
    13.7166  14.8831  15.8445  17.6107

          k = 0.8182 0.4724 0.0554 (  3324 PWs)   bands (ev):

   -33.4396  -0.1938   2.3584   4.3821   8.0078  10.7185  12.4007  13.5298
    14.5197  15.5606  16.3061  17.4756

          k = 0.6546 0.3779 0.1109 (  3326 PWs)   bands (ev):

   -33.4383   0.7259   2.6484   3.2684   7.2375   9.4021  11.8362  12.6787
    13.4534  16.5533  18.6479  20.2381

          k =-0.1636 0.0945 0.4436 (  3322 PWs)   bands (ev):

   -33.4413  -0.8894   1.6675   7.5429   8.2176  10.7887  12.9247  13.2469
    13.9189  16.4279  17.2524  18.0866

          k = 0.8182 0.6614 0.1109 (  3331 PWs)   bands (ev):

   -33.4400  -0.0228   1.5600   5.3745   7.2280  11.3003  12.3855  13.4681
    14.9066  16.3699  17.4270  18.0758

          k = 0.6546 0.5669 0.1663 (  3322 PWs)   bands (ev):

   -33.4385   1.1519   1.9865   3.4077   6.2779  10.3366  12.0142  12.9386
    15.6876  16.1737  18.2146  19.1850

          k = 0.8182-0.4724-0.2218 (  3315 PWs)   bands (ev):

   -33.4395   0.6020   1.2772   4.6589   7.3860   9.8866  12.1244  14.3849
    16.0457  16.1981  17.5619  18.3936

          k =-0.0000 0.0000 0.4990 (  3329 PWs)   bands (ev):

   -33.4420  -0.7767   0.8898   9.3571   9.3571  11.4192  11.4192  11.6496
    15.7066  16.1664  16.1664  19.0254

          k = 0.9819 0.5669 0.1663 (  3342 PWs)   bands (ev):

   -33.4412  -0.1781   0.6807   7.0845   8.5303  11.0844  12.5915  13.7882
    15.0019  15.5049  16.4973  17.8236

     the Fermi energy is    12.8583 ev

!    total energy              =     -39.52668359 Ry
     estimated scf accuracy    <          2.5E-10 Ry
     smearing contrib. (-TS)   =       0.00051157 Ry
     internal energy E=F+TS    =     -39.52719517 Ry

     The total energy is F=E-TS. E is the sum of the following terms:
     one-electron contribution =       9.63879864 Ry
     hartree contribution      =       3.40162071 Ry
[...]
        k(   11) = (  -0.3099615   0.1789563   0.2530014), wk =   0.0349854
        k(   12) = (  -0.4649422   0.0894782   0.3162518), wk =   0.0699708
        k(   13) = (   0.4649422   0.6263472  -0.0632504), wk =   0.0699708
        k(   14) = (   0.3099615   0.5368690   0.0000000), wk =   0.0349854
        k(   15) = (  -0.4649422   0.2684345   0.3795022), wk =   0.0349854
        k(   16) = (   0.4649422   0.8053036   0.0000000), wk =   0.0349854
        k(   17) = (   0.0000000  -0.0000000   0.1897511), wk =   0.0116618
        k(   18) = (  -0.1549807  -0.0894782   0.2530014), wk =   0.0349854
        k(   19) = (  -0.3099615  -0.1789563   0.3162518), wk =   0.0349854
        k(   20) = (   0.6199230   0.3579127  -0.0632504), wk =   0.0349854
        k(   21) = (   0.4649422   0.2684345   0.0000000), wk =   0.0349854
        k(   22) = (   0.3099615   0.1789563   0.0632504), wk =   0.0349854
        k(   23) = (  -0.1549807   0.0894782   0.3162518), wk =   0.0349854
        k(   24) = (  -0.3099615  -0.0000000   0.3795022), wk =   0.0699708
        k(   25) = (   0.6199230   0.5368690   0.0000000), wk =   0.0699708
        k(   26) = (   0.4649422   0.4473909   0.0632504), wk =   0.0699708
        k(   27) = (   0.3099615   0.3579127   0.1265007), wk =   0.0699708
        k(   28) = (  -0.3099615   0.1789563   0.4427525), wk =   0.0349854
        k(   29) = (   0.6199230   0.7158254   0.0632504), wk =   0.0699708
        k(   30) = (   0.4649422   0.6263472   0.1265007), wk =   0.0699708
        k(   31) = (   0.3099615   0.5368690   0.1897511), wk =   0.0699708
        k(   32) = (   0.6199230  -0.3579127  -0.3162518), wk =   0.0349854
        k(   33) = (   0.4649422  -0.4473909  -0.2530014), wk =   0.0699708
        k(   34) = (   0.4649422  -0.2684345  -0.1897511), wk =   0.0349854
        k(   35) = (   0.0000000  -0.0000000   0.3795022), wk =   0.0116618
        k(   36) = (  -0.1549807  -0.0894782   0.4427525), wk =   0.0349854
        k(   37) = (   0.7749037   0.4473909   0.0632504), wk =   0.0349854
        k(   38) = (   0.6199230   0.3579127   0.1265007), wk =   0.0349854
        k(   39) = (  -0.1549807   0.0894782   0.5060029), wk =   0.0349854
        k(   40) = (   0.7749037   0.6263472   0.1265007), wk =   0.0699708
        k(   41) = (   0.6199230   0.5368690   0.1897511), wk =   0.0699708
        k(   42) = (   0.7749037  -0.4473909  -0.2530014), wk =   0.0349854
        k(   43) = (   0.0000000   0.0000000   0.5692532), wk =   0.0116618
        k(   44) = (   0.9298845   0.5368690   0.1897511), wk =   0.0349854

     Dense  grid:    26301 G-vectors     FFT dimensions: (  45,  45,  45)

     Estimated max dynamical RAM per process >      17.96 MB

     Estimated total dynamical RAM >     143.65 MB

     Initial potential from superposition of free atoms

     starting charge      14.9936, renormalised to      15.0000
     Starting wfcs are   14 randomized atomic wfcs

     total cpu time spent up to now is      122.3 secs

     Self-consistent Calculation

     iteration #  1     ecut=    80.00 Ry     beta= 0.70
     Davidson diagonalization with overlap
     c_bands:  1 eigenvalues not converged
     c_bands:  1 eigenvalues not converged
     c_bands:  1 eigenvalues not converged
     c_bands:  1 eigenvalues not converged
     c_bands:  1 eigenvalues not converged
     c_bands:  1 eigenvalues not converged
     c_bands:  2 eigenvalues not converged
     c_bands:  1 eigenvalues not converged
     c_bands:  1 eigenvalues not converged
     c_bands:  1 eigenvalues not converged
     c_bands:  1 eigenvalues not converged
     c_bands:  1 eigenvalues not converged
     c_bands:  1 eigenvalues not converged
     c_bands:  1 eigenvalues not converged
     c_bands:  1 eigenvalues not converged
     c_bands:  1 eigenvalues not converged
     c_bands:  2 eigenvalues not converged
     c_bands:  1 eigenvalues not converged
     c_bands:  1 eigenvalues not converged
     c_bands:  2 eigenvalues not converged
     c_bands:  1 eigenvalues not converged
     c_bands:  1 eigenvalues not converged
     ethr =  1.00E-06,  avg # of iterations = 18.0

     total cpu time spent up to now is      124.3 secs

     total energy              =     -39.57396830 Ry
     estimated scf accuracy    <       0.02058098 Ry

     iteration #  2     ecut=    80.00 Ry     beta= 0.70
     Davidson diagonalization with overlap
     ethr =  1.37E-04,  avg # of iterations =  1.0

     total cpu time spent up to now is      124.8 secs

     total energy              =     -39.57406291 Ry
     estimated scf accuracy    <       0.00123987 Ry

     iteration #  3     ecut=    80.00 Ry     beta= 0.70
     Davidson diagonalization with overlap
     ethr =  8.27E-06,  avg # of iterations =  1.5

     total cpu time spent up to now is      125.2 secs

     total energy              =     -39.57413284 Ry
     estimated scf accuracy    <       0.00000872 Ry

     iteration #  4     ecut=    80.00 Ry     beta= 0.70
     Davidson diagonalization with overlap
     ethr =  5.82E-08,  avg # of iterations =  4.4

     total cpu time spent up to now is      125.9 secs

     total energy              =     -39.57414324 Ry
     estimated scf accuracy    <       0.00000136 Ry

     iteration #  5     ecut=    80.00 Ry     beta= 0.70
     Davidson diagonalization with overlap
     ethr =  9.10E-09,  avg # of iterations =  2.0

     total cpu time spent up to now is      126.4 secs

     total energy              =     -39.57414352 Ry
     estimated scf accuracy    <       0.00000016 Ry

     iteration #  6     ecut=    80.00 Ry     beta= 0.70
     Davidson diagonalization with overlap
     ethr =  1.05E-09,  avg # of iterations =  2.0

     total cpu time spent up to now is      126.9 secs

     total energy              =     -39.57414355 Ry
     estimated scf accuracy    <          7.9E-10 Ry

     iteration #  7     ecut=    80.00 Ry     beta= 0.70
     Davidson diagonalization with overlap
     ethr =  5.27E-12,  avg # of iterations =  3.9

     total cpu time spent up to now is      127.5 secs

     total energy              =     -39.57414355 Ry
     estimated scf accuracy    <          1.6E-10 Ry

     iteration #  8     ecut=    80.00 Ry     beta= 0.70
     Davidson diagonalization with overlap
     ethr =  1.04E-12,  avg # of iterations =  1.9

     total cpu time spent up to now is      128.0 secs

     End of self-consistent calculation

          k = 0.0000 0.0000 0.0000 (  3287 PWs)   bands (ev):

   -33.0624  -2.4824  10.2098  10.2135  10.2135  10.6653  10.6659  10.6659
    12.3012  15.3587  15.3587  15.3592

          k =-0.1550-0.0895 0.0633 (  3305 PWs)   bands (ev):

   -33.0619  -2.2185   7.3952   9.4185   9.4199  11.1396  11.6555  11.6570
    13.8131  13.8150  13.8890  15.7144

          k =-0.3100-0.1790 0.1265 (  3308 PWs)   bands (ev):

   -33.0607  -1.4390   4.5358   8.9017   8.9017  10.6639  11.1828  11.1843
    14.4312  14.7382  14.7421  18.0122

          k =-0.4649-0.2684 0.1898 (  3286 PWs)   bands (ev):

   -33.0597  -0.2673   2.2985   8.7785   8.7801  10.3089  10.3167  10.3195
    14.7070  17.3024  17.3069  19.9865

          k =-0.1550 0.0895 0.1265 (  3291 PWs)   bands (ev):

   -33.0617  -2.1297   8.2854   8.2875   8.7799   9.3382  12.4551  13.0686
    13.0688  14.3919  15.9848  15.9854

          k =-0.3100 0.0000 0.1898 (  3294 PWs)   bands (ev):

   -33.0607  -1.5175   5.6041   7.6443   8.0430   9.5439  12.2648  13.0591
    13.3654  15.5515  16.0481  17.8725

          k =-0.4649-0.0895 0.2530 (  3296 PWs)   bands (ev):

   -33.0597  -0.4322   3.1229   7.0992   7.5368   9.6703  12.2727  12.6437
    13.9921  15.9182  18.2943  20.1092

          k = 0.4649 0.4474-0.1265 (  3289 PWs)   bands (ev):

   -33.0593   0.3017   2.0327   6.5136   7.9589   9.9043  11.5014  12.5287
    15.7075  16.8494  17.0246  18.5367

          k = 0.3100 0.3579-0.0633 (  3305 PWs)   bands (ev):

   -33.0600  -0.8393   3.8671   6.3845   8.8717  10.5351  11.2243  12.5745
    14.0918  15.4848  16.4379  19.9859

          k = 0.1550 0.2684 0.0000 (  3299 PWs)   bands (ev):

   -33.0611  -1.7804   6.3006   6.9527  10.0901  10.9435  11.4513  12.1071
    12.6821  14.7649  15.4820  17.4350

          k =-0.3100 0.1790 0.2530 (  3295 PWs)   bands (ev):

   -33.0601  -1.0731   6.2222   6.8300   6.8322   7.3223  11.2015  15.4227
    15.4252  17.7146  17.7732  18.3737

          k =-0.4649 0.0895 0.3163 (  3294 PWs)   bands (ev):

   -33.0593  -0.1244   4.2101   5.2637   6.5525   8.3374  11.6091  14.9884
    15.5598  18.3950  19.5577  20.3510

          k = 0.4649 0.6263-0.0633 (  3274 PWs)   bands (ev):

   -33.0589   1.0758   2.3941   4.3916   6.8206   9.0735  13.5923  14.0435
    15.1646  16.9801  18.3019  18.8041

          k = 0.3100 0.5369 0.0000 (  3280 PWs)   bands (ev):

   -33.0592   0.2490   3.2547   4.3809   7.6236   9.7493  13.1315  14.2459
    14.4486  16.2918  17.1089  17.8631

          k =-0.4649 0.2684 0.3795 (  3300 PWs)   bands (ev):

   -33.0588   0.6627   3.2126   6.0957   6.0980   6.5617  10.7573  17.4721
    17.4752  19.5227  20.3152  20.3180

          k = 0.4649 0.8053 0.0000 (  3288 PWs)   bands (ev):

   -33.0586   1.6999   2.1898   4.4462   6.1861   7.9676  11.4051  16.6732
    17.3205  18.0163  18.9556  21.1658

          k = 0.0000-0.0000 0.1898 (  3305 PWs)   bands (ev):

   -33.0619  -2.2187   7.3914   9.4213   9.4213  11.1455  11.6550  11.6550
    13.8164  13.8164  13.8899  15.7088

          k =-0.1550-0.0895 0.2530 (  3299 PWs)   bands (ev):

   -33.0611  -1.7808   6.2986   6.9529  10.0894  10.9456  11.4539  12.1116
    12.6852  14.7666  15.4811  17.4298

          k =-0.3100-0.1790 0.3163 (  3305 PWs)   bands (ev):

   -33.0600  -0.8398   3.8676   6.3833   8.8714  10.5369  11.2260  12.5767
    14.0950  15.4866  16.4374  19.9766

          k = 0.6199 0.3579-0.0633 (  3288 PWs)   bands (ev):

   -33.0593   0.3014   2.0327   6.5135   7.9594   9.9056  11.5020  12.5283
    15.7044  16.8528  17.0197  18.5413

          k = 0.4649 0.2684 0.0000 (  3296 PWs)   bands (ev):

   -33.0597  -0.4319   3.1219   7.1005   7.5379   9.6706  12.2724  12.6418
    13.9849  15.9191  18.2971  20.1138

          k = 0.3100 0.1790 0.0633 (  3294 PWs)   bands (ev):

   -33.0607  -1.5173   5.6030   7.6459   8.0459   9.5413  12.2611  13.0565
    13.3642  15.5526  16.0500  17.8744

          k =-0.1550 0.0895 0.3163 (  3294 PWs)   bands (ev):

   -33.0607  -1.5180   5.6009   7.6467   8.0467   9.5426  12.2646  13.0635
    13.3645  15.5541  16.0513  17.8704

          k =-0.3100-0.0000 0.3795 (  3289 PWs)   bands (ev):

   -33.0598  -0.7377   4.7883   5.3966   7.3946  10.0419  12.0943  12.6862
    14.9051  16.9165  17.0017  20.1576

          k = 0.6199 0.5369 0.0000 (  3300 PWs)   bands (ev):

   -33.0591   0.4666   2.7907   4.9640   6.6651  10.7981  11.5642  14.0064
    15.2575  16.8347  17.6893  18.8826

          k = 0.4649 0.4474 0.0633 (  3300 PWs)   bands (ev):

   -33.0591   0.4676   2.7895   4.9645   6.6653  10.7992  11.5614  14.0014
    15.2562  16.8416  17.6898  18.8796

          k = 0.3100 0.3579 0.1265 (  3288 PWs)   bands (ev):

   -33.0598  -0.7368   4.7895   5.3951   7.3950  10.0401  12.0910  12.6852
    14.9020  16.9126  17.0012  20.1629

          k =-0.3100 0.1790 0.4428 (  3298 PWs)   bands (ev):

   -33.0593  -0.1251   4.2083   5.2652   6.5548   8.3376  11.6082  14.9888
    15.5645  18.3971  19.5585  20.3466

          k = 0.6199 0.7158 0.0633 (  3301 PWs)   bands (ev):

   -33.0588   0.9723   3.2768   4.0242   5.8377   9.3380  11.9013  14.2947
    17.3532  17.6344  19.9339  20.1647

          k = 0.4649 0.6263 0.1265 (  3287 PWs)   bands (ev):

   -33.0587   1.7371   2.4796   3.4647   5.8799  10.5489  12.9517  13.5989
    15.0559  17.5131  19.2703  19.7684

          k = 0.3100 0.5369 0.1898 (  3300 PWs)   bands (ev):

   -33.0591   0.4675   2.7908   4.9625   6.6662  10.7953  11.5622  14.0064
    15.2590  16.8425  17.6887  18.8751

          k = 0.6199-0.3579-0.3163 (  3288 PWs)   bands (ev):

   -33.0586   1.6998   2.1888   4.4464   6.1883   7.9675  11.4034  16.6720
    17.3237  18.0154  18.9585  21.1638

          k = 0.4649-0.4474-0.2530 (  3301 PWs)   bands (ev):

   -33.0588   0.9736   3.2750   4.0246   5.8382   9.3373  11.9004  14.2917
    17.3583  17.6341  19.9317  20.1614

          k = 0.4649-0.2684-0.1898 (  3296 PWs)   bands (ev):

   -33.0593  -0.1240   4.2070   5.2664   6.5544   8.3367  11.6065  14.9860
    15.5601  18.3909  19.5581  20.3530

          k = 0.0000-0.0000 0.3795 (  3308 PWs)   bands (ev):

   -33.0607  -1.4399   4.5335   8.9041   8.9041  10.6705  11.1835  11.1835
    14.4336  14.7411  14.7411  18.0106

          k =-0.1550-0.0895 0.4428 (  3305 PWs)   bands (ev):

   -33.0600  -0.8406   3.8656   6.3865   8.8728  10.5383  11.2267  12.5788
    14.0927  15.4882  16.4375  19.9811

          k = 0.7749 0.4474 0.0633 (  3280 PWs)   bands (ev):

   -33.0592   0.2473   3.2540   4.3827   7.6249   9.7515  13.1325  14.2498
    14.4500  16.2888  17.1085  17.8622

          k = 0.6199 0.3579 0.1265 (  3274 PWs)   bands (ev):

   -33.0589   1.0758   2.3921   4.3933   6.8222   9.0748  13.5867  14.0421
    15.1659  16.9828  18.3023  18.8055

          k =-0.1550 0.0895 0.5060 (  3296 PWs)   bands (ev):

   -33.0597  -0.4338   3.1215   7.1022   7.5392   9.6718  12.2740  12.6485
    13.9894  15.9202  18.2953  20.1100

          k = 0.7749 0.6263 0.1265 (  3300 PWs)   bands (ev):

   -33.0591   0.4651   2.7902   4.9660   6.6661  10.8001  11.5647  14.0032
    15.2621  16.8373  17.6905  18.8788

          k = 0.6199 0.5369 0.1898 (  3287 PWs)   bands (ev):

   -33.0587   1.7346   2.4793   3.4674   5.8802  10.5515  12.9523  13.5950
    15.0561  17.5151  19.2732  19.7676

          k = 0.7749-0.4474-0.2530 (  3272 PWs)   bands (ev):

   -33.0589   1.0727   2.3945   4.3938   6.8226   9.0753  13.5885  14.0453
    15.1692  16.9780  18.3048  18.8039

          k = 0.0000 0.0000 0.5693 (  3284 PWs)   bands (ev):

   -33.0597  -0.2699   2.2983   8.7819   8.7819  10.3162  10.3189  10.3189
    14.7090  17.3035  17.3035  19.9855

          k = 0.9299 0.5369 0.1898 (  3288 PWs)   bands (ev):

   -33.0593   0.2983   2.0335   6.5162   7.9608   9.9070  11.5036  12.5335
    15.7091  16.8483  17.0197  18.5370

     the Fermi energy is    13.3427 ev

!    total energy              =     -39.57414355 Ry
     estimated scf accuracy    <          7.6E-12 Ry
     smearing contrib. (-TS)   =       0.00052855 Ry
     internal energy E=F+TS    =     -39.57467210 Ry

     The total energy is F=E-TS. E is the sum of the following terms:
     one-electron contribution =      11.08340377 Ry
     hartree contribution      =       2.90587319 Ry
     xc contribution           =     -13.51354835 Ry
     ewald contribution        =     -40.05040072 Ry

     convergence has been achieved in   8 iterations

     Forces acting on atoms (cartesian axes, Ry/au):

     atom    1 type  1   force =     0.00000000   -0.00000000    0.00069437
     atom    2 type  1   force =     0.00000000    0.00000000   -0.00060386
     atom    3 type  1   force =     0.00000000   -0.00000000   -0.00024621
     atom    4 type  2   force =     0.00000000   -0.00000000    0.00015571
     The non-local contrib.  to forces
     atom    1 type  1   force =    -0.00000000    0.00000000    0.00086469
     atom    2 type  1   force =    -0.00000000    0.00000000   -0.00076149
     atom    3 type  1   force =     0.00000000   -0.00000000   -0.00025170
     atom    4 type  2   force =    -0.00000000   -0.00000000    0.00004960
     The ionic contribution  to forces
     atom    1 type  1   force =     0.00000000   -0.00000000    0.00295639
     atom    2 type  1   force =    -0.00000000   -0.00000000   -0.00286682
     atom    3 type  1   force =    -0.00000000    0.00000000   -0.00070335
     atom    4 type  2   force =    -0.00000000    0.00000000    0.00061377
     The local contribution  to forces
     atom    1 type  1   force =    -0.00000000    0.00000000   -0.00305520
     atom    2 type  1   force =     0.00000000   -0.00000000    0.00296131
     atom    3 type  1   force =     0.00000000    0.00000000    0.00069130
     atom    4 type  2   force =    -0.00000000    0.00000000   -0.00050790
     The core correction contribution to forces
     atom    1 type  1   force =    -0.00000000    0.00000000   -0.00007125
     atom    2 type  1   force =     0.00000000    0.00000000    0.00006288
     atom    3 type  1   force =     0.00000000    0.00000000    0.00001769
     atom    4 type  2   force =     0.00000000    0.00000000    0.00000000
     The Hubbard contrib.    to forces
     atom    1 type  1   force =     0.00000000    0.00000000    0.00000000
     atom    2 type  1   force =     0.00000000    0.00000000    0.00000000
     atom    3 type  1   force =     0.00000000    0.00000000    0.00000000
     atom    4 type  2   force =     0.00000000    0.00000000    0.00000000
     The SCF correction term to forces
     atom    1 type  1   force =    -0.00000000   -0.00000000   -0.00000025
     atom    2 type  1   force =    -0.00000000   -0.00000000    0.00000027
     atom    3 type  1   force =     0.00000000    0.00000000   -0.00000016
     atom    4 type  2   force =     0.00000000    0.00000000    0.00000024

     Total force =     0.000965     Total SCF correction =     0.000000


     Computing stress (Cartesian axis) and pressure

          total   stress  (Ry/bohr**3)                   (kbar)     P=      500.47
   0.00340484   0.00000000   0.00000000          500.87        0.00        0.00
  -0.00000000   0.00340484   0.00000000           -0.00      500.87        0.00
  -0.00000000   0.00000000   0.00339670           -0.00        0.00      499.67


     Writing all to output data dir ./output/SiLi.save/

     init_run     :      0.92s CPU      1.18s WALL (       2 calls)
     electrons    :     92.30s CPU     98.11s WALL (      25 calls)
     update_pot   :      6.11s CPU      6.24s WALL (      23 calls)
     forces       :      4.39s CPU      4.52s WALL (      25 calls)
     stress       :     17.15s CPU     18.01s WALL (      25 calls)

     Called by init_run:
     wfcinit      :      0.40s CPU      0.42s WALL (       2 calls)
     potinit      :      0.26s CPU      0.39s WALL (       2 calls)
     hinit0       :      0.23s CPU      0.30s WALL (       2 calls)

     Called by electrons:
     c_bands      :     80.19s CPU     84.96s WALL (     152 calls)
     sum_band     :     10.84s CPU     11.20s WALL (     152 calls)
     v_of_rho     :      1.31s CPU      1.87s WALL (     174 calls)
     mix_rho      :      0.10s CPU      0.13s WALL (     152 calls)

     Called by c_bands:
     init_us_2    :      1.80s CPU      1.91s WALL (   15664 calls)
     init_us_2:cp :      1.78s CPU      1.89s WALL (   15664 calls)
     cegterg      :     75.69s CPU     77.70s WALL (    6688 calls)

     Called by *egterg:
     cdiaghg      :      4.51s CPU      4.63s WALL (   28578 calls)
     h_psi        :     66.17s CPU     67.90s WALL (   29810 calls)
     g_psi        :      0.25s CPU      0.26s WALL (   23034 calls)

     Called by h_psi:
     h_psi:calbec :      3.33s CPU      3.42s WALL (   29810 calls)
     vloc_psi     :     60.15s CPU     61.71s WALL (   29810 calls)
     add_vuspsi   :      2.47s CPU      2.54s WALL (   29810 calls)

     General routines
     calbec       :      4.10s CPU      4.23s WALL (   35310 calls)
     fft          :      1.04s CPU      1.75s WALL (    2366 calls)
     ffts         :      0.08s CPU      0.10s WALL (     152 calls)
     fftw         :     62.64s CPU     64.24s WALL (  574956 calls)

     Parallel routines

     PWSCF        :   2m 1.30s CPU   2m 9.01s WALL


   This run was terminated on:  10:54:16  29Dec2024            

=------------------------------------------------------------------------------=
   JOB DONE.
=------------------------------------------------------------------------------=
