
     Program PWSCF v.7.2 starts on 29Dec2024 at 10:52: 7 

     This program is part of the open-source Quantum ESPRESSO suite
     for quantum simulation of materials; please cite
         "P. Giannozzi et al., J. Phys.:Condens. Matter 21 395502 (2009);
         "P. Giannozzi et al., J. Phys.:Condens. Matter 29 465901 (2017);
         "P. Giannozzi et al., J. Chem. Phys. 152 154105 (2020);
          URL http://www.quantum-espresso.org", 
     in publications or presentations arising from this work. More details at
     http://www.quantum-espresso.org/quote

     Parallel version (MPI & OpenMP), running on       8 processor cores
     Number of MPI processes:                 8
     Threads/MPI process:                     1

     MPI processes distributed on     1 nodes
     482667 MiB available memory on the printing compute node when the environment starts

     Waiting for input...
     Reading input from standard input

     Current dimensions of program PWSCF are:
     Max number of different atomic species (ntypx) = 10
     Max number of k-points (npk) =  40000
     Max angular momentum in pseudopotentials (lmaxx) =  4

     R & G space division:  proc/nbgrp/npool/nimage =       8
     Subspace diagonalization in iterative solution of the eigenvalue problem:
     a serial algorithm will be used


     Parallelization info
     --------------------
     sticks:   dense  smooth     PW     G-vecs:    dense   smooth      PW
     Min         207     207     58                 5304     5304     814
     Max         208     208     59                 5306     5306     818
     Sum        1657    1657    471                42435    42435    6531

     Using Slab Decomposition



     bravais-lattice index     =            3
     lattice parameter (alat)  =       9.5799  a.u.
     unit-cell volume          =     439.5892 (a.u.)^3
     number of atoms/cell      =            4
     number of atomic types    =            2
     number of electrons       =        15.00
     number of Kohn-Sham states=           12
     kinetic-energy cutoff     =      80.0000  Ry
     charge density cutoff     =     320.0000  Ry
     scf convergence threshold =      1.0E-08
     mixing beta               =       0.7000
     number of iterations used =            8  plain     mixing
     energy convergence thresh.=      1.0E-04
     force convergence thresh. =      1.0E-03
     press convergence thresh. =      1.0E+00
     Exchange-correlation= PBE
                           (   1   4   3   4   0   0   0)
     nstep                     =           50


     celldm(1)=   9.579856  celldm(2)=   0.000000  celldm(3)=   0.000000
     celldm(4)=   0.000000  celldm(5)=   0.000000  celldm(6)=   0.000000

     crystal axes: (cart. coord. in units of alat)
               a(1) = (   0.500000   0.500000   0.500000 )  
               a(2) = (  -0.500000   0.500000   0.500000 )  
               a(3) = (  -0.500000  -0.500000   0.500000 )  

     reciprocal axes: (cart. coord. in units 2 pi/alat)
               b(1) = (  1.000000  0.000000  1.000000 )  
               b(2) = ( -1.000000  1.000000  0.000000 )  
               b(3) = (  0.000000 -1.000000  1.000000 )  


     PseudoPot. # 1 for Si read from file:
     ../pseudo/Si_ONCV_PBE_sr.upf
     MD5 check sum: e543d271109d17c80368dfa7c482276d
     Pseudo is Norm-conserving + core correction, Zval =  4.0
     Generated using ONCVPSP code by D. R. Hamann
     Using radial grid of 1510 points,  6 beta functions with: 
                l(1) =   0
                l(2) =   0
                l(3) =   1
                l(4) =   1
                l(5) =   2
                l(6) =   2

     PseudoPot. # 2 for Li read from file:
     ../pseudo/Li_ONCV_PBE_sr.upf
     MD5 check sum: 50ff420e78310ffa21704f3361e624a4
     Pseudo is Norm-conserving, Zval =  3.0
     Generated using ONCVPSP code by D. R. Hamann
     Using radial grid of 1944 points,  4 beta functions with: 
                l(1) =   0
                l(2) =   0
                l(3) =   1
                l(4) =   1

     atomic species   valence    mass     pseudopotential
        Si             4.00    28.08550     Si( 1.00)
        Li             3.00     6.94100     Li( 1.00)

     48 Sym. Ops., with inversion, found



   Cartesian axes

     site n.     atom                  positions (alat units)
         1           Si  tau(   1) = (   0.0000000   0.0000000   0.5000000  )
         2           Si  tau(   2) = (   0.5000000   0.0000000   0.0000000  )
         3           Si  tau(   3) = (   0.0000000   0.5000000   0.0000000  )
         4           Li  tau(   4) = (   0.0000000   0.0000000   0.0000000  )

     number of k points=    10  Marzari-Vanderbilt smearing, width (Ry)=  0.0200
                       cart. coord. in units 2pi/alat
        k(    1) = (   0.0000000   0.0000000   0.0000000), wk =   0.0160000
        k(    2) = (   0.0000000  -0.2000000   0.2000000), wk =   0.1920000
        k(    3) = (   0.0000000  -0.4000000   0.4000000), wk =   0.1920000
        k(    4) = (  -0.2000000  -0.2000000   0.4000000), wk =   0.3840000
        k(    5) = (  -0.2000000   0.6000000  -0.4000000), wk =   0.3840000
        k(    6) = (   0.0000000   0.0000000   0.4000000), wk =   0.0960000
        k(    7) = (   0.0000000  -0.2000000   0.6000000), wk =   0.3840000
        k(    8) = (  -0.2000000   0.8000000  -0.2000000), wk =   0.1280000
        k(    9) = (   0.6000000  -0.6000000   0.4000000), wk =   0.1280000
        k(   10) = (   0.0000000   0.0000000   0.8000000), wk =   0.0960000

     Dense  grid:    42435 G-vectors     FFT dimensions: (  48,  48,  48)

     Estimated max dynamical RAM per process >      17.30 MB

     Estimated total dynamical RAM >     138.37 MB

     Initial potential from superposition of free atoms

     starting charge      14.9936, renormalised to      15.0000
     Starting wfcs are   14 randomized atomic wfcs

     total cpu time spent up to now is        1.2 secs

     Self-consistent Calculation

     iteration #  1     ecut=    80.00 Ry     beta= 0.70
     Davidson diagonalization with overlap
     ethr =  1.00E-02,  avg # of iterations =  5.1

     Threshold (ethr) on eigenvalues was too large:
     Diagonalizing with lowered threshold

     Davidson diagonalization with overlap
     ethr =  5.71E-05,  avg # of iterations =  9.0

     total cpu time spent up to now is        1.9 secs

     total energy              =     -39.65993245 Ry
     estimated scf accuracy    <       0.00933694 Ry

     iteration #  2     ecut=    80.00 Ry     beta= 0.70
     Davidson diagonalization with overlap
     ethr =  6.22E-05,  avg # of iterations =  1.0

     total cpu time spent up to now is        2.2 secs

     total energy              =     -39.66021214 Ry
     estimated scf accuracy    <       0.00064901 Ry

     iteration #  3     ecut=    80.00 Ry     beta= 0.70
     Davidson diagonalization with overlap
     ethr =  4.33E-06,  avg # of iterations =  4.1

     total cpu time spent up to now is        2.7 secs

     total energy              =     -39.66027406 Ry
     estimated scf accuracy    <       0.00001229 Ry

     iteration #  4     ecut=    80.00 Ry     beta= 0.70
     Davidson diagonalization with overlap
     ethr =  8.19E-08,  avg # of iterations =  3.1

     total cpu time spent up to now is        2.9 secs

     total energy              =     -39.66027759 Ry
     estimated scf accuracy    <       0.00000043 Ry

     iteration #  5     ecut=    80.00 Ry     beta= 0.70
     Davidson diagonalization with overlap
     ethr =  2.89E-09,  avg # of iterations =  3.5

     total cpu time spent up to now is        3.1 secs

     total energy              =     -39.66027775 Ry
     estimated scf accuracy    <       0.00000001 Ry

     iteration #  6     ecut=    80.00 Ry     beta= 0.70
     Davidson diagonalization with overlap
     ethr =  9.46E-11,  avg # of iterations =  3.2

     total cpu time spent up to now is        3.4 secs

     End of self-consistent calculation

          k = 0.0000 0.0000 0.0000 (  5281 PWs)   bands (ev):

   -38.9021  -4.9777   3.7397   3.7397   4.1074   4.1074   4.1074   6.5233
     6.5233   6.5233   9.4066   9.4067

          k = 0.0000-0.2000 0.2000 (  5301 PWs)   bands (ev):

   -38.9020  -4.5875   1.2376   2.5175   3.7043   5.3405   5.6502   5.7692
     6.2588   7.6509  10.6474  10.9790

          k = 0.0000-0.4000 0.4000 (  5310 PWs)   bands (ev):

   -38.9019  -3.4911  -1.1949   1.7392   3.2119   4.9927   5.0563   6.6953
     8.2349   9.3256  10.1837  11.1013

          k =-0.2000-0.2000 0.4000 (  5323 PWs)   bands (ev):

   -38.9019  -3.8282  -0.2777   0.9326   4.2898   4.4164   5.3495   6.9111
     8.2276   8.3402   9.6943  11.9275

          k =-0.2000 0.6000-0.4000 (  5303 PWs)   bands (ev):

   -38.9018  -2.7210  -1.8010   0.3296   3.8405   4.4481   6.1252   7.0964
     7.9577   9.6738  10.1273  11.7036

          k = 0.0000 0.0000 0.4000 (  5310 PWs)   bands (ev):

   -38.9019  -4.2035   0.4999   2.8801   2.9969   2.9969   6.4051   6.4051
     7.3226   8.8099   9.4961  10.2436

          k = 0.0000-0.2000 0.6000 (  5301 PWs)   bands (ev):

   -38.9018  -3.1258  -1.1255   1.5065   2.3288   3.9710   5.8672   6.5077
     7.0672   9.3187  11.3162  12.3721

          k =-0.2000 0.8000-0.2000 (  5327 PWs)   bands (ev):

   -38.9018  -2.0079  -2.0079   0.5958   3.1423   3.1423   4.9163   6.3987
     8.6904   8.6904  13.2118  13.2750

          k = 0.6000-0.6000 0.4000 (  5300 PWs)   bands (ev):

   -38.9018  -2.7464  -0.9931  -0.9931   2.9648   6.5205   7.7562   7.7562
     8.6190   8.6190  10.2252  10.2252

          k = 0.0000 0.0000 0.8000 (  5346 PWs)   bands (ev):

   -38.9018  -2.1621  -1.2541   1.5928   1.5928   1.8105   4.2978   8.2910
     8.2910   8.7767  12.4308  14.2032

     the Fermi energy is     6.6993 ev

!    total energy              =     -39.66027776 Ry
     estimated scf accuracy    <          1.4E-09 Ry
     smearing contrib. (-TS)   =       0.00069308 Ry
     internal energy E=F+TS    =     -39.66097084 Ry

     The total energy is F=E-TS. E is the sum of the following terms:
     one-electron contribution =       2.68029633 Ry
     hartree contribution      =       3.75181301 Ry
     xc contribution           =     -12.54178909 Ry
     ewald contribution        =     -33.55129109 Ry

     convergence has been achieved in   6 iterations

     Forces acting on atoms (cartesian axes, Ry/au):

     atom    1 type  1   force =    -0.00000000    0.00000000   -0.00000000
     atom    2 type  1   force =     0.00000000   -0.00000000    0.00000000
     atom    3 type  1   force =    -0.00000000    0.00000000   -0.00000000
     atom    4 type  2   force =     0.00000000    0.00000000    0.00000000
     The non-local contrib.  to forces
     atom    1 type  1   force =     0.00000000   -0.00000000    0.00000000
     atom    2 type  1   force =    -0.00000000    0.00000000    0.00000000
     atom    3 type  1   force =     0.00000000    0.00000000    0.00000000
     atom    4 type  2   force =     0.00000000    0.00000000    0.00000000
     The ionic contribution  to forces
     atom    1 type  1   force =     0.00000000    0.00000000    0.00000000
     atom    2 type  1   force =     0.00000000    0.00000000    0.00000000
     atom    3 type  1   force =     0.00000000    0.00000000    0.00000000
     atom    4 type  2   force =    -0.00000000   -0.00000000   -0.00000000
     The local contribution  to forces
     atom    1 type  1   force =     0.00000000   -0.00000000    0.00000000
     atom    2 type  1   force =     0.00000000    0.00000000   -0.00000000
     atom    3 type  1   force =     0.00000000    0.00000000    0.00000000
     atom    4 type  2   force =     0.00000000    0.00000000   -0.00000000
     The core correction contribution to forces
     atom    1 type  1   force =     0.00000000    0.00000000   -0.00000000
     atom    2 type  1   force =    -0.00000000   -0.00000000    0.00000000
     atom    3 type  1   force =     0.00000000   -0.00000000    0.00000000
     atom    4 type  2   force =     0.00000000    0.00000000    0.00000000
     The Hubbard contrib.    to forces
     atom    1 type  1   force =     0.00000000    0.00000000    0.00000000
     atom    2 type  1   force =     0.00000000    0.00000000    0.00000000
     atom    3 type  1   force =     0.00000000    0.00000000    0.00000000
     atom    4 type  2   force =     0.00000000    0.00000000    0.00000000
     The SCF correction term to forces
     atom    1 type  1   force =     0.00000000   -0.00000000   -0.00000000
     atom    2 type  1   force =     0.00000000    0.00000000   -0.00000000
     atom    3 type  1   force =     0.00000000    0.00000000    0.00000000
     atom    4 type  2   force =    -0.00000000   -0.00000000    0.00000000

     Total force =     0.000000     Total SCF correction =     0.000000


     Computing stress (Cartesian axis) and pressure

          total   stress  (Ry/bohr**3)                   (kbar)     P=        0.66
   0.00000448   0.00000000  -0.00000000            0.66        0.00       -0.00
   0.00000000   0.00000448   0.00000000            0.00        0.66        0.00
  -0.00000000   0.00000000   0.00000448           -0.00        0.00        0.66


     BFGS Geometry Optimization
     Energy error            =      0.0E+00 Ry
     Gradient error          =      1.3E-33 Ry/Bohr
     Cell gradient error     =      5.0E+02 kbar

     number of scf cycles    =   1
     number of bfgs steps    =   0

     enthalpy           new  =     -38.1661444669 Ry

     new trust radius        =       0.3558466409 bohr
ibrav =      3
 celldm(1) =      8.76689792
Input lattice vectors:
     0.45756938     0.45756938     0.45756938
    -0.45756938     0.45756938     0.45756938
    -0.45756938    -0.45756938     0.45756938
New lattice vectors in INITIAL alat:
     0.45756938     0.45756938     0.45756938
    -0.45756938     0.45756938     0.45756938
    -0.45756938    -0.45756938     0.45756938
New lattice vectors in NEW alat (for information only):
     0.50000000     0.50000000     0.50000000
    -0.50000000     0.50000000     0.50000000
    -0.50000000    -0.50000000     0.50000000
Discrepancy in bohr =     0.000000    0.000000    0.000000
     new conv_thr            =       0.0000000100 Ry

     new unit-cell volume =    336.90531 a.u.^3 (    49.92422 Ang^3 )
     density =      3.03334 g/cm^3

CELL_PARAMETERS (alat=  9.57985641)
   0.457569380   0.457569380   0.457569380
  -0.457569380   0.457569380   0.457569380
  -0.457569380  -0.457569380   0.457569380

ATOMIC_POSITIONS (crystal)
Si            0.5000000000        0.0000000000        0.5000000000
Si            0.5000000000       -0.5000000000       -0.0000000000
Si            0.0000000000        0.5000000000       -0.5000000000
Li            0.0000000000        0.0000000000        0.0000000000



     Writing config-only to output data dir ./output/SiLi.save/
     NEW-OLD atomic charge density approx. for the potential
     extrapolated charge   10.43017, renormalised to   15.00000

     total cpu time spent up to now is        4.9 secs

     Self-consistent Calculation

     iteration #  1     ecut=    80.00 Ry     beta= 0.70
     Davidson diagonalization with overlap
     ethr =  1.00E-06,  avg # of iterations = 11.5

     total cpu time spent up to now is        5.4 secs

     total energy              =     -39.50777041 Ry
     estimated scf accuracy    <       0.06969248 Ry

     iteration #  2     ecut=    80.00 Ry     beta= 0.70
     Davidson diagonalization with overlap
     ethr =  4.65E-04,  avg # of iterations =  2.3

     total cpu time spent up to now is        5.6 secs

     total energy              =     -39.57816265 Ry
     estimated scf accuracy    <       0.01039016 Ry

     iteration #  3     ecut=    80.00 Ry     beta= 0.70
     Davidson diagonalization with overlap
     ethr =  6.93E-05,  avg # of iterations =  1.9

     total cpu time spent up to now is        5.8 secs

     total energy              =     -39.57899034 Ry
     estimated scf accuracy    <       0.00091673 Ry

     iteration #  4     ecut=    80.00 Ry     beta= 0.70
     Davidson diagonalization with overlap
     ethr =  6.11E-06,  avg # of iterations =  3.0

     total cpu time spent up to now is        5.9 secs

     total energy              =     -39.57903707 Ry
     estimated scf accuracy    <       0.00009261 Ry

     iteration #  5     ecut=    80.00 Ry     beta= 0.70
     Davidson diagonalization with overlap
     ethr =  6.17E-07,  avg # of iterations =  2.5

     total cpu time spent up to now is        6.1 secs

     total energy              =     -39.57905829 Ry
     estimated scf accuracy    <       0.00000182 Ry

     iteration #  6     ecut=    80.00 Ry     beta= 0.70
     Davidson diagonalization with overlap
     ethr =  1.21E-08,  avg # of iterations =  3.8

     total cpu time spent up to now is        6.4 secs

     total energy              =     -39.57905928 Ry
     estimated scf accuracy    <       0.00000011 Ry

     iteration #  7     ecut=    80.00 Ry     beta= 0.70
     Davidson diagonalization with overlap
     ethr =  7.31E-10,  avg # of iterations =  2.2

     total cpu time spent up to now is        6.5 secs

     End of self-consistent calculation

          k = 0.0000 0.0000 0.0000 (  5281 PWs)   bands (ev):

   -35.8308  -3.8275   6.6087   6.6087   6.6087   7.9202   7.9202   9.3483
     9.3483   9.3483  11.6478  11.6478

          k =-0.0000-0.2185 0.2185 (  5301 PWs)   bands (ev):

   -35.8304  -3.3577   3.7883   5.5917   5.9908   8.1600   8.3319   8.3943
     9.9353  11.2353  13.2660  13.8369

          k =-0.0000-0.4371 0.4371 (  5310 PWs)   bands (ev):

   -35.8298  -2.0256   0.7430   4.6981   5.3013   7.2097   7.7487   9.7178
    11.8622  12.7648  14.3702  15.3400

          k =-0.2185-0.2185 0.4371 (  5323 PWs)   bands (ev):

   -35.8299  -2.4383   1.9513   3.2453   6.6090   6.9643   8.3314   9.7996
    11.8369  12.1180  13.1262  15.3774

          k =-0.2185 0.6556-0.4371 (  5303 PWs)   bands (ev):

   -35.8296  -1.0707   0.0210   2.5048   6.1084   7.0507   9.0299  10.1382
    11.2827  13.4908  13.8140  16.0311

          k =-0.0000-0.0000 0.4371 (  5310 PWs)   bands (ev):

   -35.8301  -2.8906   3.1967   4.9781   4.9781   6.1384   9.1850   9.1850
    11.2332  12.6549  12.8650  12.9378

          k =-0.0000-0.2185 0.6556 (  5301 PWs)   bands (ev):

   -35.8296  -1.5603   0.9724   3.9948   4.1100   6.5826   9.0328   9.1954
    10.1853  13.2422  15.4088  15.4968

          k =-0.2185 0.8742-0.2185 (  5327 PWs)   bands (ev):

   -35.8295  -0.1088  -0.1088   2.4328   5.3717   5.3717   8.1045   9.2896
    12.1982  12.1982  17.0143  17.4278

          k = 0.6556-0.6556 0.4371 (  5300 PWs)   bands (ev):

   -35.8296  -1.1264   1.0038   1.0038   4.9261   9.4533  11.0570  11.0570
    12.0809  12.0809  13.9618  13.9618

          k =-0.0000-0.0000 0.8742 (  5346 PWs)   bands (ev):

   -35.8294  -0.2653   1.1289   3.1872   3.1872   4.0275   7.5364  11.7134
    11.7134  12.6219  15.3058  17.7118

     the Fermi energy is     9.7593 ev

!    total energy              =     -39.57905932 Ry
     estimated scf accuracy    <          7.1E-09 Ry
     smearing contrib. (-TS)   =      -0.00024819 Ry
     internal energy E=F+TS    =     -39.57881113 Ry

     The total energy is F=E-TS. E is the sum of the following terms:
     one-electron contribution =       6.77553298 Ry
     hartree contribution      =       3.39184292 Ry
     xc contribution           =     -13.08366922 Ry
     ewald contribution        =     -36.66251781 Ry

     convergence has been achieved in   7 iterations

     Forces acting on atoms (cartesian axes, Ry/au):

     atom    1 type  1   force =    -0.00000000    0.00000000    0.00000000
     atom    2 type  1   force =     0.00000000    0.00000000    0.00000000
     atom    3 type  1   force =    -0.00000000    0.00000000   -0.00000000
     atom    4 type  2   force =     0.00000000    0.00000000   -0.00000000
     The non-local contrib.  to forces
     atom    1 type  1   force =     0.00000000   -0.00000000   -0.00000000
     atom    2 type  1   force =     0.00000000    0.00000000   -0.00000000
     atom    3 type  1   force =    -0.00000000    0.00000000   -0.00000000
     atom    4 type  2   force =     0.00000000    0.00000000    0.00000000
     The ionic contribution  to forces
     atom    1 type  1   force =     0.00000000   -0.00000000   -0.00000000
     atom    2 type  1   force =    -0.00000000   -0.00000000    0.00000000
     atom    3 type  1   force =    -0.00000000   -0.00000000   -0.00000000
     atom    4 type  2   force =    -0.00000000   -0.00000000   -0.00000000
     The local contribution  to forces
     atom    1 type  1   force =     0.00000000   -0.00000000   -0.00000000
     atom    2 type  1   force =     0.00000000   -0.00000000    0.00000000
     atom    3 type  1   force =    -0.00000000   -0.00000000   -0.00000000
     atom    4 type  2   force =     0.00000000    0.00000000   -0.00000000
     The core correction contribution to forces
     atom    1 type  1   force =    -0.00000000    0.00000000    0.00000000
     atom    2 type  1   force =     0.00000000   -0.00000000    0.00000000
     atom    3 type  1   force =     0.00000000    0.00000000    0.00000000
     atom    4 type  2   force =     0.00000000    0.00000000    0.00000000
     The Hubbard contrib.    to forces
     atom    1 type  1   force =     0.00000000    0.00000000    0.00000000
     atom    2 type  1   force =     0.00000000    0.00000000    0.00000000
     atom    3 type  1   force =     0.00000000    0.00000000    0.00000000
     atom    4 type  2   force =     0.00000000    0.00000000    0.00000000
     The SCF correction term to forces
     atom    1 type  1   force =     0.00000000    0.00000000   -0.00000000
     atom    2 type  1   force =     0.00000000   -0.00000000    0.00000000
     atom    3 type  1   force =     0.00000000   -0.00000000    0.00000000
     atom    4 type  2   force =    -0.00000000   -0.00000000   -0.00000000

     Total force =     0.000000     Total SCF correction =     0.000000


     Computing stress (Cartesian axis) and pressure

          total   stress  (Ry/bohr**3)                   (kbar)     P=      290.29
   0.00197336  -0.00000000   0.00000000          290.29       -0.00        0.00
  -0.00000000   0.00197336  -0.00000000           -0.00      290.29       -0.00
   0.00000000  -0.00000000   0.00197336            0.00       -0.00      290.29

     Energy error            =      2.7E-01 Ry
     Gradient error          =      1.0E-32 Ry/Bohr
     Cell gradient error     =      2.1E+02 kbar

     number of scf cycles    =   2
     number of bfgs steps    =   1

     enthalpy           old  =     -38.1661444669 Ry
     enthalpy           new  =     -38.4339414473 Ry

     CASE: enthalpy          _new < enthalpy          _old

     new trust radius        =       0.1846868444 bohr
ibrav =      3
 celldm(1) =      8.32583760
Input lattice vectors:
     0.43454919     0.43454919     0.43454919
    -0.43454919     0.43454919     0.43454919
    -0.43454919    -0.43454919     0.43454919
New lattice vectors in INITIAL alat:
     0.43454919     0.43454919     0.43454919
    -0.43454919     0.43454919     0.43454919
    -0.43454919    -0.43454919     0.43454919
New lattice vectors in NEW alat (for information only):
     0.50000000     0.50000000     0.50000000
    -0.50000000     0.50000000     0.50000000
    -0.50000000    -0.50000000     0.50000000
Discrepancy in bohr =     0.000000    0.000000    0.000000
     new conv_thr            =            1.0E-10 Ry

     new unit-cell volume =    288.57175 a.u.^3 (    42.76192 Ang^3 )
     density =      3.54140 g/cm^3

CELL_PARAMETERS (alat=  9.57985641)
   0.434549185   0.434549185   0.434549185
  -0.434549185   0.434549185   0.434549185
  -0.434549185  -0.434549185   0.434549185

ATOMIC_POSITIONS (crystal)
Si            0.5000000000       -0.0000000000        0.5000000000
Si            0.5000000000       -0.5000000000       -0.0000000000
Si           -0.0000000000        0.5000000000       -0.5000000000
Li            0.0000000000        0.0000000000       -0.0000000000



     Writing config-only to output data dir ./output/SiLi.save/
     NEW-OLD atomic charge density approx. for the potential
     extrapolated charge   12.48869, renormalised to   15.00000

     total cpu time spent up to now is        7.9 secs

     Self-consistent Calculation

     iteration #  1     ecut=    80.00 Ry     beta= 0.70
     Davidson diagonalization with overlap
     ethr =  1.00E-06,  avg # of iterations =  9.8

     total cpu time spent up to now is        8.3 secs

     total energy              =     -39.41033722 Ry
     estimated scf accuracy    <       0.00996826 Ry

     iteration #  2     ecut=    80.00 Ry     beta= 0.70
     Davidson diagonalization with overlap
     ethr =  6.65E-05,  avg # of iterations =  3.0

     total cpu time spent up to now is        8.5 secs

     total energy              =     -39.43158038 Ry
     estimated scf accuracy    <       0.00455631 Ry

     iteration #  3     ecut=    80.00 Ry     beta= 0.70
     Davidson diagonalization with overlap
     ethr =  3.04E-05,  avg # of iterations =  1.3

     total cpu time spent up to now is        8.7 secs

     total energy              =     -39.43151687 Ry
     estimated scf accuracy    <       0.00074958 Ry

     iteration #  4     ecut=    80.00 Ry     beta= 0.70
     Davidson diagonalization with overlap
     ethr =  5.00E-06,  avg # of iterations =  2.8

     total cpu time spent up to now is        8.8 secs

     total energy              =     -39.43151429 Ry
     estimated scf accuracy    <       0.00008764 Ry

     iteration #  5     ecut=    80.00 Ry     beta= 0.70
     Davidson diagonalization with overlap
     ethr =  5.84E-07,  avg # of iterations =  2.3

     total cpu time spent up to now is        9.0 secs

     total energy              =     -39.43153394 Ry
     estimated scf accuracy    <       0.00000256 Ry

     iteration #  6     ecut=    80.00 Ry     beta= 0.70
     Davidson diagonalization with overlap
     ethr =  1.71E-08,  avg # of iterations =  2.9

     total cpu time spent up to now is        9.2 secs

     total energy              =     -39.43153462 Ry
     estimated scf accuracy    <       0.00000018 Ry

     iteration #  7     ecut=    80.00 Ry     beta= 0.70
     Davidson diagonalization with overlap
     ethr =  1.19E-09,  avg # of iterations =  2.5

     total cpu time spent up to now is        9.4 secs

     total energy              =     -39.43153466 Ry
     estimated scf accuracy    <       0.00000002 Ry

     iteration #  8     ecut=    80.00 Ry     beta= 0.70
     Davidson diagonalization with overlap
     ethr =  1.15E-10,  avg # of iterations =  2.4

     total cpu time spent up to now is        9.5 secs

     total energy              =     -39.43153466 Ry
     estimated scf accuracy    <          9.6E-09 Ry

     iteration #  9     ecut=    80.00 Ry     beta= 0.70
     Davidson diagonalization with overlap
     ethr =  6.42E-11,  avg # of iterations =  2.1

     total cpu time spent up to now is        9.7 secs

     End of self-consistent calculation

          k = 0.0000 0.0000 0.0000 (  5281 PWs)   bands (ev):

   -33.9668  -2.9604   8.4293   8.4293   8.4293  10.8238  10.8238  11.2850
    11.2850  11.2850  13.1661  13.1661

          k = 0.0000-0.2301 0.2301 (  5301 PWs)   bands (ev):

   -33.9659  -2.4432   5.4961   7.6302   7.6307   9.7604  10.1833  10.5205
    12.5210  13.8356  15.0705  15.8093

          k = 0.0000-0.4602 0.4602 (  5310 PWs)   bands (ev):

   -33.9645  -0.9712   2.0886   6.7210   6.7990   8.6626   9.6959  11.8294
    14.3282  14.9968  17.3959  18.1932

          k =-0.2301-0.2301 0.4602 (  5323 PWs)   bands (ev):

   -33.9647  -1.4281   3.4737   4.7925   8.1958   8.7975  10.4163  11.7898
    14.2361  14.7047  15.4882  17.7790

          k =-0.2301 0.6904-0.4602 (  5303 PWs)   bands (ev):

   -33.9640   0.0942   1.2954   3.9789   7.6714   8.9212  11.0778  12.2256
    13.5008  16.0905  16.3149  18.8918

          k =-0.0000 0.0000 0.4602 (  5310 PWs)   bands (ev):

   -33.9652  -1.9267   5.0804   6.3810   6.3810   8.3012  11.1157  11.1157
    14.0353  14.2884  15.1608  15.8275

          k =-0.0000-0.2301 0.6904 (  5301 PWs)   bands (ev):

   -33.9641  -0.4466   2.4044   5.3791   5.7241   8.4474  11.0244  11.1864
    12.3378  16.0105  17.4890  18.3055

          k =-0.2301 0.9205-0.2301 (  5327 PWs)   bands (ev):

   -33.9636   1.2061   1.2061   3.6937   7.0001   7.0001  10.2063  11.3205
    14.5957  14.5957  19.6092  20.2152

          k = 0.6904-0.6904 0.4602 (  5300 PWs)   bands (ev):

   -33.9640   0.0236   2.3873   2.3873   6.3080  11.5311  13.3294  13.3294
    14.4009  14.4009  16.4780  16.4780

          k =-0.0000 0.0000 0.9205 (  5346 PWs)   bands (ev):

   -33.9634   1.0451   2.8309   4.3333   4.3333   5.6035   9.7402  14.0605
    14.0605  15.3305  17.2564  20.1573

     the Fermi energy is    11.8172 ev

!    total energy              =     -39.43153466 Ry
     estimated scf accuracy    <          2.9E-11 Ry
     smearing contrib. (-TS)   =      -0.00064588 Ry
     internal energy E=F+TS    =     -39.43088878 Ry

     The total energy is F=E-TS. E is the sum of the following terms:
     one-electron contribution =       9.40587620 Ry
     hartree contribution      =       3.22202777 Ry
     xc contribution           =     -13.45408214 Ry
     ewald contribution        =     -38.60471061 Ry

     convergence has been achieved in   9 iterations

     Forces acting on atoms (cartesian axes, Ry/au):

     atom    1 type  1   force =    -0.00000000    0.00000000   -0.00000000
     atom    2 type  1   force =    -0.00000000    0.00000000   -0.00000000
     atom    3 type  1   force =    -0.00000000    0.00000000   -0.00000000
     atom    4 type  2   force =     0.00000000   -0.00000000    0.00000000
     The non-local contrib.  to forces
     atom    1 type  1   force =     0.00000000    0.00000000   -0.00000000
     atom    2 type  1   force =     0.00000000   -0.00000000    0.00000000
     atom    3 type  1   force =    -0.00000000    0.00000000   -0.00000000
     atom    4 type  2   force =    -0.00000000   -0.00000000    0.00000000
     The ionic contribution  to forces
     atom    1 type  1   force =    -0.00000000    0.00000000    0.00000000
     atom    2 type  1   force =     0.00000000   -0.00000000   -0.00000000
     atom    3 type  1   force =     0.00000000    0.00000000    0.00000000
     atom    4 type  2   force =    -0.00000000   -0.00000000   -0.00000000
     The local contribution  to forces
     atom    1 type  1   force =     0.00000000   -0.00000000    0.00000000
     atom    2 type  1   force =     0.00000000   -0.00000000    0.00000000
     atom    3 type  1   force =    -0.00000000   -0.00000000    0.00000000
     atom    4 type  2   force =     0.00000000   -0.00000000   -0.00000000
     The core correction contribution to forces
     atom    1 type  1   force =    -0.00000000   -0.00000000   -0.00000000
     atom    2 type  1   force =    -0.00000000    0.00000000    0.00000000
     atom    3 type  1   force =     0.00000000   -0.00000000   -0.00000000
     atom    4 type  2   force =     0.00000000    0.00000000    0.00000000
     The Hubbard contrib.    to forces
     atom    1 type  1   force =     0.00000000    0.00000000    0.00000000
     atom    2 type  1   force =     0.00000000    0.00000000    0.00000000
     atom    3 type  1   force =     0.00000000    0.00000000    0.00000000
     atom    4 type  2   force =     0.00000000    0.00000000    0.00000000
     The SCF correction term to forces
     atom    1 type  1   force =    -0.00000000   -0.00000000    0.00000000
     atom    2 type  1   force =    -0.00000000    0.00000000    0.00000000
     atom    3 type  1   force =     0.00000000   -0.00000000    0.00000000
     atom    4 type  2   force =     0.00000000    0.00000000    0.00000000

     Total force =     0.000000     Total SCF correction =     0.000000


     Computing stress (Cartesian axis) and pressure

          total   stress  (Ry/bohr**3)                   (kbar)     P=      648.11
   0.00440576   0.00000000  -0.00000000          648.11        0.00       -0.00
   0.00000000   0.00440576   0.00000000            0.00      648.11        0.00
  -0.00000000   0.00000000   0.00440576           -0.00        0.00      648.11

     Energy error            =      1.7E-02 Ry
     Gradient error          =      3.3E-32 Ry/Bohr
     Cell gradient error     =      1.5E+02 kbar

     number of scf cycles    =   3
     number of bfgs steps    =   2

     enthalpy           old  =     -38.4339414473 Ry
     enthalpy           new  =     -38.4506992206 Ry

     CASE: enthalpy          _new < enthalpy          _old

     new trust radius        =       0.0700346479 bohr
ibrav =      3
 celldm(1) =      8.49746396
Input lattice vectors:
     0.44350685     0.44350685     0.44350685
    -0.44350685     0.44350685     0.44350685
    -0.44350685    -0.44350685     0.44350685
New lattice vectors in INITIAL alat:
     0.44350685     0.44350685     0.44350685
    -0.44350685     0.44350685     0.44350685
    -0.44350685    -0.44350685     0.44350685
New lattice vectors in NEW alat (for information only):
     0.50000000     0.50000000     0.50000000
    -0.50000000     0.50000000     0.50000000
    -0.50000000    -0.50000000     0.50000000
Discrepancy in bohr =     0.000000    0.000000    0.000000
     new conv_thr            =            1.0E-10 Ry

     new unit-cell volume =    306.78774 a.u.^3 (    45.46125 Ang^3 )
     density =      3.33112 g/cm^3

CELL_PARAMETERS (alat=  9.57985641)
   0.443506854   0.443506854   0.443506854
  -0.443506854   0.443506854   0.443506854
  -0.443506854  -0.443506854   0.443506854

ATOMIC_POSITIONS (crystal)
Si            0.5000000000        0.0000000000        0.5000000000
Si            0.5000000000       -0.5000000000       -0.0000000000
Si            0.0000000000        0.5000000000       -0.5000000000
Li            0.0000000000       -0.0000000000       -0.0000000000



     Writing config-only to output data dir ./output/SiLi.save/
     NEW-OLD atomic charge density approx. for the potential
     extrapolated charge   15.89027, renormalised to   15.00000

     total cpu time spent up to now is       11.1 secs

     Self-consistent Calculation

     iteration #  1     ecut=    80.00 Ry     beta= 0.70
     Davidson diagonalization with overlap
     ethr =  1.00E-06,  avg # of iterations =  7.4

     total cpu time spent up to now is       11.4 secs

     total energy              =     -39.49860149 Ry
     estimated scf accuracy    <       0.00046335 Ry

     iteration #  2     ecut=    80.00 Ry     beta= 0.70
     Davidson diagonalization with overlap
     ethr =  3.09E-06,  avg # of iterations =  3.6

     total cpu time spent up to now is       11.6 secs

     total energy              =     -39.50129498 Ry
     estimated scf accuracy    <       0.00060340 Ry

     iteration #  3     ecut=    80.00 Ry     beta= 0.70
     Davidson diagonalization with overlap
     ethr =  3.09E-06,  avg # of iterations =  1.0

     total cpu time spent up to now is       11.7 secs

     total energy              =     -39.50123024 Ry
     estimated scf accuracy    <       0.00020304 Ry

     iteration #  4     ecut=    80.00 Ry     beta= 0.70
     Davidson diagonalization with overlap
     ethr =  1.35E-06,  avg # of iterations =  1.2

     total cpu time spent up to now is       11.8 secs

     total energy              =     -39.50119783 Ry
     estimated scf accuracy    <       0.00005806 Ry

     iteration #  5     ecut=    80.00 Ry     beta= 0.70
     Davidson diagonalization with overlap
     ethr =  3.87E-07,  avg # of iterations =  2.0

     total cpu time spent up to now is       11.9 secs

     total energy              =     -39.50120598 Ry
     estimated scf accuracy    <       0.00000033 Ry

     iteration #  6     ecut=    80.00 Ry     beta= 0.70
     Davidson diagonalization with overlap
     ethr =  2.17E-09,  avg # of iterations =  3.1

     total cpu time spent up to now is       12.1 secs

     total energy              =     -39.50120611 Ry
     estimated scf accuracy    <       0.00000003 Ry

     iteration #  7     ecut=    80.00 Ry     beta= 0.70
     Davidson diagonalization with overlap
     ethr =  1.89E-10,  avg # of iterations =  2.2

     total cpu time spent up to now is       12.3 secs

     total energy              =     -39.50120612 Ry
     estimated scf accuracy    <          9.6E-09 Ry

     iteration #  8     ecut=    80.00 Ry     beta= 0.70
     Davidson diagonalization with overlap
     ethr =  6.39E-11,  avg # of iterations =  2.0

     total cpu time spent up to now is       12.4 secs

     total energy              =     -39.50120612 Ry
     estimated scf accuracy    <          2.6E-09 Ry

     iteration #  9     ecut=    80.00 Ry     beta= 0.70
     Davidson diagonalization with overlap
     ethr =  1.75E-11,  avg # of iterations =  1.4

     total cpu time spent up to now is       12.6 secs

     total energy              =     -39.50120612 Ry
     estimated scf accuracy    <          3.1E-10 Ry

     iteration # 10     ecut=    80.00 Ry     beta= 0.70
     Davidson diagonalization with overlap
     ethr =  2.07E-12,  avg # of iterations =  2.2

     total cpu time spent up to now is       12.7 secs

     End of self-consistent calculation

          k = 0.0000 0.0000 0.0000 (  5281 PWs)   bands (ev):

   -34.7116  -3.3230   7.6746   7.6746   7.6746   9.6322   9.6322  10.4916
    10.4916  10.4916  12.5461  12.5461

          k =-0.0000-0.2255 0.2255 (  5301 PWs)   bands (ev):

   -34.7110  -2.8245   4.7989   6.7983   6.9535   9.1083   9.4229   9.6510
    11.4623  12.7587  14.3303  15.0004

          k =-0.0000-0.4510 0.4510 (  5310 PWs)   bands (ev):

   -34.7100  -1.4077   1.5353   5.8921   6.1804   8.0693   8.8929  10.9618
    13.3214  14.0898  16.1470  17.0305

          k =-0.2255-0.2255 0.4510 (  5323 PWs)   bands (ev):

   -34.7102  -1.8473   2.8502   4.1605   7.5459   8.0394   9.5603  10.9734
    13.2641  13.6477  14.5206  16.7903

          k =-0.2255 0.6764-0.4510 (  5303 PWs)   bands (ev):

   -34.7096  -0.3860   0.7706   3.3754   7.0305   8.1481  10.2344  11.3697
    12.5984  15.0282  15.2940  17.7294

          k =-0.0000 0.0000 0.4510 (  5310 PWs)   bands (ev):

   -34.7105  -2.3275   4.3051   5.8032   5.8032   7.4201  10.3223  10.3223
    12.8805  13.6213  14.2199  14.6410

          k =-0.0000-0.2255 0.6764 (  5301 PWs)   bands (ev):

   -34.7097  -0.9066   1.8184   4.8556   5.0111   7.6776  10.2766  10.3062
    11.4558  14.8705  16.6372  17.1612

          k =-0.2255 0.9019-0.2255 (  5327 PWs)   bands (ev):

   -34.7094   0.6665   0.6665   3.1753   6.3245   6.3245   9.3543  10.4837
    13.6153  13.6153  18.5453  19.0787

          k = 0.6764-0.6764 0.4510 (  5300 PWs)   bands (ev):

   -34.7096  -0.4512   1.8189   1.8189   5.7384  10.6747  12.3982  12.3982
    13.4557  13.4557  15.4508  15.4508

          k =-0.0000 0.0000 0.9019 (  5346 PWs)   bands (ev):

   -34.7092   0.5077   2.1276   3.8595   3.8595   4.9506   8.8393  13.1000
    13.1000  14.2150  16.4596  19.1515

     the Fermi energy is    10.9814 ev

!    total energy              =     -39.50120612 Ry
     estimated scf accuracy    <          1.5E-12 Ry
     smearing contrib. (-TS)   =      -0.00060848 Ry
     internal energy E=F+TS    =     -39.50059764 Ry

     The total energy is F=E-TS. E is the sum of the following terms:
     one-electron contribution =       8.34104100 Ry
     hartree contribution      =       3.28630317 Ry
     xc contribution           =     -13.30294452 Ry
     ewald contribution        =     -37.82499729 Ry

     convergence has been achieved in  10 iterations

     Forces acting on atoms (cartesian axes, Ry/au):

     atom    1 type  1   force =     0.00000000   -0.00000000   -0.00000000
     atom    2 type  1   force =    -0.00000000    0.00000000   -0.00000000
     atom    3 type  1   force =     0.00000000   -0.00000000    0.00000000
     atom    4 type  2   force =    -0.00000000    0.00000000   -0.00000000
     The non-local contrib.  to forces
     atom    1 type  1   force =     0.00000000    0.00000000    0.00000000
     atom    2 type  1   force =    -0.00000000   -0.00000000    0.00000000
     atom    3 type  1   force =    -0.00000000   -0.00000000   -0.00000000
     atom    4 type  2   force =    -0.00000000   -0.00000000    0.00000000
     The ionic contribution  to forces
     atom    1 type  1   force =    -0.00000000    0.00000000   -0.00000000
     atom    2 type  1   force =     0.00000000   -0.00000000    0.00000000
     atom    3 type  1   force =    -0.00000000    0.00000000   -0.00000000
     atom    4 type  2   force =    -0.00000000   -0.00000000   -0.00000000
     The local contribution  to forces
     atom    1 type  1   force =    -0.00000000   -0.00000000   -0.00000000
     atom    2 type  1   force =     0.00000000    0.00000000   -0.00000000
     atom    3 type  1   force =     0.00000000    0.00000000    0.00000000
     atom    4 type  2   force =    -0.00000000    0.00000000   -0.00000000
     The core correction contribution to forces
     atom    1 type  1   force =     0.00000000   -0.00000000   -0.00000000
     atom    2 type  1   force =    -0.00000000    0.00000000    0.00000000
     atom    3 type  1   force =     0.00000000   -0.00000000    0.00000000
     atom    4 type  2   force =     0.00000000    0.00000000    0.00000000
     The Hubbard contrib.    to forces
     atom    1 type  1   force =     0.00000000    0.00000000    0.00000000
     atom    2 type  1   force =     0.00000000    0.00000000    0.00000000
     atom    3 type  1   force =     0.00000000    0.00000000    0.00000000
     atom    4 type  2   force =     0.00000000    0.00000000    0.00000000
     The SCF correction term to forces
     atom    1 type  1   force =    -0.00000000    0.00000000    0.00000000
     atom    2 type  1   force =     0.00000000    0.00000000    0.00000000
     atom    3 type  1   force =    -0.00000000   -0.00000000    0.00000000
     atom    4 type  2   force =    -0.00000000   -0.00000000    0.00000000

     Total force =     0.000000     Total SCF correction =     0.000000


     Computing stress (Cartesian axis) and pressure

          total   stress  (Ry/bohr**3)                   (kbar)     P=      484.14
   0.00329112   0.00000000  -0.00000000          484.14        0.00       -0.00
   0.00000000   0.00329112   0.00000000            0.00      484.14        0.00
  -0.00000000  -0.00000000   0.00329112           -0.00       -0.00      484.14

     Energy error            =      7.8E-03 Ry
     Gradient error          =      2.4E-32 Ry/Bohr
     Cell gradient error     =      1.6E+01 kbar

     number of scf cycles    =   4
     number of bfgs steps    =   3

     enthalpy           old  =     -38.4506992206 Ry
     enthalpy           new  =     -38.4584557887 Ry

     CASE: enthalpy          _new < enthalpy          _old

     new trust radius        =       0.0071000765 bohr
ibrav =      3
 celldm(1) =      8.48024117
Input lattice vectors:
     0.44260795     0.44260795     0.44260795
    -0.44260795     0.44260795     0.44260795
    -0.44260795    -0.44260795     0.44260795
New lattice vectors in INITIAL alat:
     0.44260795     0.44260795     0.44260795
    -0.44260795     0.44260795     0.44260795
    -0.44260795    -0.44260795     0.44260795
New lattice vectors in NEW alat (for information only):
     0.50000000     0.50000000     0.50000000
    -0.50000000     0.50000000     0.50000000
    -0.50000000    -0.50000000     0.50000000
Discrepancy in bohr =     0.000000    0.000000    0.000000
     new conv_thr            =            1.0E-10 Ry

     new unit-cell volume =    304.92611 a.u.^3 (    45.18539 Ang^3 )
     density =      3.35146 g/cm^3

CELL_PARAMETERS (alat=  9.57985641)
   0.442607948   0.442607948   0.442607948
  -0.442607948   0.442607948   0.442607948
  -0.442607948  -0.442607948   0.442607948

ATOMIC_POSITIONS (crystal)
Si            0.5000000000       -0.0000000000        0.5000000000
Si            0.5000000000       -0.5000000000       -0.0000000000
Si           -0.0000000000        0.5000000000       -0.5000000000
Li           -0.0000000000        0.0000000000       -0.0000000000



     Writing config-only to output data dir ./output/SiLi.save/
     NEW-OLD atomic charge density approx. for the potential
     extrapolated charge   14.90846, renormalised to   15.00000

     total cpu time spent up to now is       14.1 secs

     Self-consistent Calculation

     iteration #  1     ecut=    80.00 Ry     beta= 0.70
     Davidson diagonalization with overlap
     ethr =  1.00E-06,  avg # of iterations =  3.0

     Threshold (ethr) on eigenvalues was too large:
     Diagonalizing with lowered threshold

     Davidson diagonalization with overlap
     ethr =  4.80E-08,  avg # of iterations =  2.4

     total cpu time spent up to now is       14.4 secs

     total energy              =     -39.49495749 Ry
     estimated scf accuracy    <       0.00000662 Ry

     iteration #  2     ecut=    80.00 Ry     beta= 0.70
     Davidson diagonalization with overlap
     ethr =  4.41E-08,  avg # of iterations =  3.1

     total cpu time spent up to now is       14.6 secs

     total energy              =     -39.49498602 Ry
     estimated scf accuracy    <       0.00000607 Ry

     iteration #  3     ecut=    80.00 Ry     beta= 0.70
     Davidson diagonalization with overlap
     ethr =  4.05E-08,  avg # of iterations =  1.0

     total cpu time spent up to now is       14.7 secs

     total energy              =     -39.49498550 Ry
     estimated scf accuracy    <       0.00000171 Ry

     iteration #  4     ecut=    80.00 Ry     beta= 0.70
     Davidson diagonalization with overlap
     ethr =  1.14E-08,  avg # of iterations =  2.0

     total cpu time spent up to now is       14.8 secs

     total energy              =     -39.49498531 Ry
     estimated scf accuracy    <       0.00000038 Ry

     iteration #  5     ecut=    80.00 Ry     beta= 0.70
     Davidson diagonalization with overlap
     ethr =  2.53E-09,  avg # of iterations =  2.0

     total cpu time spent up to now is       15.0 secs

     total energy              =     -39.49498537 Ry
     estimated scf accuracy    <       0.00000001 Ry

     iteration #  6     ecut=    80.00 Ry     beta= 0.70
     Davidson diagonalization with overlap
     ethr =  7.75E-11,  avg # of iterations =  2.3

     total cpu time spent up to now is       15.1 secs

     total energy              =     -39.49498537 Ry
     estimated scf accuracy    <          1.4E-09 Ry

     iteration #  7     ecut=    80.00 Ry     beta= 0.70
     Davidson diagonalization with overlap
     ethr =  9.22E-12,  avg # of iterations =  2.0

     total cpu time spent up to now is       15.3 secs

     End of self-consistent calculation

          k = 0.0000 0.0000 0.0000 (  5281 PWs)   bands (ev):

   -34.6380  -3.2881   7.7475   7.7475   7.7475   9.7481   9.7481  10.5689
    10.5689  10.5689  12.6066  12.6066

          k = 0.0000-0.2259 0.2259 (  5301 PWs)   bands (ev):

   -34.6373  -2.7878   4.8669   6.8794   7.0191   9.1720   9.4968   9.7358
    11.5655  12.8629  14.4023  15.0791

          k = 0.0000-0.4519 0.4519 (  5310 PWs)   bands (ev):

   -34.6363  -1.3655   1.5890   5.9728   6.2404   8.1272   8.9707  11.0461
    13.4196  14.1784  16.2681  17.1441

          k =-0.2259-0.2259 0.4519 (  5323 PWs)   bands (ev):

   -34.6365  -1.8068   2.9109   4.2221   7.6091   8.1128   9.6436  11.0528
    13.3594  13.7508  14.6148  16.8862

          k =-0.2259 0.6778-0.4519 (  5303 PWs)   bands (ev):

   -34.6359  -0.3394   0.8215   3.4342   7.0928   8.2229  10.3163  11.4530
    12.6866  15.1318  15.3937  17.8431

          k =-0.0000 0.0000 0.4519 (  5310 PWs)   bands (ev):

   -34.6368  -2.2889   4.3804   5.8593   5.8593   7.5061  10.3994  10.3994
    12.9926  13.6864  14.3114  14.7564

          k =-0.0000-0.2259 0.6778 (  5301 PWs)   bands (ev):

   -34.6360  -0.8620   1.8755   4.9063   5.0803   7.7522  10.3495  10.3920
    11.5416  14.9811  16.7201  17.2730

          k =-0.2259 0.9037-0.2259 (  5327 PWs)   bands (ev):

   -34.6357   0.7190   0.7190   3.2257   6.3897   6.3897   9.4378  10.5648
    13.7109  13.7109  18.6488  19.1896

          k = 0.6778-0.6778 0.4519 (  5300 PWs)   bands (ev):

   -34.6359  -0.4052   1.8741   1.8741   5.7936  10.7578  12.4888  12.4888
    13.5481  13.5481  15.5510  15.5510

          k =-0.0000 0.0000 0.9037 (  5346 PWs)   bands (ev):

   -34.6355   0.5600   2.1958   3.9054   3.9054   5.0137   8.9270  13.1936
    13.1936  14.3233  16.5373  19.2491

     the Fermi energy is    11.0628 ev

!    total energy              =     -39.49498537 Ry
     estimated scf accuracy    <          9.2E-11 Ry
     smearing contrib. (-TS)   =      -0.00062067 Ry
     internal energy E=F+TS    =     -39.49436469 Ry

     The total energy is F=E-TS. E is the sum of the following terms:
     one-electron contribution =       8.44541131 Ry
     hartree contribution      =       3.27974777 Ry
     xc contribution           =     -13.31770653 Ry
     ewald contribution        =     -37.90181725 Ry

     convergence has been achieved in   7 iterations

     Forces acting on atoms (cartesian axes, Ry/au):

     atom    1 type  1   force =     0.00000000   -0.00000000    0.00000000
     atom    2 type  1   force =     0.00000000    0.00000000    0.00000000
     atom    3 type  1   force =     0.00000000    0.00000000   -0.00000000
     atom    4 type  2   force =     0.00000000    0.00000000   -0.00000000
     The non-local contrib.  to forces
     atom    1 type  1   force =     0.00000000   -0.00000000    0.00000000
     atom    2 type  1   force =     0.00000000   -0.00000000   -0.00000000
     atom    3 type  1   force =     0.00000000    0.00000000    0.00000000
     atom    4 type  2   force =    -0.00000000   -0.00000000    0.00000000
     The ionic contribution  to forces
     atom    1 type  1   force =    -0.00000000    0.00000000   -0.00000000
     atom    2 type  1   force =    -0.00000000   -0.00000000   -0.00000000
     atom    3 type  1   force =    -0.00000000    0.00000000   -0.00000000
     atom    4 type  2   force =    -0.00000000   -0.00000000   -0.00000000
     The local contribution  to forces
     atom    1 type  1   force =    -0.00000000   -0.00000000   -0.00000000
     atom    2 type  1   force =     0.00000000    0.00000000   -0.00000000
     atom    3 type  1   force =     0.00000000    0.00000000    0.00000000
     atom    4 type  2   force =     0.00000000    0.00000000   -0.00000000
     The core correction contribution to forces
     atom    1 type  1   force =     0.00000000   -0.00000000   -0.00000000
     atom    2 type  1   force =    -0.00000000    0.00000000    0.00000000
     atom    3 type  1   force =     0.00000000   -0.00000000   -0.00000000
     atom    4 type  2   force =     0.00000000    0.00000000    0.00000000
     The Hubbard contrib.    to forces
     atom    1 type  1   force =     0.00000000    0.00000000    0.00000000
     atom    2 type  1   force =     0.00000000    0.00000000    0.00000000
     atom    3 type  1   force =     0.00000000    0.00000000    0.00000000
     atom    4 type  2   force =     0.00000000    0.00000000    0.00000000
     The SCF correction term to forces
     atom    1 type  1   force =    -0.00000000    0.00000000   -0.00000000
     atom    2 type  1   force =     0.00000000    0.00000000    0.00000000
     atom    3 type  1   force =     0.00000000    0.00000000   -0.00000000
     atom    4 type  2   force =     0.00000000    0.00000000    0.00000000

     Total force =     0.000000     Total SCF correction =     0.000000


     Computing stress (Cartesian axis) and pressure

          total   stress  (Ry/bohr**3)                   (kbar)     P=      499.05
   0.00339245  -0.00000000   0.00000000          499.05       -0.00        0.00
  -0.00000000   0.00339245  -0.00000000           -0.00      499.05       -0.00
   0.00000000  -0.00000000   0.00339245            0.00       -0.00      499.05

     Energy error            =      1.1E-04 Ry
     Gradient error          =      1.9E-32 Ry/Bohr
     Cell gradient error     =      9.5E-01 kbar

     number of scf cycles    =   5
     number of bfgs steps    =   4

     enthalpy           old  =     -38.4584557887 Ry
     enthalpy           new  =     -38.4585625818 Ry

     CASE: enthalpy          _new < enthalpy          _old

     new trust radius        =       0.0004518353 bohr
ibrav =      3
 celldm(1) =      8.47914403
Input lattice vectors:
     0.44255068     0.44255068     0.44255068
    -0.44255068     0.44255068     0.44255068
    -0.44255068    -0.44255068     0.44255068
New lattice vectors in INITIAL alat:
     0.44255068     0.44255068     0.44255068
    -0.44255068     0.44255068     0.44255068
    -0.44255068    -0.44255068     0.44255068
New lattice vectors in NEW alat (for information only):
     0.50000000     0.50000000     0.50000000
    -0.50000000     0.50000000     0.50000000
    -0.50000000    -0.50000000     0.50000000
Discrepancy in bohr =     0.000000    0.000000    0.000000
     new conv_thr            =            1.0E-10 Ry

     new unit-cell volume =    304.80778 a.u.^3 (    45.16785 Ang^3 )
     density =      3.35276 g/cm^3

CELL_PARAMETERS (alat=  9.57985641)
   0.442550685   0.442550685   0.442550685
  -0.442550685   0.442550685   0.442550685
  -0.442550685  -0.442550685   0.442550685

ATOMIC_POSITIONS (crystal)
Si            0.5000000000       -0.0000000000        0.5000000000
Si            0.5000000000       -0.5000000000       -0.0000000000
Si           -0.0000000000        0.5000000000       -0.5000000000
Li           -0.0000000000        0.0000000000       -0.0000000000



     Writing config-only to output data dir ./output/SiLi.save/
     NEW-OLD atomic charge density approx. for the potential
     extrapolated charge   14.99418, renormalised to   15.00000

     total cpu time spent up to now is       16.6 secs

     Self-consistent Calculation

     iteration #  1     ecut=    80.00 Ry     beta= 0.70
     Davidson diagonalization with overlap
     ethr =  1.00E-06,  avg # of iterations =  1.0

     Threshold (ethr) on eigenvalues was too large:
     Diagonalizing with lowered threshold

     Davidson diagonalization with overlap
     ethr =  2.24E-10,  avg # of iterations =  4.3

     total cpu time spent up to now is       16.9 secs

     total energy              =     -39.49458342 Ry
     estimated scf accuracy    <       0.00000003 Ry

     iteration #  2     ecut=    80.00 Ry     beta= 0.70
     Davidson diagonalization with overlap
     ethr =  1.77E-10,  avg # of iterations =  3.1

     total cpu time spent up to now is       17.1 secs

     total energy              =     -39.49458354 Ry
     estimated scf accuracy    <       0.00000002 Ry

     iteration #  3     ecut=    80.00 Ry     beta= 0.70
     Davidson diagonalization with overlap
     ethr =  1.66E-10,  avg # of iterations =  1.0

     total cpu time spent up to now is       17.2 secs

     total energy              =     -39.49458354 Ry
     estimated scf accuracy    <          7.1E-09 Ry

     iteration #  4     ecut=    80.00 Ry     beta= 0.70
     Davidson diagonalization with overlap
     ethr =  4.72E-11,  avg # of iterations =  1.8

     total cpu time spent up to now is       17.3 secs

     total energy              =     -39.49458354 Ry
     estimated scf accuracy    <          1.6E-09 Ry

     iteration #  5     ecut=    80.00 Ry     beta= 0.70
     Davidson diagonalization with overlap
     ethr =  1.10E-11,  avg # of iterations =  2.0

     total cpu time spent up to now is       17.5 secs

     End of self-consistent calculation

          k = 0.0000 0.0000 0.0000 (  5281 PWs)   bands (ev):

   -34.6336  -3.2859   7.7522   7.7522   7.7522   9.7555   9.7555  10.5738
    10.5738  10.5738  12.6104  12.6104

          k = 0.0000-0.2260 0.2260 (  5301 PWs)   bands (ev):

   -34.6329  -2.7854   4.8712   6.8846   7.0233   9.1760   9.5015   9.7412
    11.5721  12.8696  14.4069  15.0841

          k = 0.0000-0.4519 0.4519 (  5310 PWs)   bands (ev):

   -34.6319  -1.3628   1.5925   5.9780   6.2442   8.1309   8.9757  11.0515
    13.4259  14.1841  16.2758  17.1513

          k =-0.2260-0.2260 0.4519 (  5323 PWs)   bands (ev):

   -34.6321  -1.8042   2.9148   4.2261   7.6132   8.1175   9.6489  11.0579
    13.3655  13.7574  14.6208  16.8924

          k =-0.2260 0.6779-0.4519 (  5303 PWs)   bands (ev):

   -34.6315  -0.3364   0.8248   3.4379   7.0968   8.2277  10.3215  11.4583
    12.6923  15.1384  15.4001  17.8504

          k = 0.0000-0.0000 0.4519 (  5310 PWs)   bands (ev):

   -34.6324  -2.2864   4.3852   5.8629   5.8629   7.5116  10.4043  10.4043
    12.9997  13.6905  14.3172  14.7638

          k =-0.0000-0.2260 0.6779 (  5301 PWs)   bands (ev):

   -34.6316  -0.8592   1.8792   4.9096   5.0847   7.7569  10.3542  10.3975
    11.5471  14.9882  16.7254  17.2801

          k =-0.2260 0.9039-0.2260 (  5327 PWs)   bands (ev):

   -34.6312   0.7224   0.7224   3.2289   6.3939   6.3939   9.4431  10.5700
    13.7170  13.7170  18.6554  19.1967

          k = 0.6779-0.6779 0.4519 (  5300 PWs)   bands (ev):

   -34.6315  -0.4023   1.8777   1.8777   5.7971  10.7631  12.4946  12.4946
    13.5540  13.5540  15.5574  15.5574

          k = 0.0000-0.0000 0.9039 (  5346 PWs)   bands (ev):

   -34.6311   0.5634   2.2001   3.9083   3.9083   5.0177   8.9326  13.1996
    13.1996  14.3302  16.5423  19.2554

     the Fermi energy is    11.0680 ev

!    total energy              =     -39.49458354 Ry
     estimated scf accuracy    <          4.9E-11 Ry
     smearing contrib. (-TS)   =      -0.00062146 Ry
     internal energy E=F+TS    =     -39.49396208 Ry

     The total energy is F=E-TS. E is the sum of the following terms:
     one-electron contribution =       8.45207200 Ry
     hartree contribution      =       3.27933845 Ry
     xc contribution           =     -13.31865106 Ry
     ewald contribution        =     -37.90672146 Ry

     convergence has been achieved in   5 iterations

     Forces acting on atoms (cartesian axes, Ry/au):

     atom    1 type  1   force =     0.00000000   -0.00000000    0.00000000
     atom    2 type  1   force =    -0.00000000    0.00000000    0.00000000
     atom    3 type  1   force =     0.00000000   -0.00000000    0.00000000
     atom    4 type  2   force =    -0.00000000    0.00000000    0.00000000
     The non-local contrib.  to forces
     atom    1 type  1   force =    -0.00000000   -0.00000000   -0.00000000
     atom    2 type  1   force =    -0.00000000    0.00000000   -0.00000000
     atom    3 type  1   force =     0.00000000   -0.00000000   -0.00000000
     atom    4 type  2   force =    -0.00000000    0.00000000   -0.00000000
     The ionic contribution  to forces
     atom    1 type  1   force =    -0.00000000    0.00000000   -0.00000000
     atom    2 type  1   force =    -0.00000000    0.00000000    0.00000000
     atom    3 type  1   force =     0.00000000    0.00000000   -0.00000000
     atom    4 type  2   force =    -0.00000000   -0.00000000   -0.00000000
     The local contribution  to forces
     atom    1 type  1   force =    -0.00000000   -0.00000000   -0.00000000
     atom    2 type  1   force =     0.00000000    0.00000000   -0.00000000
     atom    3 type  1   force =     0.00000000    0.00000000   -0.00000000
     atom    4 type  2   force =    -0.00000000    0.00000000   -0.00000000
     The core correction contribution to forces
     atom    1 type  1   force =     0.00000000    0.00000000   -0.00000000
     atom    2 type  1   force =    -0.00000000    0.00000000   -0.00000000
     atom    3 type  1   force =     0.00000000    0.00000000   -0.00000000
     atom    4 type  2   force =     0.00000000    0.00000000    0.00000000
     The Hubbard contrib.    to forces
     atom    1 type  1   force =     0.00000000    0.00000000    0.00000000
     atom    2 type  1   force =     0.00000000    0.00000000    0.00000000
     atom    3 type  1   force =     0.00000000    0.00000000    0.00000000
     atom    4 type  2   force =     0.00000000    0.00000000    0.00000000
     The SCF correction term to forces
     atom    1 type  1   force =     0.00000000   -0.00000000    0.00000000
     atom    2 type  1   force =    -0.00000000   -0.00000000    0.00000000
     atom    3 type  1   force =     0.00000000    0.00000000   -0.00000000
     atom    4 type  2   force =    -0.00000000   -0.00000000   -0.00000000

     Total force =     0.000000     Total SCF correction =     0.000000


     Computing stress (Cartesian axis) and pressure

          total   stress  (Ry/bohr**3)                   (kbar)     P=      500.01
   0.00339900  -0.00000000   0.00000000          500.01       -0.00        0.00
  -0.00000000   0.00339900  -0.00000000           -0.00      500.01       -0.00
   0.00000000  -0.00000000   0.00339900            0.00       -0.00      500.01

     Energy error            =      3.8E-07 Ry
     Gradient error          =      3.2E-32 Ry/Bohr
     Cell gradient error     =      9.5E-03 kbar
ibrav =      3
 celldm(1) =      8.47914403
Input lattice vectors:
     0.44255068     0.44255068     0.44255068
    -0.44255068     0.44255068     0.44255068
    -0.44255068    -0.44255068     0.44255068
New lattice vectors in INITIAL alat:
     0.44255068     0.44255068     0.44255068
    -0.44255068     0.44255068     0.44255068
    -0.44255068    -0.44255068     0.44255068
New lattice vectors in NEW alat (for information only):
     0.50000000     0.50000000     0.50000000
    -0.50000000     0.50000000     0.50000000
    -0.50000000    -0.50000000     0.50000000
Discrepancy in bohr =     0.000000    0.000000    0.000000

     bfgs converged in   6 scf cycles and   5 bfgs steps
     (criteria: energy <  1.0E-04 Ry, force <  1.0E-03 Ry/Bohr, cell <  1.0E+00 kbar)

     End of BFGS Geometry Optimization

     Final enthalpy           =     -38.4585629618 Ry

     File ./output/SiLi.bfgs deleted, as requested
Begin final coordinates
     new unit-cell volume =    304.80778 a.u.^3 (    45.16785 Ang^3 )
     density =      3.35276 g/cm^3

CELL_PARAMETERS (alat=  9.57985641)
   0.442550685   0.442550685   0.442550685
  -0.442550685   0.442550685   0.442550685
  -0.442550685  -0.442550685   0.442550685

ATOMIC_POSITIONS (crystal)
Si            0.5000000000       -0.0000000000        0.5000000000
Si            0.5000000000       -0.5000000000        0.0000000000
Si           -0.0000000000        0.5000000000       -0.5000000000
Li           -0.0000000000        0.0000000000       -0.0000000000
End final coordinates



     Writing config-only to output data dir ./output/SiLi.save/

     Final scf calculation at the relaxed structure.
     The G-vectors are recalculated for the final unit cell
     Results may differ from those at the preceding step.

     Parallelization info
     --------------------
     sticks:   dense  smooth     PW     G-vecs:    dense   smooth      PW
     Min         161     161     46                 3673     3673     571
     Max         162     162     47                 3674     3674     574
     Sum        1291    1291    375                29389    29389    4585

     Using Slab Decomposition



     bravais-lattice index     =            3
     lattice parameter (alat)  =       9.5799  a.u.
     unit-cell volume          =     304.8078 (a.u.)^3
     number of atoms/cell      =            4
     number of atomic types    =            2
     number of electrons       =        15.00
     number of Kohn-Sham states=           12
     kinetic-energy cutoff     =      80.0000  Ry
     charge density cutoff     =     320.0000  Ry
     scf convergence threshold =      1.0E-10
     mixing beta               =       0.7000
     number of iterations used =            8  plain     mixing
     press convergence thresh. =      1.0E+00
     Exchange-correlation= PBE
                           (   1   4   3   4   0   0   0)

     celldm(1)=   9.579856  celldm(2)=   0.000000  celldm(3)=   0.000000
     celldm(4)=   0.000000  celldm(5)=   0.000000  celldm(6)=   0.000000

     crystal axes: (cart. coord. in units of alat)
               a(1) = (   0.442551   0.442551   0.442551 )  
               a(2) = (  -0.442551   0.442551   0.442551 )  
               a(3) = (  -0.442551  -0.442551   0.442551 )  

     reciprocal axes: (cart. coord. in units 2 pi/alat)
               b(1) = (  1.129814 -0.000000  1.129814 )  
               b(2) = ( -1.129814  1.129814 -0.000000 )  
               b(3) = (  0.000000 -1.129814  1.129814 )  


     PseudoPot. # 1 for Si read from file:
     ../pseudo/Si_ONCV_PBE_sr.upf
     MD5 check sum: e543d271109d17c80368dfa7c482276d
     Pseudo is Norm-conserving + core correction, Zval =  4.0
     Generated using ONCVPSP code by D. R. Hamann
     Using radial grid of 1510 points,  6 beta functions with: 
                l(1) =   0
                l(2) =   0
                l(3) =   1
                l(4) =   1
                l(5) =   2
                l(6) =   2

     PseudoPot. # 2 for Li read from file:
     ../pseudo/Li_ONCV_PBE_sr.upf
     MD5 check sum: 50ff420e78310ffa21704f3361e624a4
     Pseudo is Norm-conserving, Zval =  3.0
     Generated using ONCVPSP code by D. R. Hamann
     Using radial grid of 1944 points,  4 beta functions with: 
                l(1) =   0
                l(2) =   0
                l(3) =   1
                l(4) =   1

     atomic species   valence    mass     pseudopotential
        Si             4.00    28.08550     Si( 1.00)
        Li             3.00     6.94100     Li( 1.00)

     48 Sym. Ops., with inversion, found



   Cartesian axes

     site n.     atom                  positions (alat units)
         1           Si  tau(   1) = (   0.0000000   0.0000000   0.4425507  )
         2           Si  tau(   2) = (   0.4425507   0.0000000  -0.0000000  )
         3           Si  tau(   3) = (   0.0000000   0.4425507   0.0000000  )
         4           Li  tau(   4) = (   0.0000000   0.0000000  -0.0000000  )

     number of k points=    10  Marzari-Vanderbilt smearing, width (Ry)=  0.0200
                       cart. coord. in units 2pi/alat
        k(    1) = (   0.0000000   0.0000000   0.0000000), wk =   0.0160000
        k(    2) = (   0.0000000  -0.2259628   0.2259628), wk =   0.1920000
        k(    3) = (   0.0000000  -0.4519256   0.4519256), wk =   0.1920000
        k(    4) = (  -0.2259628  -0.2259628   0.4519256), wk =   0.3840000
        k(    5) = (  -0.2259628   0.6778885  -0.4519256), wk =   0.3840000
        k(    6) = (   0.0000000  -0.0000000   0.4519256), wk =   0.0960000
        k(    7) = (  -0.0000000  -0.2259628   0.6778885), wk =   0.3840000
        k(    8) = (  -0.2259628   0.9038513  -0.2259628), wk =   0.1280000
        k(    9) = (   0.6778885  -0.6778885   0.4519256), wk =   0.1280000
        k(   10) = (   0.0000000  -0.0000000   0.9038513), wk =   0.0960000

     Dense  grid:    29389 G-vectors     FFT dimensions: (  45,  45,  45)

     Estimated max dynamical RAM per process >      15.78 MB

     Estimated total dynamical RAM >     126.24 MB

     Initial potential from superposition of free atoms

     starting charge      14.9936, renormalised to      15.0000
     Starting wfcs are   14 randomized atomic wfcs

     total cpu time spent up to now is       18.8 secs

     Self-consistent Calculation

     iteration #  1     ecut=    80.00 Ry     beta= 0.70
     Davidson diagonalization with overlap
     c_bands:  2 eigenvalues not converged
     c_bands:  1 eigenvalues not converged
     c_bands:  1 eigenvalues not converged
     c_bands:  2 eigenvalues not converged
     ethr =  1.00E-06,  avg # of iterations = 18.2

     total cpu time spent up to now is       19.4 secs

     total energy              =     -39.49397716 Ry
     estimated scf accuracy    <       0.01406117 Ry

     iteration #  2     ecut=    80.00 Ry     beta= 0.70
     Davidson diagonalization with overlap
     ethr =  9.37E-05,  avg # of iterations =  1.0

     total cpu time spent up to now is       19.6 secs

     total energy              =     -39.49450009 Ry
     estimated scf accuracy    <       0.00090906 Ry

     iteration #  3     ecut=    80.00 Ry     beta= 0.70
     Davidson diagonalization with overlap
     ethr =  6.06E-06,  avg # of iterations =  1.5

     total cpu time spent up to now is       19.7 secs

     total energy              =     -39.49454824 Ry
     estimated scf accuracy    <       0.00002415 Ry

     iteration #  4     ecut=    80.00 Ry     beta= 0.70
     Davidson diagonalization with overlap
     ethr =  1.61E-07,  avg # of iterations =  4.1

     total cpu time spent up to now is       19.9 secs

     total energy              =     -39.49455956 Ry
     estimated scf accuracy    <       0.00000230 Ry

     iteration #  5     ecut=    80.00 Ry     beta= 0.70
     Davidson diagonalization with overlap
     ethr =  1.53E-08,  avg # of iterations =  2.0

     total cpu time spent up to now is       20.1 secs

     total energy              =     -39.49455977 Ry
     estimated scf accuracy    <       0.00000044 Ry

     iteration #  6     ecut=    80.00 Ry     beta= 0.70
     Davidson diagonalization with overlap
     ethr =  2.90E-09,  avg # of iterations =  1.7

     total cpu time spent up to now is       20.2 secs

     total energy              =     -39.49455982 Ry
     estimated scf accuracy    <          1.7E-10 Ry

     iteration #  7     ecut=    80.00 Ry     beta= 0.70
     Davidson diagonalization with overlap
     ethr =  1.16E-12,  avg # of iterations =  6.0

     total cpu time spent up to now is       20.4 secs

     total energy              =     -39.49455983 Ry
     estimated scf accuracy    <          7.4E-10 Ry

     iteration #  8     ecut=    80.00 Ry     beta= 0.70
     Davidson diagonalization with overlap
     ethr =  1.16E-12,  avg # of iterations =  2.0

     total cpu time spent up to now is       20.6 secs

     End of self-consistent calculation

          k = 0.0000 0.0000 0.0000 (  3589 PWs)   bands (ev):

   -34.6333  -3.2859   7.7522   7.7522   7.7522   9.7555   9.7555  10.5738
    10.5738  10.5738  12.6104  12.6104

          k = 0.0000-0.2260 0.2260 (  3691 PWs)   bands (ev):

   -34.6326  -2.7854   4.8712   6.8846   7.0233   9.1760   9.5015   9.7412
    11.5721  12.8696  14.4069  15.0841

          k = 0.0000-0.4519 0.4519 (  3709 PWs)   bands (ev):

   -34.6315  -1.3628   1.5925   5.9780   6.2442   8.1309   8.9757  11.0515
    13.4259  14.1841  16.2758  17.1513

          k =-0.2260-0.2260 0.4519 (  3700 PWs)   bands (ev):

   -34.6317  -1.8042   2.9148   4.2261   7.6131   8.1175   9.6489  11.0579
    13.3655  13.7574  14.6208  16.8924

          k =-0.2260 0.6779-0.4519 (  3673 PWs)   bands (ev):

   -34.6312  -0.3364   0.8248   3.4379   7.0968   8.2278  10.3215  11.4583
    12.6922  15.1384  15.4001  17.8504

          k = 0.0000-0.0000 0.4519 (  3680 PWs)   bands (ev):

   -34.6321  -2.2864   4.3852   5.8629   5.8629   7.5116  10.4043  10.4043
    12.9997  13.6905  14.3172  14.7638

          k =-0.0000-0.2260 0.6779 (  3674 PWs)   bands (ev):

   -34.6312  -0.8592   1.8792   4.9096   5.0847   7.7569  10.3542  10.3975
    11.5471  14.9882  16.7254  17.2802

          k =-0.2260 0.9039-0.2260 (  3694 PWs)   bands (ev):

   -34.6309   0.7224   0.7224   3.2289   6.3939   6.3939   9.4431  10.5700
    13.7170  13.7170  18.6554  19.1968

          k = 0.6779-0.6779 0.4519 (  3691 PWs)   bands (ev):

   -34.6312  -0.4022   1.8777   1.8777   5.7971  10.7631  12.4946  12.4946
    13.5540  13.5540  15.5574  15.5574

          k = 0.0000-0.0000 0.9039 (  3664 PWs)   bands (ev):

   -34.6308   0.5634   2.2001   3.9084   3.9084   5.0177   8.9326  13.1996
    13.1996  14.3302  16.5423  19.2554

     the Fermi energy is    11.0680 ev

!    total energy              =     -39.49455983 Ry
     estimated scf accuracy    <          4.9E-11 Ry
     smearing contrib. (-TS)   =      -0.00062147 Ry
     internal energy E=F+TS    =     -39.49393836 Ry

     The total energy is F=E-TS. E is the sum of the following terms:
     one-electron contribution =       8.45206424 Ry
     hartree contribution      =       3.27935189 Ry
     xc contribution           =     -13.31863303 Ry
     ewald contribution        =     -37.90672146 Ry

     convergence has been achieved in   8 iterations

     Forces acting on atoms (cartesian axes, Ry/au):

     atom    1 type  1   force =    -0.00000000    0.00000000   -0.00000000
     atom    2 type  1   force =     0.00000000   -0.00000000    0.00000000
     atom    3 type  1   force =    -0.00000000    0.00000000   -0.00000000
     atom    4 type  2   force =    -0.00000000    0.00000000   -0.00000000
     The non-local contrib.  to forces
     atom    1 type  1   force =     0.00000000    0.00000000    0.00000000
     atom    2 type  1   force =    -0.00000000    0.00000000   -0.00000000
     atom    3 type  1   force =    -0.00000000    0.00000000   -0.00000000
     atom    4 type  2   force =    -0.00000000    0.00000000   -0.00000000
     The ionic contribution  to forces
     atom    1 type  1   force =    -0.00000000    0.00000000    0.00000000
     atom    2 type  1   force =     0.00000000   -0.00000000   -0.00000000
     atom    3 type  1   force =    -0.00000000    0.00000000    0.00000000
     atom    4 type  2   force =    -0.00000000   -0.00000000   -0.00000000
     The local contribution  to forces
     atom    1 type  1   force =    -0.00000000    0.00000000    0.00000000
     atom    2 type  1   force =     0.00000000    0.00000000    0.00000000
     atom    3 type  1   force =     0.00000000    0.00000000   -0.00000000
     atom    4 type  2   force =    -0.00000000   -0.00000000    0.00000000
     The core correction contribution to forces
     atom    1 type  1   force =     0.00000000   -0.00000000    0.00000000
     atom    2 type  1   force =     0.00000000    0.00000000    0.00000000
     atom    3 type  1   force =    -0.00000000    0.00000000   -0.00000000
     atom    4 type  2   force =     0.00000000    0.00000000    0.00000000
     The Hubbard contrib.    to forces
     atom    1 type  1   force =     0.00000000    0.00000000    0.00000000
     atom    2 type  1   force =     0.00000000    0.00000000    0.00000000
     atom    3 type  1   force =     0.00000000    0.00000000    0.00000000
     atom    4 type  2   force =     0.00000000    0.00000000    0.00000000
     The SCF correction term to forces
     atom    1 type  1   force =     0.00000000    0.00000000   -0.00000000
     atom    2 type  1   force =     0.00000000   -0.00000000    0.00000000
     atom    3 type  1   force =    -0.00000000    0.00000000   -0.00000000
     atom    4 type  2   force =    -0.00000000   -0.00000000    0.00000000

     Total force =     0.000000     Total SCF correction =     0.000000


     Computing stress (Cartesian axis) and pressure

          total   stress  (Ry/bohr**3)                   (kbar)     P=      499.97
   0.00339872   0.00000000  -0.00000000          499.97        0.00       -0.00
   0.00000000   0.00339872   0.00000000            0.00      499.97        0.00
  -0.00000000   0.00000000   0.00339872           -0.00        0.00      499.97


     Writing all to output data dir ./output/SiLi.save/

     init_run     :      1.02s CPU      1.36s WALL (       2 calls)
     electrons    :      8.90s CPU     10.98s WALL (       7 calls)
     update_pot   :      2.17s CPU      2.22s WALL (       5 calls)
     forces       :      1.62s CPU      1.67s WALL (       7 calls)
     stress       :      4.30s CPU      4.62s WALL (       7 calls)

     Called by init_run:
     wfcinit      :      0.10s CPU      0.10s WALL (       2 calls)
     potinit      :      0.35s CPU      0.52s WALL (       2 calls)
     hinit0       :      0.54s CPU      0.63s WALL (       2 calls)

     Called by electrons:
     c_bands      :      6.92s CPU      7.90s WALL (      55 calls)
     sum_band     :      1.15s CPU      1.26s WALL (      55 calls)
     v_of_rho     :      0.80s CPU      1.75s WALL (      59 calls)
     mix_rho      :      0.06s CPU      0.16s WALL (      55 calls)

     Called by c_bands:
     init_us_2    :      0.22s CPU      0.24s WALL (    1260 calls)
     init_us_2:cp :      0.22s CPU      0.24s WALL (    1260 calls)
     cegterg      :      6.20s CPU      6.46s WALL (     550 calls)

     Called by *egterg:
     cdiaghg      :      0.36s CPU      0.38s WALL (    2259 calls)
     h_psi        :      5.28s CPU      5.50s WALL (    2359 calls)
     g_psi        :      0.03s CPU      0.03s WALL (    1789 calls)

     Called by h_psi:
     h_psi:calbec :      0.39s CPU      0.41s WALL (    2359 calls)
     vloc_psi     :      4.57s CPU      4.77s WALL (    2359 calls)
     add_vuspsi   :      0.29s CPU      0.30s WALL (    2359 calls)

     General routines
     calbec       :      0.48s CPU      0.49s WALL (    2709 calls)
     fft          :      1.07s CPU      2.27s WALL (     766 calls)
     ffts         :      0.07s CPU      0.09s WALL (      55 calls)
     fftw         :      4.64s CPU      4.83s WALL (   45896 calls)

     Parallel routines

     PWSCF        :     18.22s CPU     21.34s WALL


   This run was terminated on:  10:52:29  29Dec2024            

=------------------------------------------------------------------------------=
   JOB DONE.
=------------------------------------------------------------------------------=
