
     Program PWSCF v.7.2 starts on 29Dec2024 at 11:31:35 

     This program is part of the open-source Quantum ESPRESSO suite
     for quantum simulation of materials; please cite
         "P. Giannozzi et al., J. Phys.:Condens. Matter 21 395502 (2009);
         "P. Giannozzi et al., J. Phys.:Condens. Matter 29 465901 (2017);
         "P. Giannozzi et al., J. Chem. Phys. 152 154105 (2020);
          URL http://www.quantum-espresso.org", 
     in publications or presentations arising from this work. More details at
     http://www.quantum-espresso.org/quote

     Parallel version (MPI & OpenMP), running on       8 processor cores
     Number of MPI processes:                 8
     Threads/MPI process:                     1

     MPI processes distributed on     1 nodes
     482148 MiB available memory on the printing compute node when the environment starts

     Waiting for input...
     Reading input from standard input

     Current dimensions of program PWSCF are:
     Max number of different atomic species (ntypx) = 10
     Max number of k-points (npk) =  40000
     Max angular momentum in pseudopotentials (lmaxx) =  4

     R & G space division:  proc/nbgrp/npool/nimage =       8
     Subspace diagonalization in iterative solution of the eigenvalue problem:
     a serial algorithm will be used


     Parallelization info
     --------------------
     sticks:   dense  smooth     PW     G-vecs:    dense   smooth      PW
     Min         131     131     37                 7652     7652    1153
     Max         133     133     38                 7655     7655    1160
     Sum        1057    1057    301                61227    61227    9251

     Using Slab Decomposition



     bravais-lattice index     =            4
     lattice parameter (alat)  =       6.9257  a.u.
     unit-cell volume          =     633.6996 (a.u.)^3
     number of atoms/cell      =            4
     number of atomic types    =            2
     number of electrons       =        13.00
     number of Kohn-Sham states=           11
     kinetic-energy cutoff     =      80.0000  Ry
     charge density cutoff     =     320.0000  Ry
     scf convergence threshold =      1.0E-08
     mixing beta               =       0.7000
     number of iterations used =            8  plain     mixing
     energy convergence thresh.=      1.0E-04
     force convergence thresh. =      1.0E-03
     press convergence thresh. =      1.0E+00
     Exchange-correlation= PBE
                           (   1   4   3   4   0   0   0)
     nstep                     =           50


     celldm(1)=   6.925737  celldm(2)=   0.000000  celldm(3)=   2.202697
     celldm(4)=   0.000000  celldm(5)=   0.000000  celldm(6)=   0.000000

     crystal axes: (cart. coord. in units of alat)
               a(1) = (   1.000000   0.000000   0.000000 )  
               a(2) = (  -0.500000   0.866025   0.000000 )  
               a(3) = (   0.000000   0.000000   2.202697 )  

     reciprocal axes: (cart. coord. in units 2 pi/alat)
               b(1) = (  1.000000  0.577350 -0.000000 )  
               b(2) = (  0.000000  1.154701  0.000000 )  
               b(3) = (  0.000000 -0.000000  0.453989 )  


     PseudoPot. # 1 for Si read from file:
     ../pseudo/Si_ONCV_PBE_sr.upf
     MD5 check sum: e543d271109d17c80368dfa7c482276d
     Pseudo is Norm-conserving + core correction, Zval =  4.0
     Generated using ONCVPSP code by D. R. Hamann
     Using radial grid of 1510 points,  6 beta functions with: 
                l(1) =   0
                l(2) =   0
                l(3) =   1
                l(4) =   1
                l(5) =   2
                l(6) =   2

     PseudoPot. # 2 for Li read from file:
     ../pseudo/Li_ONCV_PBE_sr.upf
     MD5 check sum: 50ff420e78310ffa21704f3361e624a4
     Pseudo is Norm-conserving, Zval =  3.0
     Generated using ONCVPSP code by D. R. Hamann
     Using radial grid of 1944 points,  4 beta functions with: 
                l(1) =   0
                l(2) =   0
                l(3) =   1
                l(4) =   1

     atomic species   valence    mass     pseudopotential
        Si             4.00    28.08550     Si( 1.00)
        Li             3.00     6.94100     Li( 1.00)

     12 Sym. Ops. (no inversion) found



   Cartesian axes

     site n.     atom                  positions (alat units)
         1           Si  tau(   1) = (   0.5000000   0.2886751   0.0000000  )
         2           Li  tau(   2) = (   0.0000000   0.0000000   0.8786669  )
         3           Li  tau(   3) = (   0.0000000   0.0000000   1.3240302  )
         4           Li  tau(   4) = (  -0.0000000   0.5773503   0.0000000  )

     number of k points=    42  Marzari-Vanderbilt smearing, width (Ry)=  0.0200
                       cart. coord. in units 2pi/alat
        k(    1) = (   0.0000000   0.0000000   0.0000000), wk =   0.0040000
        k(    2) = (   0.0000000   0.0000000   0.0907978), wk =   0.0080000
        k(    3) = (   0.0000000   0.0000000   0.1815956), wk =   0.0080000
        k(    4) = (   0.0000000   0.1154701   0.0000000), wk =   0.0240000
        k(    5) = (   0.0000000   0.1154701   0.0907978), wk =   0.0480000
        k(    6) = (   0.0000000   0.1154701   0.1815956), wk =   0.0480000
        k(    7) = (   0.0000000   0.2309401   0.0000000), wk =   0.0240000
        k(    8) = (   0.0000000   0.2309401   0.0907978), wk =   0.0480000
        k(    9) = (   0.0000000   0.2309401   0.1815956), wk =   0.0480000
        k(   10) = (   0.0000000   0.3464102   0.0000000), wk =   0.0240000
        k(   11) = (   0.0000000   0.3464102   0.0907978), wk =   0.0480000
        k(   12) = (   0.0000000   0.3464102   0.1815956), wk =   0.0480000
        k(   13) = (   0.0000000   0.4618802   0.0000000), wk =   0.0240000
        k(   14) = (   0.0000000   0.4618802   0.0907978), wk =   0.0480000
        k(   15) = (   0.0000000   0.4618802   0.1815956), wk =   0.0480000
        k(   16) = (   0.0000000  -0.5773503   0.0000000), wk =   0.0120000
        k(   17) = (   0.0000000  -0.5773503   0.0907978), wk =   0.0240000
        k(   18) = (   0.0000000  -0.5773503   0.1815956), wk =   0.0240000
        k(   19) = (   0.1000000   0.1732051   0.0000000), wk =   0.0240000
        k(   20) = (   0.1000000   0.1732051   0.0907978), wk =   0.0480000
        k(   21) = (   0.1000000   0.1732051   0.1815956), wk =   0.0480000
        k(   22) = (   0.1000000   0.2886751   0.0000000), wk =   0.0480000
        k(   23) = (   0.1000000   0.2886751   0.0907978), wk =   0.0960000
        k(   24) = (   0.1000000   0.2886751   0.1815956), wk =   0.0960000
        k(   25) = (   0.1000000   0.4041452   0.0000000), wk =   0.0480000
        k(   26) = (   0.1000000   0.4041452   0.0907978), wk =   0.0960000
        k(   27) = (   0.1000000   0.4041452   0.1815956), wk =   0.0960000
        k(   28) = (   0.1000000   0.5196152   0.0000000), wk =   0.0480000
        k(   29) = (   0.1000000   0.5196152   0.0907978), wk =   0.0960000
        k(   30) = (   0.1000000   0.5196152   0.1815956), wk =   0.0960000
        k(   31) = (   0.2000000   0.3464102   0.0000000), wk =   0.0240000
        k(   32) = (   0.2000000   0.3464102   0.0907978), wk =   0.0480000
        k(   33) = (   0.2000000   0.3464102   0.1815956), wk =   0.0480000
        k(   34) = (   0.2000000   0.4618802   0.0000000), wk =   0.0480000
        k(   35) = (   0.2000000   0.4618802   0.0907978), wk =   0.0960000
        k(   36) = (   0.2000000   0.4618802   0.1815956), wk =   0.0960000
        k(   37) = (   0.2000000   0.5773503   0.0000000), wk =   0.0240000
        k(   38) = (   0.2000000   0.5773503   0.0907978), wk =   0.0480000
        k(   39) = (   0.2000000   0.5773503   0.1815956), wk =   0.0480000
        k(   40) = (   0.3000000   0.5196152   0.0000000), wk =   0.0240000
        k(   41) = (   0.3000000   0.5196152   0.0907978), wk =   0.0480000
        k(   42) = (   0.3000000   0.5196152   0.1815956), wk =   0.0480000

     Dense  grid:    61227 G-vectors     FFT dimensions: (  40,  40,  90)

     Estimated max dynamical RAM per process >      24.42 MB

     Estimated total dynamical RAM >     195.32 MB

     Initial potential from superposition of free atoms

     starting charge      12.9857, renormalised to      13.0000
     Starting wfcs are   10 randomized atomic wfcs +    1 random wfcs

     total cpu time spent up to now is        1.2 secs

     Self-consistent Calculation

     iteration #  1     ecut=    80.00 Ry     beta= 0.70
     Davidson diagonalization with overlap
     ethr =  1.00E-02,  avg # of iterations =  6.1

     total cpu time spent up to now is        2.5 secs

     total energy              =     -50.95332344 Ry
     estimated scf accuracy    <       0.53778822 Ry

     iteration #  2     ecut=    80.00 Ry     beta= 0.70
     Davidson diagonalization with overlap
     ethr =  4.14E-03,  avg # of iterations =  4.7

     total cpu time spent up to now is        3.3 secs

     total energy              =     -50.56546144 Ry
     estimated scf accuracy    <       8.45425161 Ry

     iteration #  3     ecut=    80.00 Ry     beta= 0.70
     Davidson diagonalization with overlap
     ethr =  4.14E-03,  avg # of iterations =  2.7

     total cpu time spent up to now is        4.1 secs

     total energy              =     -51.33214801 Ry
     estimated scf accuracy    <       0.07267842 Ry

     iteration #  4     ecut=    80.00 Ry     beta= 0.70
     Davidson diagonalization with overlap
     ethr =  5.59E-04,  avg # of iterations =  2.5

     total cpu time spent up to now is        4.7 secs

     total energy              =     -51.33729519 Ry
     estimated scf accuracy    <       0.00368748 Ry

     iteration #  5     ecut=    80.00 Ry     beta= 0.70
     Davidson diagonalization with overlap
     ethr =  2.84E-05,  avg # of iterations =  5.6

     total cpu time spent up to now is        5.6 secs

     total energy              =     -51.33818503 Ry
     estimated scf accuracy    <       0.00181350 Ry

     iteration #  6     ecut=    80.00 Ry     beta= 0.70
     Davidson diagonalization with overlap
     ethr =  1.40E-05,  avg # of iterations =  1.3

     total cpu time spent up to now is        6.3 secs

     total energy              =     -51.33840502 Ry
     estimated scf accuracy    <       0.00005617 Ry

     iteration #  7     ecut=    80.00 Ry     beta= 0.70
     Davidson diagonalization with overlap
     ethr =  4.32E-07,  avg # of iterations =  4.3

     total cpu time spent up to now is        7.0 secs

     total energy              =     -51.33841246 Ry
     estimated scf accuracy    <       0.00000027 Ry

     iteration #  8     ecut=    80.00 Ry     beta= 0.70
     Davidson diagonalization with overlap
     ethr =  2.06E-09,  avg # of iterations =  3.7

     total cpu time spent up to now is        7.8 secs

     total energy              =     -51.33841272 Ry
     estimated scf accuracy    <       0.00000005 Ry

     iteration #  9     ecut=    80.00 Ry     beta= 0.70
     Davidson diagonalization with overlap
     ethr =  4.18E-10,  avg # of iterations =  1.1

     total cpu time spent up to now is        8.4 secs

     End of self-consistent calculation

          k = 0.0000 0.0000 0.0000 (  7627 PWs)   bands (ev):

   -47.5267 -46.8680 -44.5764  -6.6054  -1.2119  -0.8504   3.2833   3.2833
     4.3648   4.5588   7.4998

          k = 0.0000 0.0000 0.0908 (  7597 PWs)   bands (ev):

   -47.5267 -46.8680 -44.5764  -6.6038  -1.5128  -0.3879   3.2757   3.2836
     3.2836   5.6702   7.5421

          k = 0.0000 0.0000 0.1816 (  7628 PWs)   bands (ev):

   -47.5267 -46.8680 -44.5764  -6.6012  -1.7374   0.2032   2.3765   3.2840
     3.2840   6.5665   7.6373

          k = 0.0000 0.1155 0.0000 (  7645 PWs)   bands (ev):

   -47.5266 -46.8679 -44.5761  -6.5219  -1.0803  -0.7534   2.7064   3.0169
     4.5366   4.6497   7.2747

          k = 0.0000 0.1155 0.0908 (  7637 PWs)   bands (ev):

   -47.5266 -46.8679 -44.5761  -6.5203  -1.3926  -0.2797   2.6740   3.0175
     3.4645   5.7569   7.3097

          k = 0.0000 0.1155 0.1816 (  7626 PWs)   bands (ev):

   -47.5266 -46.8679 -44.5761  -6.5178  -1.6189   0.3137   2.3567   2.8891
     3.0183   6.5880   7.4150

          k = 0.0000 0.2309 0.0000 (  7639 PWs)   bands (ev):

   -47.5263 -46.8677 -44.5755  -6.2813  -0.6900  -0.4692   1.5149   2.4800
     4.8927   4.9126   6.3955

          k = 0.0000 0.2309 0.0908 (  7640 PWs)   bands (ev):

   -47.5263 -46.8677 -44.5755  -6.2798  -1.0382   0.0386   1.5040   2.4810
     3.8063   5.8985   6.3588

          k = 0.0000 0.2309 0.1816 (  7671 PWs)   bands (ev):

   -47.5263 -46.8677 -44.5755  -6.2774  -1.2681   0.6374   1.4501   2.4825
     2.9814   6.1244   6.6842

          k = 0.0000 0.3464 0.0000 (  7669 PWs)   bands (ev):

   -47.5258 -46.8675 -44.5746  -5.9231  -0.1209  -0.0599   0.3983   1.9841
     4.9101   5.0140   5.5725

          k = 0.0000 0.3464 0.0908 (  7673 PWs)   bands (ev):

   -47.5258 -46.8675 -44.5746  -5.9218  -0.4836   0.1769   0.6755   1.9853
     4.2947   4.8667   5.7555

          k = 0.0000 0.3464 0.1816 (  7659 PWs)   bands (ev):

   -47.5258 -46.8675 -44.5746  -5.9197  -0.7050   0.2144   1.1870   1.9872
     3.5410   4.6549   6.1003

          k = 0.0000 0.4619 0.0000 (  7655 PWs)   bands (ev):

   -47.5255 -46.8673 -44.5740  -5.5521  -0.7687   0.6850   0.7331   1.6578
     3.7171   4.0973   6.2113

          k = 0.0000 0.4619 0.0908 (  7671 PWs)   bands (ev):

   -47.5255 -46.8673 -44.5740  -5.5511  -0.7578   0.2555   1.2888   1.6591
     3.4890   4.4425   5.3145

          k = 0.0000 0.4619 0.1816 (  7671 PWs)   bands (ev):

   -47.5255 -46.8673 -44.5740  -5.5494  -0.7371   0.0047   1.6612   1.7928
     3.3669   4.3429   5.0463

          k = 0.0000-0.5774 0.0000 (  7688 PWs)   bands (ev):

   -47.5254 -46.8672 -44.5737  -5.3781  -1.1335   1.0473   1.2548   1.5453
     3.1219   3.3862   6.2396

          k = 0.0000-0.5774 0.0908 (  7688 PWs)   bands (ev):

   -47.5254 -46.8672 -44.5737  -5.3773  -1.1251   0.7005   1.5467   1.6786
     2.9137   3.8069   5.8949

          k = 0.0000-0.5774 0.1816 (  7666 PWs)   bands (ev):

   -47.5254 -46.8672 -44.5737  -5.3759  -1.1107   0.4612   1.5489   1.9805
     2.9632   4.3571   5.0797

          k = 0.1000 0.1732 0.0000 (  7640 PWs)   bands (ev):

   -47.5264 -46.8678 -44.5757  -6.3595  -0.8192  -0.5617   1.9072   2.5434
     4.8092   4.8190   6.9522

          k = 0.1000 0.1732 0.0908 (  7636 PWs)   bands (ev):

   -47.5264 -46.8678 -44.5757  -6.3580  -1.1550  -0.0651   1.8931   2.5385
     3.7069   5.8899   6.9665

          k = 0.1000 0.1732 0.1816 (  7631 PWs)   bands (ev):

   -47.5264 -46.8678 -44.5757  -6.3555  -1.3840   0.5322   1.8237   2.5017
     2.9310   6.5193   6.8857

          k = 0.1000 0.2887 0.0000 (  7660 PWs)   bands (ev):

   -47.5260 -46.8676 -44.5749  -6.0567  -0.3074  -0.2019   0.7937   1.9714
     5.0612   5.2400   5.7268

          k = 0.1000 0.2887 0.0908 (  7655 PWs)   bands (ev):

   -47.5260 -46.8676 -44.5749  -6.0553  -0.6945   0.3224   0.8097   1.9672
     4.1472   5.5311   6.0214

          k = 0.1000 0.2887 0.1816 (  7655 PWs)   bands (ev):

   -47.5260 -46.8676 -44.5749  -6.0531  -0.9243   0.7028   0.9963   1.9448
     3.3525   5.3829   6.2680

          k = 0.1000 0.4041 0.0000 (  7667 PWs)   bands (ev):

   -47.5256 -46.8674 -44.5742  -5.6786  -0.3908   0.4170   0.4529   1.5591
     4.2824   4.7081   5.8458

          k = 0.1000 0.4041 0.0908 (  7663 PWs)   bands (ev):

   -47.5256 -46.8674 -44.5742  -5.6775  -0.3845  -0.0040   1.0079   1.5650
     4.0579   4.7561   5.3904

          k = 0.1000 0.4041 0.1816 (  7659 PWs)   bands (ev):

   -47.5256 -46.8674 -44.5742  -5.6756  -0.3594  -0.2549   1.4848   1.6179
     3.8853   4.1134   5.6179

          k = 0.1000 0.5196 0.0000 (  7667 PWs)   bands (ev):

   -47.5254 -46.8672 -44.5737  -5.3804  -1.0379   0.9513   1.1728   1.3917
     3.2683   3.6860   5.8004

          k = 0.1000 0.5196 0.0908 (  7670 PWs)   bands (ev):

   -47.5254 -46.8672 -44.5737  -5.3795  -1.0306   0.6417   1.2881   1.6859
     3.0687   4.0721   5.6959

          k = 0.1000 0.5196 0.1816 (  7664 PWs)   bands (ev):

   -47.5254 -46.8672 -44.5737  -5.3781  -1.0183   0.4129   1.3068   2.0321
     3.0476   4.5958   4.9787

          k = 0.2000 0.3464 0.0000 (  7664 PWs)   bands (ev):

   -47.5257 -46.8674 -44.5743  -5.7244  -0.1491   0.3054   0.3419   1.3909
     4.7127   5.0237   5.4733

          k = 0.2000 0.3464 0.0908 (  7652 PWs)   bands (ev):

   -47.5257 -46.8674 -44.5743  -5.7232  -0.2017  -0.0431   0.8725   1.4074
     4.4100   4.8358   5.5312

          k = 0.2000 0.3464 0.1816 (  7651 PWs)   bands (ev):

   -47.5257 -46.8674 -44.5743  -5.7213  -0.3705  -0.0968   1.2733   1.5332
     3.9357   4.4249   5.4350

          k = 0.2000 0.4619 0.0000 (  7653 PWs)   bands (ev):

   -47.5254 -46.8672 -44.5737  -5.3841  -0.8431   0.6808   1.0615   1.2468
     3.5767   4.3214   5.1833

          k = 0.2000 0.4619 0.0908 (  7662 PWs)   bands (ev):

   -47.5254 -46.8672 -44.5737  -5.3832  -0.8394   0.5267   0.9303   1.6553
     3.4052   4.6236   5.1273

          k = 0.2000 0.4619 0.1816 (  7663 PWs)   bands (ev):

   -47.5254 -46.8672 -44.5737  -5.3817  -0.8330   0.3412   0.9154   2.0745
     3.3171   4.7476   4.9879

          k = 0.2000 0.5774 0.0000 (  7682 PWs)   bands (ev):

   -47.5253 -46.8672 -44.5735  -5.2266  -1.1481   0.6857   1.5365   1.5620
     2.9313   3.7489   5.0781

          k = 0.2000 0.5774 0.0908 (  7670 PWs)   bands (ev):

   -47.5253 -46.8672 -44.5735  -5.2259  -1.1448   0.7040   1.1311   1.9909
     2.8464   4.0898   4.9974

          k = 0.2000 0.5774 0.1816 (  7663 PWs)   bands (ev):

   -47.5253 -46.8672 -44.5735  -5.2246  -1.1394   0.7559   0.8742   2.1131
     3.0340   4.6160   4.9419

          k = 0.3000 0.5196 0.0000 (  7676 PWs)   bands (ev):

   -47.5252 -46.8672 -44.5734  -5.1638  -1.1599   0.4618   1.6530   1.7930
     2.7568   4.1007   4.7621

          k = 0.3000 0.5196 0.0908 (  7653 PWs)   bands (ev):

   -47.5252 -46.8672 -44.5734  -5.1631  -1.1587   0.4883   1.2953   2.1367
     2.7341   4.4051   4.6673

          k = 0.3000 0.5196 0.1816 (  7648 PWs)   bands (ev):

   -47.5252 -46.8672 -44.5734  -5.1619  -1.1569   0.5406   1.0504   2.1354
     3.0408   4.4599   5.1140

     the Fermi energy is     1.1621 ev

!    total energy              =     -51.33841272 Ry
     estimated scf accuracy    <          2.1E-09 Ry
     smearing contrib. (-TS)   =       0.00063193 Ry
     internal energy E=F+TS    =     -51.33904465 Ry

     The total energy is F=E-TS. E is the sum of the following terms:
     one-electron contribution =     -33.19804389 Ry
     hartree contribution      =      13.92823942 Ry
     xc contribution           =     -12.98362202 Ry
     ewald contribution        =     -19.08561816 Ry

     convergence has been achieved in   9 iterations

     Forces acting on atoms (cartesian axes, Ry/au):

     atom    1 type  1   force =    -0.00000000   -0.00000000    0.00000000
     atom    2 type  2   force =     0.00000000    0.00000000   -0.15263211
     atom    3 type  2   force =     0.00000000    0.00000000    0.15263211
     atom    4 type  2   force =    -0.00000000   -0.00000000    0.00000000
     The non-local contrib.  to forces
     atom    1 type  1   force =     0.00000000    0.00000000    0.00000000
     atom    2 type  2   force =     0.00000000    0.00000000    0.11855153
     atom    3 type  2   force =    -0.00000000   -0.00000000   -0.11855153
     atom    4 type  2   force =     0.00000000    0.00000000    0.00000000
     The ionic contribution  to forces
     atom    1 type  1   force =    -0.00000006    0.00000003   -0.00000000
     atom    2 type  2   force =     0.00000000   -0.00000000   -1.10724313
     atom    3 type  2   force =     0.00000000   -0.00000000    1.10724313
     atom    4 type  2   force =     0.00000006   -0.00000003   -0.00000000
     The local contribution  to forces
     atom    1 type  1   force =    -0.00000000    0.00000000    0.00000000
     atom    2 type  2   force =    -0.00000000    0.00000000    0.83603947
     atom    3 type  2   force =    -0.00000000    0.00000000   -0.83603947
     atom    4 type  2   force =     0.00000068   -0.00000039    0.00000000
     The core correction contribution to forces
     atom    1 type  1   force =     0.00000000   -0.00000000    0.00000000
     atom    2 type  2   force =     0.00000000    0.00000000    0.00000000
     atom    3 type  2   force =     0.00000000    0.00000000    0.00000000
     atom    4 type  2   force =     0.00000000    0.00000000    0.00000000
     The Hubbard contrib.    to forces
     atom    1 type  1   force =     0.00000000    0.00000000    0.00000000
     atom    2 type  2   force =     0.00000000    0.00000000    0.00000000
     atom    3 type  2   force =     0.00000000    0.00000000    0.00000000
     atom    4 type  2   force =     0.00000000    0.00000000    0.00000000
     The SCF correction term to forces
     atom    1 type  1   force =    -0.00000000    0.00000000    0.00000000
     atom    2 type  2   force =     0.00000000   -0.00000000    0.00002002
     atom    3 type  2   force =     0.00000000   -0.00000000   -0.00002002
     atom    4 type  2   force =     0.00000000   -0.00000000   -0.00000000

     Total force =     0.215854     Total SCF correction =     0.000028


     Computing stress (Cartesian axis) and pressure

          total   stress  (Ry/bohr**3)                   (kbar)     P=       46.77
   0.00034925  -0.00000000  -0.00000000           51.38       -0.00       -0.00
  -0.00000000   0.00034925   0.00000000           -0.00       51.38        0.00
  -0.00000000   0.00000000   0.00025536           -0.00        0.00       37.56


     BFGS Geometry Optimization
     Energy error            =      0.0E+00 Ry
     Gradient error          =      1.5E-01 Ry/Bohr
     Cell gradient error     =      4.6E+02 kbar

     number of scf cycles    =   1
     number of bfgs steps    =   0

     enthalpy           new  =     -49.1845116502 Ry

     new trust radius        =       0.3956718298 bohr
ibrav =      4
 celldm(1) =      6.39770418
 celldm(3) =      2.19710026
Input lattice vectors:
     0.92375787     0.00000000    -0.00000000
    -0.46187894     0.79999779     0.00000000
    -0.00000000     0.00000000     2.02958866
New lattice vectors in INITIAL alat:
     0.92375787     0.00000000     0.00000000
    -0.46187894     0.79999779     0.00000000
     0.00000000     0.00000000     2.02958866
New lattice vectors in NEW alat (for information only):
     1.00000000     0.00000000     0.00000000
    -0.50000000     0.86602540     0.00000000
     0.00000000     0.00000000     2.19710026
Discrepancy in bohr =     0.000000    0.000000    0.000000
     new conv_thr            =       0.0000000100 Ry

     new unit-cell volume =    498.25650 a.u.^3 (    73.83400 Ang^3 )
     density =      1.09996 g/cm^3

CELL_PARAMETERS (alat=  6.92573710)
   0.923757874   0.000000000   0.000000000
  -0.461878937   0.799997786   0.000000000
   0.000000000   0.000000000   2.029588663

ATOMIC_POSITIONS (crystal)
Si            0.6666666700        0.3333333300        0.0000000000
Li            0.0000000000        0.0000000000        0.3888998147
Li            0.0000000000        0.0000000000        0.6111001853
Li            0.3333333300        0.6666666700        0.0000000000



     Writing config-only to output data dir ./output/SiLi.save/
     NEW-OLD atomic charge density approx. for the potential
     extrapolated charge    9.47004, renormalised to   13.00000

     total cpu time spent up to now is       11.0 secs

     Self-consistent Calculation

     iteration #  1     ecut=    80.00 Ry     beta= 0.70
     Davidson diagonalization with overlap
     c_bands:  1 eigenvalues not converged
     c_bands:  1 eigenvalues not converged
     c_bands:  1 eigenvalues not converged
     c_bands:  2 eigenvalues not converged
     c_bands:  1 eigenvalues not converged
     ethr =  1.00E-06,  avg # of iterations = 16.2

     total cpu time spent up to now is       13.3 secs

     total energy              =     -48.76742721 Ry
     estimated scf accuracy    <       2.49272312 Ry

     iteration #  2     ecut=    80.00 Ry     beta= 0.70
     Davidson diagonalization with overlap
     ethr =  1.00E-02,  avg # of iterations =  6.2

     total cpu time spent up to now is       14.4 secs

     total energy              =     -50.05086403 Ry
     estimated scf accuracy    <      28.07685647 Ry

     iteration #  3     ecut=    80.00 Ry     beta= 0.70
     Davidson diagonalization with overlap
     ethr =  1.00E-02,  avg # of iterations =  3.8

     total cpu time spent up to now is       15.2 secs

     total energy              =     -51.33608151 Ry
     estimated scf accuracy    <       2.50310049 Ry

     iteration #  4     ecut=    80.00 Ry     beta= 0.70
     Davidson diagonalization with overlap
     ethr =  1.00E-02,  avg # of iterations =  1.5

     total cpu time spent up to now is       15.7 secs

     total energy              =     -51.27818714 Ry
     estimated scf accuracy    <       0.69442466 Ry

     iteration #  5     ecut=    80.00 Ry     beta= 0.70
     Davidson diagonalization with overlap
     ethr =  5.34E-03,  avg # of iterations =  2.5

     total cpu time spent up to now is       16.3 secs

     total energy              =     -51.28735463 Ry
     estimated scf accuracy    <       0.09737386 Ry

     iteration #  6     ecut=    80.00 Ry     beta= 0.70
     Davidson diagonalization with overlap
     ethr =  7.49E-04,  avg # of iterations =  3.5

     total cpu time spent up to now is       17.0 secs

     total energy              =     -51.30865956 Ry
     estimated scf accuracy    <       0.02757821 Ry

     iteration #  7     ecut=    80.00 Ry     beta= 0.70
     Davidson diagonalization with overlap
     ethr =  2.12E-04,  avg # of iterations =  1.6

     total cpu time spent up to now is       17.5 secs

     total energy              =     -51.30961116 Ry
     estimated scf accuracy    <       0.00207503 Ry

     iteration #  8     ecut=    80.00 Ry     beta= 0.70
     Davidson diagonalization with overlap
     ethr =  1.60E-05,  avg # of iterations =  5.4

     total cpu time spent up to now is       18.3 secs

     total energy              =     -51.30999978 Ry
     estimated scf accuracy    <       0.00073929 Ry

     iteration #  9     ecut=    80.00 Ry     beta= 0.70
     Davidson diagonalization with overlap
     ethr =  5.69E-06,  avg # of iterations =  1.8

     total cpu time spent up to now is       18.9 secs

     total energy              =     -51.31008085 Ry
     estimated scf accuracy    <       0.00000283 Ry

     iteration # 10     ecut=    80.00 Ry     beta= 0.70
     Davidson diagonalization with overlap
     ethr =  2.18E-08,  avg # of iterations =  3.5

     total cpu time spent up to now is       19.5 secs

     total energy              =     -51.31008212 Ry
     estimated scf accuracy    <       0.00000595 Ry

     iteration # 11     ecut=    80.00 Ry     beta= 0.70
     Davidson diagonalization with overlap
     ethr =  2.18E-08,  avg # of iterations =  1.5

     total cpu time spent up to now is       20.1 secs

     total energy              =     -51.31008288 Ry
     estimated scf accuracy    <       0.00000021 Ry

     iteration # 12     ecut=    80.00 Ry     beta= 0.70
     Davidson diagonalization with overlap
     ethr =  1.63E-09,  avg # of iterations =  1.5

     total cpu time spent up to now is       20.7 secs

     total energy              =     -51.31008292 Ry
     estimated scf accuracy    <       0.00000001 Ry

     iteration # 13     ecut=    80.00 Ry     beta= 0.70
     Davidson diagonalization with overlap
     ethr =  1.05E-10,  avg # of iterations =  2.3

     total cpu time spent up to now is       21.2 secs

     End of self-consistent calculation

          k = 0.0000 0.0000 0.0000 (  7627 PWs)   bands (ev):

   -45.7080 -45.0967 -43.8984  -6.0039  -0.8164   0.2244   5.1359   5.1359
     5.9613   6.6378   9.1645

          k = 0.0000 0.0000 0.0985 (  7597 PWs)   bands (ev):

   -45.7080 -45.0967 -43.8984  -6.0008  -1.0230   0.6136   4.8611   5.1363
     5.1363   7.7929   9.1859

          k = 0.0000 0.0000 0.1971 (  7628 PWs)   bands (ev):

   -45.7080 -45.0967 -43.8984  -5.9958  -1.2399   1.2399   3.8321   5.1369
     5.1369   8.8938   9.2227

          k = 0.0000 0.1250 0.0000 (  7645 PWs)   bands (ev):

   -45.7076 -45.0964 -43.8977  -5.9030  -0.6602   0.3301   4.4143   4.7462
     6.1493   6.7405   9.0686

          k = 0.0000 0.1250 0.0985 (  7637 PWs)   bands (ev):

   -45.7076 -45.0964 -43.8977  -5.8999  -0.8765   0.7301   4.3681   4.7471
     5.0812   7.8867   9.0856

          k = 0.0000 0.1250 0.1971 (  7626 PWs)   bands (ev):

   -45.7076 -45.0964 -43.8977  -5.8949  -1.0986   1.3657   3.8631   4.5572
     4.7486   8.9118   9.1162

          k = 0.0000 0.2500 0.0000 (  7639 PWs)   bands (ev):

   -45.7067 -45.0958 -43.8958  -5.6082  -0.1952   0.6387   2.9468   4.0223
     6.5616   7.0177   8.8378

          k = 0.0000 0.2500 0.0985 (  7640 PWs)   bands (ev):

   -45.7067 -45.0958 -43.8958  -5.6053  -0.4435   1.0730   2.9345   4.0238
     5.4451   8.0242   8.6920

          k = 0.0000 0.2500 0.1971 (  7671 PWs)   bands (ev):

   -45.7067 -45.0958 -43.8958  -5.6005  -0.6805   1.7381   2.8738   4.0262
     4.4699   8.2902   8.9952

          k = 0.0000 0.3750 0.0000 (  7669 PWs)   bands (ev):

   -45.7054 -45.0951 -43.8935  -5.1554   0.5625   0.9738   1.5981   3.3899
     6.8876   6.9372   7.4581

          k = 0.0000 0.3750 0.0985 (  7673 PWs)   bands (ev):

   -45.7054 -45.0951 -43.8935  -5.1527   0.2450   1.2493   1.8223   3.3916
     6.0171   6.7277   7.6620

          k = 0.0000 0.3750 0.1971 (  7659 PWs)   bands (ev):

   -45.7054 -45.0951 -43.8935  -5.1483  -0.0094   1.3458   2.3793   3.3945
     5.0685   6.4413   8.1091

          k = 0.0000 0.5000 0.0000 (  7655 PWs)   bands (ev):

   -45.7044 -45.0945 -43.8916  -4.6586   0.0964   1.5441   1.9147   2.9842
     5.3468   5.6026   8.1096

          k = 0.0000 0.5000 0.0985 (  7671 PWs)   bands (ev):

   -45.7044 -45.0945 -43.8916  -4.6563   0.1119   1.1406   2.4770   2.9861
     5.0179   6.0781   7.0485

          k = 0.0000 0.5000 0.1971 (  7671 PWs)   bands (ev):

   -45.7044 -45.0945 -43.8916  -4.6527   0.1441   0.8343   2.9892   3.1101
     4.8737   5.9354   6.6908

          k = 0.0000-0.6250 0.0000 (  7688 PWs)   bands (ev):

   -45.7041 -45.0942 -43.8909  -4.4093  -0.3840   2.2450   2.2931   2.8458
     4.3642   4.9383   8.6997

          k = 0.0000-0.6250 0.0985 (  7688 PWs)   bands (ev):

   -45.7041 -45.0942 -43.8909  -4.4074  -0.3704   1.6932   2.9528   4.2391
     5.2940   7.7612   8.5006

          k = 0.0000-0.6250 0.1971 (  7666 PWs)   bands (ev):

   -45.7041 -45.0942 -43.8909  -4.4043  -0.3465   1.3729   2.8509   3.3329
     4.4512   5.8020   6.6474

          k = 0.1083 0.1875 0.0000 (  7640 PWs)   bands (ev):

   -45.7070 -45.0960 -43.8964  -5.7046  -0.3495   0.5391   3.4288   4.1056
     6.4571   6.9338   9.1609

          k = 0.1083 0.1875 0.0985 (  7636 PWs)   bands (ev):

   -45.7070 -45.0960 -43.8964  -5.7016  -0.5865   0.9619   3.4190   4.0866
     5.3524   8.0323   9.3856

          k = 0.1083 0.1875 0.1971 (  7631 PWs)   bands (ev):

   -45.7070 -45.0960 -43.8964  -5.6968  -0.8187   1.6164   3.3587   3.9552
     4.5133   8.7914   9.2692

          k = 0.1083 0.3125 0.0000 (  7660 PWs)   bands (ev):

   -45.7059 -45.0953 -43.8943  -5.3259   0.2634   0.9313   2.0275   3.4091
     6.9686   7.1897   7.9394

          k = 0.1083 0.3125 0.0985 (  7655 PWs)   bands (ev):

   -45.7059 -45.0953 -43.8943  -5.3231  -0.0210   1.3926   2.0358   3.3968
     5.8529   7.5357   8.1806

          k = 0.1083 0.3125 0.1971 (  7655 PWs)   bands (ev):

   -45.7059 -45.0953 -43.8943  -5.3186  -0.2708   1.9404   2.1564   3.3365
     4.9076   7.2994   8.5651

          k = 0.1083 0.4375 0.0000 (  7667 PWs)   bands (ev):

   -45.7047 -45.0946 -43.8922  -4.8300   0.5621   1.1460   1.6266   2.9281
     6.2200   6.2404   7.7507

          k = 0.1083 0.4375 0.0985 (  7663 PWs)   bands (ev):

   -45.7047 -45.0946 -43.8922  -4.8275   0.5560   0.8233   2.1285   2.9344
     5.7330   6.5988   7.0204

          k = 0.1083 0.4375 0.1971 (  7659 PWs)   bands (ev):

   -45.7047 -45.0946 -43.8922  -4.8235   0.4920   0.6305   2.7455   2.9537
     5.4754   5.7257   7.4530

          k = 0.1083 0.5625 0.0000 (  7667 PWs)   bands (ev):

   -45.7041 -45.0942 -43.8909  -4.4080  -0.2993   2.1200   2.1442   2.7484
     4.7622   5.0696   8.0614

          k = 0.1083 0.5625 0.0985 (  7670 PWs)   bands (ev):

   -45.7041 -45.0942 -43.8909  -4.4060  -0.2887   1.6154   2.5266   3.0069
     4.4872   5.5474   7.5921

          k = 0.1083 0.5625 0.1971 (  7664 PWs)   bands (ev):

   -45.7041 -45.0942 -43.8909  -4.4028  -0.2700   1.3174   2.5948   3.4100
     4.5202   6.1042   6.5776

          k = 0.2165 0.3750 0.0000 (  7664 PWs)   bands (ev):

   -45.7049 -45.0947 -43.8924  -4.8897   0.8702   1.0075   1.4283   2.7992
     6.6399   6.8472   7.4900

          k = 0.2165 0.3750 0.0985 (  7652 PWs)   bands (ev):

   -45.7049 -45.0947 -43.8924  -4.8872   0.6516   0.8833   1.9353   2.8113
     6.1351   6.6803   7.5510

          k = 0.2165 0.3750 0.1971 (  7651 PWs)   bands (ev):

   -45.7049 -45.0947 -43.8924  -4.8830   0.3908   0.8846   2.5203   2.8543
     5.5483   6.0540   7.6602

          k = 0.2165 0.5000 0.0000 (  7653 PWs)   bands (ev):

   -45.7041 -45.0942 -43.8909  -4.4060  -0.1339   1.8257   1.9603   2.6722
     5.3204   5.6112   7.4485

          k = 0.2165 0.5000 0.0985 (  7662 PWs)   bands (ev):

   -45.7041 -45.0942 -43.8909  -4.4039  -0.1304   1.4866   2.1370   3.0018
     4.9137   6.1944   7.2791

          k = 0.2165 0.5000 0.1971 (  7663 PWs)   bands (ev):

   -45.7041 -45.0942 -43.8909  -4.4004  -0.1244   1.2350   2.2027   3.4899
     4.7467   6.4471   6.7853

          k = 0.2165 0.6250 0.0000 (  7682 PWs)   bands (ev):

   -45.7038 -45.0940 -43.8904  -4.1599  -0.5763   1.8872   2.6209   2.9559
     4.6055   4.7575   7.3597

          k = 0.2165 0.6250 0.0985 (  7670 PWs)   bands (ev):

   -45.7038 -45.0940 -43.8904  -4.1581  -0.5722   1.8844   2.2614   3.3847
     4.2918   5.3593   7.1605

          k = 0.2165 0.6250 0.1971 (  7663 PWs)   bands (ev):

   -45.7038 -45.0940 -43.8904  -4.1551  -0.5654   1.8150   2.0900   3.4552
     4.6349   5.9545   7.0237

          k = 0.3248 0.5625 0.0000 (  7676 PWs)   bands (ev):

   -45.7036 -45.0940 -43.8901  -4.0497  -0.6825   1.6959   2.7762   3.2163
     4.3354   5.1522   6.6510

          k = 0.3248 0.5625 0.0985 (  7653 PWs)   bands (ev):

   -45.7036 -45.0940 -43.8901  -4.0479  -0.6813   1.7373   2.4089   3.5760
     4.1671   5.6930   6.5545

          k = 0.3248 0.5625 0.1971 (  7648 PWs)   bands (ev):

   -45.7036 -45.0940 -43.8901  -4.0449  -0.6795   1.8341   2.0957   3.4438
     4.6567   6.2325   6.7579

     the Fermi energy is     2.3347 ev

!    total energy              =     -51.31008297 Ry
     estimated scf accuracy    <          3.5E-11 Ry
     smearing contrib. (-TS)   =       0.00110127 Ry
     internal energy E=F+TS    =     -51.31118424 Ry

     The total energy is F=E-TS. E is the sum of the following terms:
     one-electron contribution =     -30.31870524 Ry
     hartree contribution      =      13.15513275 Ry
     xc contribution           =     -13.16871028 Ry
     ewald contribution        =     -20.97890146 Ry

     convergence has been achieved in  13 iterations

     Forces acting on atoms (cartesian axes, Ry/au):

     atom    1 type  1   force =    -0.00000000   -0.00000000    0.00000000
     atom    2 type  2   force =     0.00000000   -0.00000000   -0.14676042
     atom    3 type  2   force =     0.00000000   -0.00000000    0.14676042
     atom    4 type  2   force =    -0.00000000   -0.00000000    0.00000000
     The non-local contrib.  to forces
     atom    1 type  1   force =    -0.00000000   -0.00000000    0.00000000
     atom    2 type  2   force =     0.00000000    0.00000000    0.11278450
     atom    3 type  2   force =     0.00000000   -0.00000000   -0.11278450
     atom    4 type  2   force =     0.00000000    0.00000000    0.00000000
     The ionic contribution  to forces
     atom    1 type  1   force =    -0.00000007    0.00000004   -0.00000000
     atom    2 type  2   force =     0.00000000   -0.00000000   -0.77736710
     atom    3 type  2   force =     0.00000000   -0.00000000    0.77736710
     atom    4 type  2   force =     0.00000007   -0.00000004   -0.00000000
     The local contribution  to forces
     atom    1 type  1   force =     0.00000001   -0.00000000    0.00000000
     atom    2 type  2   force =    -0.00000000    0.00000000    0.51782599
     atom    3 type  2   force =    -0.00000000    0.00000000   -0.51782599
     atom    4 type  2   force =     0.00000062   -0.00000036    0.00000000
     The core correction contribution to forces
     atom    1 type  1   force =     0.00000000   -0.00000000    0.00000000
     atom    2 type  2   force =     0.00000000    0.00000000    0.00000000
     atom    3 type  2   force =     0.00000000    0.00000000    0.00000000
     atom    4 type  2   force =     0.00000000    0.00000000    0.00000000
     The Hubbard contrib.    to forces
     atom    1 type  1   force =     0.00000000    0.00000000    0.00000000
     atom    2 type  2   force =     0.00000000    0.00000000    0.00000000
     atom    3 type  2   force =     0.00000000    0.00000000    0.00000000
     atom    4 type  2   force =     0.00000000    0.00000000    0.00000000
     The SCF correction term to forces
     atom    1 type  1   force =    -0.00000000    0.00000000   -0.00000000
     atom    2 type  2   force =    -0.00000000   -0.00000000   -0.00000381
     atom    3 type  2   force =    -0.00000000   -0.00000000    0.00000381
     atom    4 type  2   force =    -0.00000000    0.00000000   -0.00000000

     Total force =     0.207551     Total SCF correction =     0.000005


     Computing stress (Cartesian axis) and pressure

          total   stress  (Ry/bohr**3)                   (kbar)     P=      122.54
   0.00112115  -0.00000000   0.00000000          164.93       -0.00        0.00
  -0.00000000   0.00112115   0.00000000           -0.00      164.93        0.00
  -0.00000000   0.00000000   0.00025663           -0.00        0.00       37.75

     Energy error            =      4.3E-01 Ry
     Gradient error          =      1.5E-01 Ry/Bohr
     Cell gradient error     =      4.6E+02 kbar

     number of scf cycles    =   2
     number of bfgs steps    =   1

     enthalpy           old  =     -49.1845116502 Ry
     enthalpy           new  =     -49.6165435484 Ry

     CASE: enthalpy          _new < enthalpy          _old

     new trust radius        =       0.5711601758 bohr
ibrav =      4
 celldm(1) =      5.79726732
 celldm(3) =      2.11445180
Input lattice vectors:
     0.83706142     0.00000000    -0.00000000
    -0.41853071     0.72491645    -0.00000000
     0.00000000    -0.00000000     1.76992602
New lattice vectors in INITIAL alat:
     0.83706142     0.00000000     0.00000000
    -0.41853071     0.72491645     0.00000000
     0.00000000     0.00000000     1.76992602
New lattice vectors in NEW alat (for information only):
     1.00000000     0.00000000     0.00000000
    -0.50000000     0.86602540     0.00000000
     0.00000000     0.00000000     2.11445180
Discrepancy in bohr =     0.000000    0.000000    0.000000
     new conv_thr            =       0.0000000100 Ry

     new unit-cell volume =    356.77828 a.u.^3 (    52.86909 Ang^3 )
     density =      1.53614 g/cm^3

CELL_PARAMETERS (alat=  6.92573710)
   0.837061418   0.000000000   0.000000000
  -0.418530709   0.724916453   0.000000000
   0.000000000   0.000000000   1.769926025

ATOMIC_POSITIONS (crystal)
Si            0.6666666700        0.3333333300        0.0000000000
Li            0.0000000000       -0.0000000000        0.3733408994
Li           -0.0000000000       -0.0000000000        0.6266591006
Li            0.3333333300        0.6666666700        0.0000000000



     Writing config-only to output data dir ./output/SiLi.save/
     NEW-OLD atomic charge density approx. for the potential

     negative rho (up, down):  4.465E-05 0.000E+00
     extrapolated charge    7.85060, renormalised to   13.00000

     total cpu time spent up to now is       23.6 secs

     Self-consistent Calculation

     iteration #  1     ecut=    80.00 Ry     beta= 0.70
     Davidson diagonalization with overlap
     c_bands:  1 eigenvalues not converged
     c_bands:  1 eigenvalues not converged
     c_bands:  2 eigenvalues not converged
     c_bands:  1 eigenvalues not converged
     c_bands:  1 eigenvalues not converged
     c_bands:  2 eigenvalues not converged
     ethr =  1.00E-06,  avg # of iterations = 16.6

     total cpu time spent up to now is       25.9 secs

     total energy              =     -47.94195502 Ry
     estimated scf accuracy    <       3.25693523 Ry

     iteration #  2     ecut=    80.00 Ry     beta= 0.70
     Davidson diagonalization with overlap
     ethr =  1.00E-02,  avg # of iterations =  6.1

     total cpu time spent up to now is       26.9 secs

     total energy              =     -49.68201740 Ry
     estimated scf accuracy    <      26.36188605 Ry

     iteration #  3     ecut=    80.00 Ry     beta= 0.70
     Davidson diagonalization with overlap
     ethr =  1.00E-02,  avg # of iterations =  3.4

     total cpu time spent up to now is       27.6 secs

     total energy              =     -51.22426810 Ry
     estimated scf accuracy    <       2.05913507 Ry

     iteration #  4     ecut=    80.00 Ry     beta= 0.70
     Davidson diagonalization with overlap
     ethr =  1.00E-02,  avg # of iterations =  1.9

     total cpu time spent up to now is       28.1 secs

     total energy              =     -51.06211429 Ry
     estimated scf accuracy    <       0.61505140 Ry

     iteration #  5     ecut=    80.00 Ry     beta= 0.70
     Davidson diagonalization with overlap
     ethr =  4.73E-03,  avg # of iterations =  2.8

     total cpu time spent up to now is       28.7 secs

     total energy              =     -51.17652191 Ry
     estimated scf accuracy    <       0.06847900 Ry

     iteration #  6     ecut=    80.00 Ry     beta= 0.70
     Davidson diagonalization with overlap
     ethr =  5.27E-04,  avg # of iterations =  2.5

     total cpu time spent up to now is       29.2 secs

     total energy              =     -51.18509327 Ry
     estimated scf accuracy    <       0.00034119 Ry

     iteration #  7     ecut=    80.00 Ry     beta= 0.70
     Davidson diagonalization with overlap
     c_bands:  1 eigenvalues not converged
     ethr =  2.62E-06,  avg # of iterations =  9.2

     total cpu time spent up to now is       30.1 secs

     total energy              =     -51.18530617 Ry
     estimated scf accuracy    <       0.00002197 Ry

     iteration #  8     ecut=    80.00 Ry     beta= 0.70
     Davidson diagonalization with overlap
     ethr =  1.69E-07,  avg # of iterations =  2.0

     total cpu time spent up to now is       30.7 secs

     total energy              =     -51.18530942 Ry
     estimated scf accuracy    <       0.00000218 Ry

     iteration #  9     ecut=    80.00 Ry     beta= 0.70
     Davidson diagonalization with overlap
     ethr =  1.68E-08,  avg # of iterations =  1.2

     total cpu time spent up to now is       31.2 secs

     total energy              =     -51.18530954 Ry
     estimated scf accuracy    <       0.00000019 Ry

     iteration # 10     ecut=    80.00 Ry     beta= 0.70
     Davidson diagonalization with overlap
     ethr =  1.48E-09,  avg # of iterations =  1.9

     total cpu time spent up to now is       31.7 secs

     End of self-consistent calculation

          k = 0.0000 0.0000 0.0000 (  7627 PWs)   bands (ev):

   -42.9454 -42.8653 -42.2261  -4.7922   0.0632   2.3703   8.2753   8.2753
     9.2944  10.9471  11.8388

          k = 0.0000 0.0000 0.1130 (  7597 PWs)   bands (ev):

   -42.9451 -42.8656 -42.2261  -4.7844  -0.0935   2.7423   8.1207   8.2762
     8.2762  11.8601  11.8601

          k = 0.0000 0.0000 0.2260 (  7628 PWs)   bands (ev):

   -42.9446 -42.8662 -42.2260  -4.7716  -0.2977   3.4185   6.8744   8.2777
     8.2777  11.8959  11.8959

          k = 0.0000 0.1379 0.0000 (  7645 PWs)   bands (ev):

   -42.9431 -42.8641 -42.2253  -4.6752   0.2513   2.4778   7.3296   7.6617
     9.4737  11.0452  11.9497

          k = 0.0000 0.1379 0.1130 (  7637 PWs)   bands (ev):

   -42.9428 -42.8644 -42.2252  -4.6674   0.0857   2.8632   7.2884   7.6641
     8.3338  11.9323  12.3551

          k = 0.0000 0.1379 0.2260 (  7626 PWs)   bands (ev):

   -42.9423 -42.8649 -42.2252  -4.6545  -0.1271   3.5623   6.8159   7.5505
     7.6681  11.9725  12.8607

          k = 0.0000 0.2759 0.0000 (  7639 PWs)   bands (ev):

   -42.9370 -42.8608 -42.2230  -4.3285   0.8130   2.7797   5.4867   6.6567
     9.8779  11.2780  12.2409

          k = 0.0000 0.2759 0.1130 (  7640 PWs)   bands (ev):

   -42.9368 -42.8611 -42.2230  -4.3207   0.6173   3.2067   5.4663   6.6604
     8.7074  11.8343  12.2173

          k = 0.0000 0.2759 0.2260 (  7671 PWs)   bands (ev):

   -42.9365 -42.8615 -42.2230  -4.3079   0.3783   3.9840   5.3637   6.6664
     7.5078  11.5862  12.2435

          k = 0.0000 0.4138 0.0000 (  7669 PWs)   bands (ev):

   -42.9296 -42.8569 -42.2202  -3.7792   1.7351   2.9055   4.0057   5.8356
     9.6817  10.2608  10.9190

          k = 0.0000 0.4138 0.1130 (  7673 PWs)   bands (ev):

   -42.9295 -42.8570 -42.2202  -3.7716   1.4726   3.1917   4.2082   5.8399
     9.1631   9.5814  11.1445

          k = 0.0000 0.4138 0.2260 (  7659 PWs)   bands (ev):

   -42.9292 -42.8573 -42.2202  -3.7591   1.1908   3.4141   4.7605   5.8468
     8.0890   9.1442  11.7819

          k = 0.0000 0.5518 0.0000 (  7655 PWs)   bands (ev):

   -42.9236 -42.8537 -42.2180  -3.1418   1.7659   2.9557   4.3173   5.3226
     7.3699   8.7844  11.5675

          k = 0.0000 0.5518 0.1130 (  7671 PWs)   bands (ev):

   -42.9235 -42.8537 -42.2180  -3.1351   1.7949   2.6248   4.8403   5.3272
     7.2238   9.1325  10.4824

          k = 0.0000 0.5518 0.2260 (  7671 PWs)   bands (ev):

   -42.9234 -42.8539 -42.2180  -3.1242   1.8803   2.2330   5.3345   5.5681
     7.2277   8.9742   9.8897

          k = 0.0000-0.6897 0.0000 (  7688 PWs)   bands (ev):

   -42.9212 -42.8525 -42.2171  -2.7981   1.1462   3.8928   4.7042   5.1493
     6.0598   8.0192  12.2157

          k = 0.0000-0.6897 0.1130 (  7688 PWs)   bands (ev):

   -42.9212 -42.8525 -42.2171  -2.7924   1.1816   3.3465   5.1539   5.3562
     6.1281   8.2761  11.3694

          k = 0.0000-0.6897 0.2260 (  7666 PWs)   bands (ev):

   -42.9211 -42.8526 -42.2171  -2.7831   1.2499   2.8742   5.1614   5.5462
     7.0056   8.7273   9.7081

          k = 0.1195 0.2069 0.0000 (  7640 PWs)   bands (ev):

   -42.9389 -42.8618 -42.2237  -4.4425   0.6263   2.6879   6.0652   6.7824
     9.8251  11.2285  12.2581

          k = 0.1195 0.2069 0.1130 (  7636 PWs)   bands (ev):

   -42.9387 -42.8621 -42.2237  -4.4347   0.4413   3.1012   6.0689   6.7298
     8.6672  12.2359  12.4170

          k = 0.1195 0.2069 0.2260 (  7631 PWs)   bands (ev):

   -42.9383 -42.8625 -42.2236  -4.4218   0.2112   3.8489   6.0727   6.4579
     7.6547  12.2805  12.5108

          k = 0.1195 0.3449 0.0000 (  7660 PWs)   bands (ev):

   -42.9322 -42.8582 -42.2212  -3.9870   1.3698   3.0438   4.2997   5.9563
    10.3676  10.9291  11.5920

          k = 0.1195 0.3449 0.1130 (  7655 PWs)   bands (ev):

   -42.9320 -42.8584 -42.2212  -3.9792   1.1392   3.4964   4.3152   5.9244
     9.1955  10.5536  12.1522

          k = 0.1195 0.3449 0.2260 (  7655 PWs)   bands (ev):

   -42.9317 -42.8587 -42.2212  -3.9665   0.8743   4.1516   4.4802   5.7730
     8.0504  10.1760  12.3361

          k = 0.1195 0.4828 0.0000 (  7667 PWs)   bands (ev):

   -42.9254 -42.8547 -42.2187  -3.3600   2.3220   2.4546   3.8859   5.4199
     8.5578   9.4869  11.2468

          k = 0.1195 0.4828 0.1130 (  7663 PWs)   bands (ev):

   -42.9253 -42.8548 -42.2187  -3.3527   2.0845   2.4499   4.3411   5.4341
     8.2258   9.7742  10.3945

          k = 0.1195 0.4828 0.2260 (  7659 PWs)   bands (ev):

   -42.9252 -42.8549 -42.2187  -3.3408   1.8095   2.4572   5.0549   5.4565
     7.9788   8.7824  10.8248

          k = 0.1195 0.6208 0.0000 (  7667 PWs)   bands (ev):

   -42.9212 -42.8525 -42.2171  -2.7793   1.1976   3.7087   4.3312   5.2841
     6.5827   8.1543  11.7380

          k = 0.1195 0.6208 0.1130 (  7670 PWs)   bands (ev):

   -42.9212 -42.8525 -42.2171  -2.7731   1.2243   3.2272   4.7127   5.5392
     6.5253   8.4767  11.1308

          k = 0.1195 0.6208 0.2260 (  7664 PWs)   bands (ev):

   -42.9212 -42.8526 -42.2171  -2.7631   1.2748   2.8076   4.8940   5.7467
     7.0060   9.0096   9.7203

          k = 0.2389 0.4138 0.0000 (  7664 PWs)   bands (ev):

   -42.9261 -42.8550 -42.2190  -3.4312   2.2825   2.6929   3.5278   5.4139
     9.5390   9.9006  11.0386

          k = 0.2389 0.4138 0.1130 (  7652 PWs)   bands (ev):

   -42.9260 -42.8551 -42.2189  -3.4237   1.9804   2.7158   4.0178   5.4237
     8.8766   9.9499  10.8210

          k = 0.2389 0.4138 0.2260 (  7651 PWs)   bands (ev):

   -42.9259 -42.8553 -42.2189  -3.4113   1.6774   2.7286   4.7784   5.3975
     8.4604   8.8055  11.0269

          k = 0.2389 0.5518 0.0000 (  7653 PWs)   bands (ev):

   -42.9213 -42.8525 -42.2171  -2.7484   1.2949   3.4874   3.8774   5.3720
     7.6803   8.3664  10.3924

          k = 0.2389 0.5518 0.1130 (  7662 PWs)   bands (ev):

   -42.9212 -42.8525 -42.2171  -2.7415   1.3040   3.0570   4.2604   5.6537
     7.1914   9.0265  10.3711

          k = 0.2389 0.5518 0.2260 (  7663 PWs)   bands (ev):

   -42.9212 -42.8526 -42.2171  -2.7301   1.3201   2.7097   4.5164   6.0963
     6.9858   9.4726   9.9187

          k = 0.2389 0.6897 0.0000 (  7682 PWs)   bands (ev):

   -42.9194 -42.8515 -42.2164  -2.3440   0.6259   3.9863   4.4116   5.6166
     6.4665   7.5812  11.1417

          k = 0.2389 0.6897 0.1130 (  7670 PWs)   bands (ev):

   -42.9194 -42.8515 -42.2164  -2.3376   0.6360   3.7586   4.3359   5.8899
     6.4952   7.9998  10.1657

          k = 0.2389 0.6897 0.2260 (  7663 PWs)   bands (ev):

   -42.9194 -42.8515 -42.2164  -2.3273   0.6530   3.4359   4.4055   5.5778
     7.5211   8.4546  10.3191

          k = 0.3584 0.6208 0.0000 (  7676 PWs)   bands (ev):

   -42.9187 -42.8511 -42.2162  -2.1063   0.3295   3.8335   4.6273   5.8674
     6.8877   7.2581   8.9386

          k = 0.3584 0.6208 0.1130 (  7653 PWs)   bands (ev):

   -42.9187 -42.8511 -42.2162  -2.0993   0.3325   3.8530   4.3129   6.0613
     6.5753   8.2249   8.9653

          k = 0.3584 0.6208 0.2260 (  7648 PWs)   bands (ev):

   -42.9187 -42.8511 -42.2162  -2.0878   0.3375   3.7425   4.2213   5.4986
     7.5513   8.8387   9.6530

     the Fermi energy is     4.5571 ev

!    total energy              =     -51.18530958 Ry
     estimated scf accuracy    <          6.0E-09 Ry
     smearing contrib. (-TS)   =       0.00059451 Ry
     internal energy E=F+TS    =     -51.18590409 Ry

     The total energy is F=E-TS. E is the sum of the following terms:
     one-electron contribution =     -25.92477275 Ry
     hartree contribution      =      12.07378129 Ry
     xc contribution           =     -13.47683009 Ry
     ewald contribution        =     -23.85808255 Ry

     convergence has been achieved in  10 iterations

     Forces acting on atoms (cartesian axes, Ry/au):

     atom    1 type  1   force =    -0.00000000   -0.00000000    0.00000000
     atom    2 type  2   force =     0.00000000   -0.00000000   -0.14241828
     atom    3 type  2   force =     0.00000000   -0.00000000    0.14241828
     atom    4 type  2   force =    -0.00000000   -0.00000000    0.00000000
     The non-local contrib.  to forces
     atom    1 type  1   force =     0.00000000    0.00000000    0.00000000
     atom    2 type  2   force =     0.00000000    0.00000000    0.11999294
     atom    3 type  2   force =     0.00000000    0.00000000   -0.11999294
     atom    4 type  2   force =     0.00000000   -0.00000000    0.00000000
     The ionic contribution  to forces
     atom    1 type  1   force =    -0.00000008    0.00000005   -0.00000000
     atom    2 type  2   force =     0.00000000   -0.00000000   -0.22249792
     atom    3 type  2   force =     0.00000000   -0.00000000    0.22249792
     atom    4 type  2   force =     0.00000008   -0.00000005   -0.00000000
     The local contribution  to forces
     atom    1 type  1   force =     0.00000002   -0.00000001   -0.00000000
     atom    2 type  2   force =    -0.00000000    0.00000000   -0.03995285
     atom    3 type  2   force =    -0.00000000    0.00000000    0.03995285
     atom    4 type  2   force =     0.00000056   -0.00000032    0.00000000
     The core correction contribution to forces
     atom    1 type  1   force =     0.00000000   -0.00000000    0.00000000
     atom    2 type  2   force =     0.00000000    0.00000000    0.00000000
     atom    3 type  2   force =     0.00000000    0.00000000    0.00000000
     atom    4 type  2   force =     0.00000000    0.00000000    0.00000000
     The Hubbard contrib.    to forces
     atom    1 type  1   force =     0.00000000    0.00000000    0.00000000
     atom    2 type  2   force =     0.00000000    0.00000000    0.00000000
     atom    3 type  2   force =     0.00000000    0.00000000    0.00000000
     atom    4 type  2   force =     0.00000000    0.00000000    0.00000000
     The SCF correction term to forces
     atom    1 type  1   force =    -0.00000000    0.00000000    0.00000000
     atom    2 type  2   force =     0.00000000   -0.00000000    0.00003956
     atom    3 type  2   force =     0.00000000   -0.00000000   -0.00003956
     atom    4 type  2   force =     0.00000000   -0.00000000    0.00000000

     Total force =     0.201410     Total SCF correction =     0.000056


     Computing stress (Cartesian axis) and pressure

          total   stress  (Ry/bohr**3)                   (kbar)     P=      338.14
   0.00316850   0.00000000  -0.00000000          466.10        0.00       -0.00
  -0.00000000   0.00316850   0.00000000           -0.00      466.10        0.00
   0.00000000   0.00000000   0.00055890            0.00        0.00       82.22

     Energy error            =      3.6E-01 Ry
     Gradient error          =      1.4E-01 Ry/Bohr
     Cell gradient error     =      4.2E+02 kbar

     number of scf cycles    =   3
     number of bfgs steps    =   2

     enthalpy           old  =     -49.6165435484 Ry
     enthalpy           new  =     -49.9726448644 Ry

     CASE: enthalpy          _new < enthalpy          _old

     new trust radius        =       0.7459944443 bohr
ibrav =      4
 celldm(1) =      5.38018790
 celldm(3) =      1.82845237
Input lattice vectors:
     0.77683975    -0.00000000     0.00000000
    -0.38841988     0.67276296    -0.00000000
    -0.00000000     0.00000000     1.42041449
New lattice vectors in INITIAL alat:
     0.77683975     0.00000000     0.00000000
    -0.38841988     0.67276296     0.00000000
     0.00000000     0.00000000     1.42041449
New lattice vectors in NEW alat (for information only):
     1.00000000     0.00000000     0.00000000
    -0.50000000     0.86602540     0.00000000
     0.00000000     0.00000000     1.82845237
Discrepancy in bohr =     0.000000    0.000000    0.000000
     new conv_thr            =       0.0000000100 Ry

     new unit-cell volume =    246.60769 a.u.^3 (    36.54349 Ang^3 )
     density =      2.22241 g/cm^3

CELL_PARAMETERS (alat=  6.92573710)
   0.776839753   0.000000000   0.000000000
  -0.388419877   0.672762961   0.000000000
   0.000000000   0.000000000   1.420414491

ATOMIC_POSITIONS (crystal)
Si            0.6666666700        0.3333333300        0.0000000000
Li            0.0000000000       -0.0000000000        0.3507470414
Li           -0.0000000000       -0.0000000000        0.6492529586
Li            0.3333333300        0.6666666700        0.0000000000



     Writing config-only to output data dir ./output/SiLi.save/
     NEW-OLD atomic charge density approx. for the potential

     negative rho (up, down):  7.970E-03 0.000E+00
     extrapolated charge    7.19871, renormalised to   13.00000

     total cpu time spent up to now is       34.0 secs

     Self-consistent Calculation

     iteration #  1     ecut=    80.00 Ry     beta= 0.70
     Davidson diagonalization with overlap
     c_bands:  1 eigenvalues not converged
     c_bands:  1 eigenvalues not converged
     c_bands:  1 eigenvalues not converged
     c_bands:  1 eigenvalues not converged
     ethr =  1.00E-06,  avg # of iterations = 15.0

     total cpu time spent up to now is       36.1 secs

     total energy              =     -48.34778446 Ry
     estimated scf accuracy    <       3.07080409 Ry

     iteration #  2     ecut=    80.00 Ry     beta= 0.70
     Davidson diagonalization with overlap
     ethr =  1.00E-02,  avg # of iterations =  4.5

     total cpu time spent up to now is       36.9 secs

     total energy              =     -49.86400931 Ry
     estimated scf accuracy    <      12.58887316 Ry

     iteration #  3     ecut=    80.00 Ry     beta= 0.70
     Davidson diagonalization with overlap
     ethr =  1.00E-02,  avg # of iterations =  2.8

     total cpu time spent up to now is       37.6 secs

     total energy              =     -50.90560157 Ry
     estimated scf accuracy    <       0.88093466 Ry

     iteration #  4     ecut=    80.00 Ry     beta= 0.70
     Davidson diagonalization with overlap
     ethr =  6.78E-03,  avg # of iterations =  1.7

     total cpu time spent up to now is       38.1 secs

     total energy              =     -50.92979547 Ry
     estimated scf accuracy    <       0.09149285 Ry

     iteration #  5     ecut=    80.00 Ry     beta= 0.70
     Davidson diagonalization with overlap
     ethr =  7.04E-04,  avg # of iterations =  4.2

     total cpu time spent up to now is       38.8 secs

     total energy              =     -50.95120577 Ry
     estimated scf accuracy    <       0.02450702 Ry

     iteration #  6     ecut=    80.00 Ry     beta= 0.70
     Davidson diagonalization with overlap
     ethr =  1.89E-04,  avg # of iterations =  1.6

     total cpu time spent up to now is       39.3 secs

     total energy              =     -50.95558463 Ry
     estimated scf accuracy    <       0.00053500 Ry

     iteration #  7     ecut=    80.00 Ry     beta= 0.70
     Davidson diagonalization with overlap
     ethr =  4.12E-06,  avg # of iterations =  5.6

     total cpu time spent up to now is       40.0 secs

     total energy              =     -50.95564963 Ry
     estimated scf accuracy    <       0.00004174 Ry

     iteration #  8     ecut=    80.00 Ry     beta= 0.70
     Davidson diagonalization with overlap
     ethr =  3.21E-07,  avg # of iterations =  1.3

     total cpu time spent up to now is       40.5 secs

     total energy              =     -50.95565227 Ry
     estimated scf accuracy    <       0.00000304 Ry

     iteration #  9     ecut=    80.00 Ry     beta= 0.70
     Davidson diagonalization with overlap
     ethr =  2.34E-08,  avg # of iterations =  1.9

     total cpu time spent up to now is       41.0 secs

     total energy              =     -50.95565285 Ry
     estimated scf accuracy    <       0.00000001 Ry

     iteration # 10     ecut=    80.00 Ry     beta= 0.70
     Davidson diagonalization with overlap
     ethr =  8.88E-11,  avg # of iterations =  3.8

     total cpu time spent up to now is       41.6 secs

     End of self-consistent calculation

          k = 0.0000 0.0000 0.0000 (  7627 PWs)   bands (ev):

   -40.8506 -39.5354 -38.6320  -2.5235   2.3649   5.8197  12.2321  12.2321
    15.1270  15.1270  16.4070

          k = 0.0000 0.0000 0.1408 (  7597 PWs)   bands (ev):

   -40.8501 -39.5367 -38.6312  -2.4918   2.0906   6.4025  12.2390  12.2390
    14.6640  15.1937  15.1937

          k = 0.0000 0.0000 0.2816 (  7628 PWs)   bands (ev):

   -40.8492 -39.5388 -38.6300  -2.4378   1.7304   7.4518  12.2501  12.2501
    12.7317  15.3127  15.3127

          k = 0.0000 0.1486 0.0000 (  7645 PWs)   bands (ev):

   -40.8454 -39.5325 -38.6297  -2.4112   2.5621   5.8885  11.0592  11.3396
    15.2612  16.3791  17.0448

          k = 0.0000 0.1486 0.1408 (  7637 PWs)   bands (ev):

   -40.8449 -39.5337 -38.6291  -2.3791   2.2718   6.4990  11.0496  11.3563
    14.4220  16.1668  16.4445

          k = 0.0000 0.1486 0.2816 (  7626 PWs)   bands (ev):

   -40.8441 -39.5355 -38.6280  -2.3245   1.8967   7.6106  10.9364  11.3838
    12.8000  16.0464  16.5767

          k = 0.0000 0.2973 0.0000 (  7639 PWs)   bands (ev):

   -40.8317 -39.5248 -38.6239  -2.0729   3.1514   5.9882   9.0846  10.0691
    15.5782  16.0322  17.1219

          k = 0.0000 0.2973 0.1408 (  7640 PWs)   bands (ev):

   -40.8313 -39.5256 -38.6234  -2.0399   2.8080   6.6573   9.0664  10.0914
    14.5161  15.5853  17.0175

          k = 0.0000 0.2973 0.2816 (  7671 PWs)   bands (ev):

   -40.8308 -39.5270 -38.6227  -1.9837   2.3887   7.9310   8.8474  10.1285
    13.0049  15.0024  16.9912

          k = 0.0000 0.4459 0.0000 (  7669 PWs)   bands (ev):

   -40.8148 -39.5153 -38.6167  -1.5206   4.1180   5.4332   8.0646   9.0847
    12.9851  14.7911  16.2111

          k = 0.0000 0.4459 0.1408 (  7673 PWs)   bands (ev):

   -40.8146 -39.5157 -38.6165  -1.4871   3.6540   5.8959   8.3764   9.1096
    12.5274  15.1719  15.6572

          k = 0.0000 0.4459 0.2816 (  7659 PWs)   bands (ev):

   -40.8143 -39.5163 -38.6162  -1.4301   3.1736   6.3276   9.0615   9.1510
    12.2201  13.5753  16.9436

          k = 0.0000 0.5946 0.0000 (  7655 PWs)   bands (ev):

   -40.8012 -39.5075 -38.6108  -0.8559   4.1258   5.3812   8.4615   8.4806
    10.4427  12.7732  16.9328

          k = 0.0000 0.5946 0.1408 (  7671 PWs)   bands (ev):

   -40.8011 -39.5076 -38.6108  -0.8242   4.1213   5.0455   8.5068   9.0203
    10.3186  13.4045  16.1091

          k = 0.0000 0.5946 0.2816 (  7671 PWs)   bands (ev):

   -40.8009 -39.5077 -38.6109  -0.7706   4.0671   4.6933   8.5504   9.2871
    11.0901  14.2555  14.9428

          k = 0.0000-0.7432 0.0000 (  7688 PWs)   bands (ev):

   -40.7960 -39.5046 -38.6086  -0.4848   3.4604   6.2897   8.2778   8.9307
     9.1042  11.8127  17.3410

          k = 0.0000-0.7432 0.1408 (  7688 PWs)   bands (ev):

   -40.7959 -39.5045 -38.6087  -0.4561   3.5595   5.6248   8.3043   8.8394
    10.0818  12.2450  16.1048

          k = 0.0000-0.7432 0.2816 (  7666 PWs)   bands (ev):

   -40.7958 -39.5045 -38.6089  -0.4080   3.8315   4.7747   8.3487   8.5793
    12.0940  13.0533  15.3436

          k = 0.1287 0.2230 0.0000 (  7640 PWs)   bands (ev):

   -40.8359 -39.5272 -38.6257  -2.1848   2.9557   5.9925   9.5393  10.3735
    15.7167  17.1903  18.1639

          k = 0.1287 0.2230 0.1408 (  7636 PWs)   bands (ev):

   -40.8355 -39.5281 -38.6252  -2.1520   2.6312   6.6532   9.5501  10.3342
    14.7003  16.5724  16.7560

          k = 0.1287 0.2230 0.2816 (  7631 PWs)   bands (ev):

   -40.8349 -39.5296 -38.6243  -2.0962   2.2265   7.8992   9.4908  10.1324
    13.1698  15.9188  16.7085

          k = 0.1287 0.3716 0.0000 (  7660 PWs)   bands (ev):

   -40.8206 -39.5186 -38.6192  -1.7290   3.7366   5.9026   7.8154   9.5326
    14.4525  15.9407  16.3906

          k = 0.1287 0.3716 0.1408 (  7655 PWs)   bands (ev):

   -40.8204 -39.5191 -38.6189  -1.6954   3.3321   6.4940   7.9585   9.5185
    13.7847  15.1388  16.6214

          k = 0.1287 0.3716 0.2816 (  7655 PWs)   bands (ev):

   -40.8200 -39.5200 -38.6184  -1.6382   2.8727   7.1554   8.5787   9.3140
    13.1909  13.6659  16.1982

          k = 0.1287 0.5202 0.0000 (  7667 PWs)   bands (ev):

   -40.8054 -39.5099 -38.6126  -1.0767   4.7280   4.8731   7.3985   9.1605
    11.6924  13.7911  16.7821

          k = 0.1287 0.5202 0.1408 (  7663 PWs)   bands (ev):

   -40.8053 -39.5101 -38.6126  -1.0432   4.2245   5.1036   7.8229   9.3301
    11.2764  14.4423  15.6906

          k = 0.1287 0.5202 0.2816 (  7659 PWs)   bands (ev):

   -40.8051 -39.5104 -38.6125  -0.9865   3.7711   5.2115   8.3591   9.6373
    11.0717  14.2085  15.3308

          k = 0.1287 0.6689 0.0000 (  7667 PWs)   bands (ev):

   -40.7960 -39.5046 -38.6086  -0.4423   3.5165   6.1513   7.4524   9.3857
     9.5775  12.2051  16.8622

          k = 0.1287 0.6689 0.1408 (  7670 PWs)   bands (ev):

   -40.7959 -39.5045 -38.6087  -0.4116   3.5983   5.5119   7.7747   9.1822
    10.2366  12.6571  15.3896

          k = 0.1287 0.6689 0.2816 (  7664 PWs)   bands (ev):

   -40.7958 -39.5045 -38.6089  -0.3600   3.8151   4.7459   8.0537   8.7699
    11.6785  13.5173  15.1680

          k = 0.2575 0.4459 0.0000 (  7664 PWs)   bands (ev):

   -40.8070 -39.5108 -38.6133  -1.1429   4.6988   5.1202   6.8003   9.3583
    12.6689  14.4361  14.9880

          k = 0.2575 0.4459 0.1408 (  7652 PWs)   bands (ev):

   -40.8069 -39.5110 -38.6133  -1.1087   4.1583   5.3512   7.3128   9.4951
    11.8986  14.6059  15.6709

          k = 0.2575 0.4459 0.2816 (  7651 PWs)   bands (ev):

   -40.8066 -39.5114 -38.6132  -1.0505   3.6611   5.4652   8.0737   9.7712
    11.1588  14.2615  15.1904

          k = 0.2575 0.5946 0.0000 (  7653 PWs)   bands (ev):

   -40.7960 -39.5045 -38.6086  -0.3710   3.6250   5.9702   6.6731   9.5718
    10.5689  12.8403  13.9856

          k = 0.2575 0.5946 0.1408 (  7662 PWs)   bands (ev):

   -40.7960 -39.5045 -38.6087  -0.3368   3.6712   5.3293   7.1864   9.8000
    10.2490  13.3426  14.3824

          k = 0.2575 0.5946 0.2816 (  7663 PWs)   bands (ev):

   -40.7959 -39.5045 -38.6089  -0.2788   3.7805   4.7015   7.6679   9.1623
    11.0182  13.8873  15.3088

          k = 0.2575 0.7432 0.0000 (  7682 PWs)   bands (ev):

   -40.7918 -39.5021 -38.6068   0.1350   2.8159   6.6768   6.9305   9.2716
     9.8432  12.0614  13.7056

          k = 0.2575 0.7432 0.1408 (  7670 PWs)   bands (ev):

   -40.7918 -39.5020 -38.6069   0.1684   2.8650   6.0424   7.1569   8.8569
    10.8248  12.2865  14.0400

          k = 0.2575 0.7432 0.2816 (  7663 PWs)   bands (ev):

   -40.7918 -39.5018 -38.6072   0.2245   2.9610   5.3860   7.4924   8.1888
    12.3254  12.8087  14.9050

          k = 0.3862 0.6689 0.0000 (  7676 PWs)   bands (ev):

   -40.7903 -39.5012 -38.6061   0.5184   2.3681   6.4240   7.2408   9.4020
     9.9365  12.0760  12.6606

          k = 0.3862 0.6689 0.1408 (  7653 PWs)   bands (ev):

   -40.7902 -39.5011 -38.6063   0.5585   2.3914   6.2679   6.9766   8.7663
    10.9481  12.5336  13.1408

          k = 0.3862 0.6689 0.2816 (  7648 PWs)   bands (ev):

   -40.7902 -39.5008 -38.6066   0.6264   2.4329   5.7897   7.2245   7.8920
    11.9931  13.4172  14.8511

     the Fermi energy is     8.0129 ev

!    total energy              =     -50.95565286 Ry
     estimated scf accuracy    <          2.6E-09 Ry
     smearing contrib. (-TS)   =      -0.00042534 Ry
     internal energy E=F+TS    =     -50.95522752 Ry

     The total energy is F=E-TS. E is the sum of the following terms:
     one-electron contribution =     -20.32851523 Ry
     hartree contribution      =      10.86801943 Ry
     xc contribution           =     -13.89191716 Ry
     ewald contribution        =     -27.60281456 Ry

     convergence has been achieved in  10 iterations

     Forces acting on atoms (cartesian axes, Ry/au):

     atom    1 type  1   force =     0.00000000    0.00000000    0.00000000
     atom    2 type  2   force =     0.00000000    0.00000000   -0.11097541
     atom    3 type  2   force =     0.00000000    0.00000000    0.11097541
     atom    4 type  2   force =     0.00000000    0.00000000    0.00000000
     The non-local contrib.  to forces
     atom    1 type  1   force =     0.00000000    0.00000000    0.00000000
     atom    2 type  2   force =     0.00000000    0.00000000    0.19334837
     atom    3 type  2   force =     0.00000000    0.00000000   -0.19334837
     atom    4 type  2   force =     0.00000000    0.00000000    0.00000000
     The ionic contribution  to forces
     atom    1 type  1   force =    -0.00000010    0.00000006   -0.00000000
     atom    2 type  2   force =     0.00000000   -0.00000000    0.49211527
     atom    3 type  2   force =     0.00000000   -0.00000000   -0.49211527
     atom    4 type  2   force =     0.00000010   -0.00000006   -0.00000000
     The local contribution  to forces
     atom    1 type  1   force =     0.00000003   -0.00000002    0.00000000
     atom    2 type  2   force =     0.00000000   -0.00000000   -0.79646978
     atom    3 type  2   force =    -0.00000000   -0.00000000    0.79646978
     atom    4 type  2   force =     0.00000051   -0.00000029    0.00000000
     The core correction contribution to forces
     atom    1 type  1   force =     0.00000000   -0.00000000   -0.00000000
     atom    2 type  2   force =     0.00000000    0.00000000    0.00000000
     atom    3 type  2   force =     0.00000000    0.00000000    0.00000000
     atom    4 type  2   force =     0.00000000    0.00000000    0.00000000
     The Hubbard contrib.    to forces
     atom    1 type  1   force =     0.00000000    0.00000000    0.00000000
     atom    2 type  2   force =     0.00000000    0.00000000    0.00000000
     atom    3 type  2   force =     0.00000000    0.00000000    0.00000000
     atom    4 type  2   force =     0.00000000    0.00000000    0.00000000
     The SCF correction term to forces
     atom    1 type  1   force =     0.00000000   -0.00000000    0.00000000
     atom    2 type  2   force =     0.00000000   -0.00000000    0.00003073
     atom    3 type  2   force =     0.00000000   -0.00000000   -0.00003073
     atom    4 type  2   force =    -0.00000000    0.00000000    0.00000000

     Total force =     0.156943     Total SCF correction =     0.000043


     Computing stress (Cartesian axis) and pressure

          total   stress  (Ry/bohr**3)                   (kbar)     P=      828.86
   0.00725041  -0.00000000   0.00000000         1066.57       -0.00        0.00
  -0.00000000   0.00725041   0.00000000           -0.00     1066.57        0.00
   0.00000000  -0.00000000   0.00240256            0.00       -0.00      353.43

     Energy error            =      1.4E-01 Ry
     Gradient error          =      1.1E-01 Ry/Bohr
     Cell gradient error     =      5.7E+02 kbar

     number of scf cycles    =   4
     number of bfgs steps    =   3

     enthalpy           old  =     -49.9726448644 Ry
     enthalpy           new  =     -50.1174503529 Ry

     CASE: enthalpy          _new < enthalpy          _old

     new trust radius        =       0.1660433412 bohr
ibrav =      4
 celldm(1) =      5.58096727
 celldm(3) =      1.66948451
Input lattice vectors:
     0.80583008    -0.00000000    -0.00000000
    -0.40291504     0.69786932     0.00000000
     0.00000000     0.00000000     1.34532083
New lattice vectors in INITIAL alat:
     0.80583008     0.00000000     0.00000000
    -0.40291504     0.69786932     0.00000000
     0.00000000     0.00000000     1.34532083
New lattice vectors in NEW alat (for information only):
     1.00000000     0.00000000     0.00000000
    -0.50000000     0.86602540     0.00000000
     0.00000000     0.00000000     1.66948451
Discrepancy in bohr =     0.000000    0.000000    0.000000
     new conv_thr            =       0.0000000100 Ry

     new unit-cell volume =    251.32833 a.u.^3 (    37.24302 Ang^3 )
     density =      2.18066 g/cm^3

CELL_PARAMETERS (alat=  6.92573710)
   0.805830078   0.000000000   0.000000000
  -0.402915039   0.697869319   0.000000000
   0.000000000   0.000000000   1.345320834

ATOMIC_POSITIONS (crystal)
Si            0.6666666700        0.3333333300        0.0000000000
Li            0.0000000000       -0.0000000000        0.3437771212
Li           -0.0000000000       -0.0000000000        0.6562228788
Li            0.3333333300        0.6666666700        0.0000000000



     Writing config-only to output data dir ./output/SiLi.save/
     NEW-OLD atomic charge density approx. for the potential
     extrapolated charge   13.24391, renormalised to   13.00000

     total cpu time spent up to now is       43.9 secs

     Self-consistent Calculation

     iteration #  1     ecut=    80.00 Ry     beta= 0.70
     Davidson diagonalization with overlap
     c_bands:  1 eigenvalues not converged
     ethr =  1.00E-06,  avg # of iterations =  9.2

     total cpu time spent up to now is       45.2 secs

     total energy              =     -51.06176455 Ry
     estimated scf accuracy    <       0.00465550 Ry

     iteration #  2     ecut=    80.00 Ry     beta= 0.70
     Davidson diagonalization with overlap
     ethr =  3.58E-05,  avg # of iterations =  2.3

     total cpu time spent up to now is       45.8 secs

     total energy              =     -51.06271903 Ry
     estimated scf accuracy    <       0.00079904 Ry

     iteration #  3     ecut=    80.00 Ry     beta= 0.70
     Davidson diagonalization with overlap
     ethr =  6.15E-06,  avg # of iterations =  2.3

     total cpu time spent up to now is       46.4 secs

     total energy              =     -51.06285211 Ry
     estimated scf accuracy    <       0.00048390 Ry

     iteration #  4     ecut=    80.00 Ry     beta= 0.70
     Davidson diagonalization with overlap
     ethr =  3.72E-06,  avg # of iterations =  1.9

     total cpu time spent up to now is       46.9 secs

     total energy              =     -51.06296604 Ry
     estimated scf accuracy    <       0.00003675 Ry

     iteration #  5     ecut=    80.00 Ry     beta= 0.70
     Davidson diagonalization with overlap
     ethr =  2.83E-07,  avg # of iterations =  1.0

     total cpu time spent up to now is       47.4 secs

     total energy              =     -51.06297014 Ry
     estimated scf accuracy    <       0.00000138 Ry

     iteration #  6     ecut=    80.00 Ry     beta= 0.70
     Davidson diagonalization with overlap
     ethr =  1.06E-08,  avg # of iterations =  2.0

     total cpu time spent up to now is       47.9 secs

     total energy              =     -51.06297038 Ry
     estimated scf accuracy    <       0.00000002 Ry

     iteration #  7     ecut=    80.00 Ry     beta= 0.70
     Davidson diagonalization with overlap
     ethr =  1.52E-10,  avg # of iterations =  3.2

     total cpu time spent up to now is       48.5 secs

     End of self-consistent calculation

          k = 0.0000 0.0000 0.0000 (  7627 PWs)   bands (ev):

   -40.0865 -39.9092 -39.0448  -2.4137   2.9309   5.8359  11.6491  11.6491
    14.0883  14.0884  17.9987

          k = 0.0000 0.0000 0.1487 (  7597 PWs)   bands (ev):

   -40.0709 -39.9276 -39.0421  -2.3630   2.4606   6.6788  11.6641  11.6641
    14.2005  14.2006  15.9520

          k = 0.0000 0.0000 0.2973 (  7628 PWs)   bands (ev):

   -40.0289 -39.9739 -39.0379  -2.2744   1.9104   8.1065  11.6886  11.6886
    13.6196  14.4155  14.4155

          k = 0.0000 0.1433 0.0000 (  7645 PWs)   bands (ev):

   -40.0797 -39.9103 -39.0433  -2.3057   3.1048   5.8952  10.4527  10.7442
    14.6428  15.3163  18.3233

          k = 0.0000 0.1433 0.1487 (  7637 PWs)   bands (ev):

   -40.0647 -39.9277 -39.0409  -2.2545   2.6144   6.7662  10.4762  10.7780
    14.4821  15.4130  16.5122

          k = 0.0000 0.1433 0.2973 (  7626 PWs)   bands (ev):

   -40.0244 -39.9720 -39.0371  -2.1649   2.0503   8.2583  10.4615  10.8348
    13.3006  15.5814  15.6348

          k = 0.0000 0.2866 0.0000 (  7639 PWs)   bands (ev):

   -40.0610 -39.9140 -39.0393  -1.9814   3.6235   5.9264   8.6369   9.5106
    15.2488  15.5239  16.7070

          k = 0.0000 0.2866 0.1487 (  7640 PWs)   bands (ev):

   -40.0477 -39.9289 -39.0376  -1.9287   3.0669   6.8010   8.7206   9.5538
    14.5408  14.9738  17.0680

          k = 0.0000 0.2866 0.2973 (  7671 PWs)   bands (ev):

   -40.0124 -39.9671 -39.0349  -1.8366   2.4649   8.0175   9.0090   9.6271
    13.3813  14.0527  16.7205

          k = 0.0000 0.4299 0.0000 (  7669 PWs)   bands (ev):

   -40.0350 -39.9213 -39.0344  -1.4542   4.4679   5.1719   7.9504   8.5661
    12.7404  14.1465  16.0775

          k = 0.0000 0.4299 0.1487 (  7673 PWs)   bands (ev):

   -40.0246 -39.9326 -39.0336  -1.4003   3.7561   5.6989   8.5339   8.6132
    12.0306  15.0635  15.6060

          k = 0.0000 0.4299 0.2973 (  7659 PWs)   bands (ev):

   -39.9971 -39.9615 -39.0323  -1.3059   3.1231   6.0387   8.6936   9.6771
    11.5563  13.8809  16.7470

          k = 0.0000 0.5732 0.0000 (  7655 PWs)   bands (ev):

   -40.0094 -39.9319 -39.0304  -0.8219   3.8553   5.5424   7.9882   8.5046
    10.4814  12.1888  16.6298

          k = 0.0000 0.5732 0.1487 (  7671 PWs)   bands (ev):

   -40.0023 -39.9392 -39.0304  -0.7686   3.8670   5.0243   8.0371   9.2855
    10.1100  13.1230  16.0603

          k = 0.0000 0.5732 0.2973 (  7671 PWs)   bands (ev):

   -39.9840 -39.9577 -39.0302  -0.6761   3.8339   4.4971   8.1210   9.2214
    11.3342  14.4331  15.0782

          k = 0.0000-0.7165 0.0000 (  7688 PWs)   bands (ev):

   -39.9969 -39.9386 -39.0289  -0.4687   3.2171   6.2532   7.7944   9.0895
     9.3731  11.1639  16.8973

          k = 0.0000-0.7165 0.1487 (  7688 PWs)   bands (ev):

   -39.9916 -39.9438 -39.0291  -0.4177   3.3187   5.4686   7.8438   8.8735
    10.4630  11.8359  15.1101

          k = 0.0000-0.7165 0.2973 (  7666 PWs)   bands (ev):

   -39.9786 -39.9567 -39.0294  -0.3301   3.6201   4.4744   7.9288   8.4522
    12.8108  12.9890  14.1976

          k = 0.1241 0.2149 0.0000 (  7640 PWs)   bands (ev):

   -40.0669 -39.9127 -39.0405  -2.0886   3.4515   5.9673   8.9924   9.8456
    15.3382  16.5365  18.0174

          k = 0.1241 0.2149 0.1487 (  7636 PWs)   bands (ev):

   -40.0531 -39.9284 -39.0386  -2.0364   2.9185   6.8750   9.0350   9.8610
    14.9711  15.6033  16.5018

          k = 0.1241 0.2149 0.2973 (  7631 PWs)   bands (ev):

   -40.0161 -39.9686 -39.0356  -1.9450   2.3284   8.4397   9.0851   9.7582
    13.5842  14.8190  16.1204

          k = 0.1241 0.3582 0.0000 (  7660 PWs)   bands (ev):

   -40.0445 -39.9183 -39.0361  -1.6543   4.1369   5.7296   7.4809   9.0963
    14.0057  15.4632  16.1019

          k = 0.1241 0.3582 0.1487 (  7655 PWs)   bands (ev):

   -40.0330 -39.9309 -39.0350  -1.6005   3.5051   6.3824   7.7847   9.2083
    13.1230  15.3779  15.8440

          k = 0.1241 0.3582 0.2973 (  7655 PWs)   bands (ev):

   -40.0025 -39.9634 -39.0332  -1.5064   2.8739   6.8479   8.5334   9.5510
    12.3619  14.0173  15.1394

          k = 0.1241 0.5015 0.0000 (  7667 PWs)   bands (ev):

   -40.0182 -39.9277 -39.0317  -1.0376   4.4672   5.1216   7.1186   8.9164
    11.5351  13.3209  15.8740

          k = 0.1241 0.5015 0.1487 (  7663 PWs)   bands (ev):

   -40.0099 -39.9365 -39.0314  -0.9829   4.1382   4.9938   7.5423   9.3873
    10.8608  14.3190  14.9603

          k = 0.1241 0.5015 0.2973 (  7659 PWs)   bands (ev):

   -39.9882 -39.9588 -39.0309  -0.8875   3.6230   4.9983   7.9510   9.8317
    10.8736  14.2276  14.7585

          k = 0.1241 0.6448 0.0000 (  7667 PWs)   bands (ev):

   -39.9972 -39.9384 -39.0289  -0.4429   3.3160   6.1744   7.0503   9.3705
     9.7149  11.7240  15.4816

          k = 0.1241 0.6448 0.1487 (  7670 PWs)   bands (ev):

   -39.9918 -39.9436 -39.0291  -0.3896   3.4015   5.3831   7.3355   9.1579
    10.4195  12.4793  14.5901

          k = 0.1241 0.6448 0.2973 (  7664 PWs)   bands (ev):

   -39.9787 -39.9566 -39.0294  -0.2975   3.6495   4.4650   7.6150   8.5345
    12.1203  13.6769  14.3305

          k = 0.2482 0.4299 0.0000 (  7664 PWs)   bands (ev):

   -40.0214 -39.9263 -39.0321  -1.1052   4.8932   4.9765   6.4778   9.1065
    12.2804  14.1824  14.8610

          k = 0.2482 0.4299 0.1487 (  7652 PWs)   bands (ev):

   -40.0126 -39.9356 -39.0317  -1.0498   4.1694   5.1814   7.0528   9.5082
[...]
     ../pseudo/Li_ONCV_PBE_sr.upf
     MD5 check sum: 50ff420e78310ffa21704f3361e624a4
     Pseudo is Norm-conserving, Zval =  3.0
     Generated using ONCVPSP code by D. R. Hamann
     Using radial grid of 1944 points,  4 beta functions with: 
                l(1) =   0
                l(2) =   0
                l(3) =   1
                l(4) =   1

     atomic species   valence    mass     pseudopotential
        Si             4.00    28.08550     Si( 1.00)
        Li             3.00     6.94100     Li( 1.00)

     12 Sym. Ops. (no inversion) found



   Cartesian axes

     site n.     atom                  positions (alat units)
         1           Si  tau(   1) = (   0.5141386   0.2968381   0.0000000  )
         2           Li  tau(   2) = (   0.0000000   0.0000000   0.2161274  )
         3           Li  tau(   3) = (   0.0000000  -0.0000000   0.6049975  )
         4           Li  tau(   4) = (  -0.0000000   0.5936761   0.0000000  )

     number of k points=    42  Marzari-Vanderbilt smearing, width (Ry)=  0.0200
                       cart. coord. in units 2pi/alat
        k(    1) = (   0.0000000   0.0000000   0.0000000), wk =   0.0040000
        k(    2) = (   0.0000000   0.0000000   0.2435683), wk =   0.0080000
        k(    3) = (   0.0000000   0.0000000   0.4871367), wk =   0.0080000
        k(    4) = (   0.0000000   0.1122947   0.0000000), wk =   0.0240000
        k(    5) = (   0.0000000   0.1122947   0.2435683), wk =   0.0480000
        k(    6) = (   0.0000000   0.1122947   0.4871367), wk =   0.0480000
        k(    7) = (   0.0000000   0.2245893   0.0000000), wk =   0.0240000
        k(    8) = (   0.0000000   0.2245893   0.2435683), wk =   0.0480000
        k(    9) = (   0.0000000   0.2245893   0.4871367), wk =   0.0480000
        k(   10) = (   0.0000000   0.3368840   0.0000000), wk =   0.0240000
        k(   11) = (   0.0000000   0.3368840   0.2435683), wk =   0.0480000
        k(   12) = (   0.0000000   0.3368840   0.4871367), wk =   0.0480000
        k(   13) = (   0.0000000   0.4491787   0.0000000), wk =   0.0240000
        k(   14) = (   0.0000000   0.4491787   0.2435683), wk =   0.0480000
        k(   15) = (   0.0000000   0.4491787   0.4871367), wk =   0.0480000
        k(   16) = (   0.0000000  -0.5614734   0.0000000), wk =   0.0120000
        k(   17) = (   0.0000000  -0.5614734   0.2435683), wk =   0.0240000
        k(   18) = (   0.0000000  -0.5614734   0.4871367), wk =   0.0240000
        k(   19) = (   0.0972500   0.1684420   0.0000000), wk =   0.0240000
        k(   20) = (   0.0972500   0.1684420   0.2435683), wk =   0.0480000
        k(   21) = (   0.0972500   0.1684420   0.4871367), wk =   0.0480000
        k(   22) = (   0.0972500   0.2807367   0.0000000), wk =   0.0480000
        k(   23) = (   0.0972500   0.2807367   0.2435683), wk =   0.0960000
        k(   24) = (   0.0972500   0.2807367   0.4871367), wk =   0.0960000
        k(   25) = (   0.0972500   0.3930314   0.0000000), wk =   0.0480000
        k(   26) = (   0.0972500   0.3930314   0.2435683), wk =   0.0960000
        k(   27) = (   0.0972500   0.3930314   0.4871367), wk =   0.0960000
        k(   28) = (   0.0972500   0.5053260   0.0000000), wk =   0.0480000
        k(   29) = (   0.0972500   0.5053260   0.2435683), wk =   0.0960000
        k(   30) = (   0.0972500   0.5053260   0.4871367), wk =   0.0960000
        k(   31) = (   0.1945001   0.3368840   0.0000000), wk =   0.0240000
        k(   32) = (   0.1945001   0.3368840   0.2435683), wk =   0.0480000
        k(   33) = (   0.1945001   0.3368840   0.4871367), wk =   0.0480000
        k(   34) = (   0.1945001   0.4491787   0.0000000), wk =   0.0480000
        k(   35) = (   0.1945001   0.4491787   0.2435683), wk =   0.0960000
        k(   36) = (   0.1945001   0.4491787   0.4871367), wk =   0.0960000
        k(   37) = (   0.1945001   0.5614734   0.0000000), wk =   0.0240000
        k(   38) = (   0.1945001   0.5614734   0.2435683), wk =   0.0480000
        k(   39) = (   0.1945001   0.5614734   0.4871367), wk =   0.0480000
        k(   40) = (   0.2917501   0.5053260   0.0000000), wk =   0.0240000
        k(   41) = (   0.2917501   0.5053260   0.2435683), wk =   0.0480000
        k(   42) = (   0.2917501   0.5053260   0.4871367), wk =   0.0480000

     Dense  grid:    24099 G-vectors     FFT dimensions: (  45,  45,  36)

     Estimated max dynamical RAM per process >      16.89 MB

     Estimated total dynamical RAM >     135.12 MB

     Initial potential from superposition of free atoms

     starting charge      12.9857, renormalised to      13.0000
     Starting wfcs are   10 randomized atomic wfcs +    1 random wfcs

     total cpu time spent up to now is      123.7 secs

     Self-consistent Calculation

     iteration #  1     ecut=    80.00 Ry     beta= 0.70
     Davidson diagonalization with overlap
     c_bands:  1 eigenvalues not converged
     c_bands:  1 eigenvalues not converged
     c_bands:  1 eigenvalues not converged
     c_bands:  1 eigenvalues not converged
     c_bands:  1 eigenvalues not converged
     c_bands:  1 eigenvalues not converged
     c_bands:  1 eigenvalues not converged
     ethr =  1.00E-06,  avg # of iterations = 16.5

     total cpu time spent up to now is      125.0 secs

     total energy              =     -51.35863042 Ry
     estimated scf accuracy    <       0.10055486 Ry

     iteration #  2     ecut=    80.00 Ry     beta= 0.70
     Davidson diagonalization with overlap
     ethr =  7.73E-04,  avg # of iterations =  1.9

     total cpu time spent up to now is      125.4 secs

     total energy              =     -51.37117752 Ry
     estimated scf accuracy    <       0.00161817 Ry

     iteration #  3     ecut=    80.00 Ry     beta= 0.70
     Davidson diagonalization with overlap
     ethr =  1.24E-05,  avg # of iterations =  3.1

     total cpu time spent up to now is      125.8 secs

     total energy              =     -51.37134023 Ry
     estimated scf accuracy    <       0.00011513 Ry

     iteration #  4     ecut=    80.00 Ry     beta= 0.70
     Davidson diagonalization with overlap
     ethr =  8.86E-07,  avg # of iterations =  2.4

     total cpu time spent up to now is      126.2 secs

     total energy              =     -51.37134602 Ry
     estimated scf accuracy    <       0.00000083 Ry

     iteration #  5     ecut=    80.00 Ry     beta= 0.70
     Davidson diagonalization with overlap
     ethr =  6.40E-09,  avg # of iterations =  3.5

     total cpu time spent up to now is      126.6 secs

     total energy              =     -51.37134651 Ry
     estimated scf accuracy    <       0.00000006 Ry

     iteration #  6     ecut=    80.00 Ry     beta= 0.70
     Davidson diagonalization with overlap
     ethr =  4.55E-10,  avg # of iterations =  1.9

     total cpu time spent up to now is      127.0 secs

     total energy              =     -51.37134651 Ry
     estimated scf accuracy    <          2.6E-09 Ry

     iteration #  7     ecut=    80.00 Ry     beta= 0.70
     Davidson diagonalization with overlap
     ethr =  2.02E-11,  avg # of iterations =  2.2

     total cpu time spent up to now is      127.3 secs

     End of self-consistent calculation

          k = 0.0000 0.0000 0.0000 (  2963 PWs)   bands (ev):

   -41.3739 -39.1595 -37.6596  -2.0084   6.8089   6.8089   8.6889   8.6889
    10.6517  11.5206  13.6283

          k = 0.0000 0.0000 0.2436 (  3034 PWs)   bands (ev):

   -41.1983 -39.3675 -37.6558  -1.4634   6.8281   7.3431   7.3431   9.2301
     9.2301  13.7860  14.9806

          k = 0.0000 0.0000 0.4871 (  3040 PWs)   bands (ev):

   -40.7718 -39.8461 -37.6500   0.0622   3.3170   8.6466   8.6466  10.6150
    10.6150  13.6855  13.6855

          k = 0.0000 0.1123 0.0000 (  2981 PWs)   bands (ev):

   -41.3734 -39.1594 -37.6598  -1.9669   6.1042   6.2511   9.2326   9.5069
    10.8243  11.5822  13.9811

          k = 0.0000 0.1123 0.2436 (  3011 PWs)   bands (ev):

   -41.1979 -39.3674 -37.6561  -1.4194   6.5895   6.7907   6.9531   9.8475
    10.0387  13.9794  14.7080

          k = 0.0000 0.1123 0.4871 (  3033 PWs)   bands (ev):

   -40.7716 -39.8457 -37.6503   0.1103   3.3935   7.9556   8.1235  11.2317
    11.3660  12.5488  13.2798

          k = 0.0000 0.2246 0.0000 (  3007 PWs)   bands (ev):

   -41.3722 -39.1593 -37.6603  -1.8506   4.9851   5.4525   9.8428  11.0830
    11.3494  11.7600  14.9851

          k = 0.0000 0.2246 0.2436 (  3012 PWs)   bands (ev):

   -41.1968 -39.3669 -37.6568  -1.2956   5.4728   5.9966   7.2043  10.6185
    11.5932  13.6383  14.8254

          k = 0.0000 0.2246 0.4871 (  3024 PWs)   bands (ev):

   -40.7710 -39.8446 -37.6512   0.2458   3.6153   6.8526   7.3514  10.8671
    12.1187  12.2504  13.2147

          k = 0.0000 0.3369 0.0000 (  3024 PWs)   bands (ev):

   -41.3707 -39.1592 -37.6610  -1.6876   4.0109   4.8325  10.1848  12.0241
    12.0687  12.9840  16.1425

          k = 0.0000 0.3369 0.2436 (  3018 PWs)   bands (ev):

   -41.1955 -39.3664 -37.6577  -1.1209   4.4863   5.3792   7.6322  10.8657
    12.8714  13.4189  15.4238

          k = 0.0000 0.3369 0.4871 (  3021 PWs)   bands (ev):

   -40.7702 -39.8432 -37.6524   0.4385   3.9461   5.8986   6.7456   9.4004
    11.8066  12.7445  14.6687

          k = 0.0000 0.4492 0.0000 (  3016 PWs)   bands (ev):

   -41.3695 -39.1590 -37.6615  -1.5346   3.3485   4.4516  10.3803  12.2942
    12.7835  15.0963  16.0597

          k = 0.0000 0.4492 0.2436 (  3015 PWs)   bands (ev):

   -41.1944 -39.3660 -37.6583  -0.9554   3.8109   4.9997   8.1656  10.4164
    12.6588  14.8510  15.7747

          k = 0.0000 0.4492 0.4871 (  3012 PWs)   bands (ev):

   -40.7696 -39.8421 -37.6533   0.6234   4.2607   5.3031   6.3722   8.3162
    11.4500  13.1172  14.7820

          k = 0.0000-0.5615 0.0000 (  3016 PWs)   bands (ev):

   -41.3690 -39.1590 -37.6617  -1.4695   3.1107   4.3236  10.4486  12.4183
    13.1537  15.6807  16.7529

          k = 0.0000-0.5615 0.2436 (  3022 PWs)   bands (ev):

   -41.1940 -39.3658 -37.6586  -0.8843   3.5670   4.8722   8.5050  10.0155
    12.6752  14.9860  15.8831

          k = 0.0000-0.5615 0.4871 (  3024 PWs)   bands (ev):

   -40.7694 -39.8416 -37.6536   0.7037   4.3572   5.1622   6.2466   7.8818
    11.3267  13.2436  14.8188

          k = 0.0973 0.1684 0.0000 (  2990 PWs)   bands (ev):

   -41.3726 -39.1594 -37.6602  -1.8878   5.3290   5.5891   9.9497  10.3063
    11.2702  11.7024  14.6703

          k = 0.0973 0.1684 0.2436 (  3013 PWs)   bands (ev):

   -41.1972 -39.3671 -37.6566  -1.3353   5.8523   6.0775   7.1472  10.5733
    11.0212  13.9656  14.4621

          k = 0.0973 0.1684 0.4871 (  3014 PWs)   bands (ev):

   -40.7712 -39.8449 -37.6510   0.2022   3.5433   7.1859   7.4888  11.4106
    12.0599  12.0982  12.6445

          k = 0.0973 0.2807 0.0000 (  3002 PWs)   bands (ev):

   -41.3712 -39.1592 -37.6607  -1.7465   4.3801   4.9279  10.4411  11.3608
    11.9276  12.3802  15.8458

          k = 0.0973 0.2807 0.2436 (  3006 PWs)   bands (ev):

   -41.1960 -39.3666 -37.6574  -1.1843   4.8832   5.4324   7.4973  11.1493
    12.4741  13.2208  14.4931

          k = 0.0973 0.2807 0.4871 (  3026 PWs)   bands (ev):

   -40.7705 -39.8437 -37.6520   0.3681   3.8260   6.2599   6.8238  10.0123
    11.6922  12.8315  13.7564

          k = 0.0973 0.3930 0.0000 (  3014 PWs)   bands (ev):

   -41.3699 -39.1591 -37.6613  -1.5837   3.5945   4.4654  10.6695  12.2091
    12.3532  14.0172  16.4157

          k = 0.0973 0.3930 0.2436 (  3016 PWs)   bands (ev):

   -41.1948 -39.3661 -37.6581  -1.0089   4.0792   4.9799   7.9789  10.9976
    12.7320  14.0886  14.5764

          k = 0.0973 0.3930 0.4871 (  3022 PWs)   bands (ev):

   -40.7698 -39.8424 -37.6530   0.5627   4.1775   5.5114   6.3414   8.7949
    11.2499  13.3184  15.0598

          k = 0.0973 0.5053 0.0000 (  3023 PWs)   bands (ev):

   -41.3690 -39.1590 -37.6617  -1.4684   3.1518   4.2294  10.7915  12.4291
    13.0697  15.4711  16.2866

          k = 0.0973 0.5053 0.2436 (  3022 PWs)   bands (ev):

   -41.1940 -39.3658 -37.6586  -0.8834   3.6244   4.7476   8.4559  10.4108
    12.7905  14.1322  16.1130

          k = 0.0973 0.5053 0.4871 (  3025 PWs)   bands (ev):

   -40.7694 -39.8416 -37.6536   0.7035   4.4046   5.1760   6.0719   8.0423
    11.0236  13.5724  15.3584

          k = 0.1945 0.3369 0.0000 (  3014 PWs)   bands (ev):

   -41.3700 -39.1591 -37.6613  -1.6015   3.7399   4.3937  11.4800  11.5349
    12.1810  13.5856  16.6259

          k = 0.1945 0.3369 0.2436 (  3013 PWs)   bands (ev):

   -41.1949 -39.3662 -37.6580  -1.0283   4.2592   4.8600   7.9311  11.7038
    12.5313  13.5463  14.0213

          k = 0.1945 0.3369 0.4871 (  3030 PWs)   bands (ev):

   -40.7699 -39.8425 -37.6529   0.5404   4.1501   5.6548   6.2309   9.0814
    10.9953  13.8039  14.5943

          k = 0.1945 0.4492 0.0000 (  3021 PWs)   bands (ev):

   -41.3691 -39.1590 -37.6617  -1.4666   3.2340   4.0655  11.6630  12.4468
    12.6403  14.6698  16.2970

          k = 0.1945 0.4492 0.2436 (  3019 PWs)   bands (ev):

   -41.1940 -39.3658 -37.6586  -0.8820   3.7479   4.5224   8.4054  11.2778
    12.6951  13.4960  15.1360

          k = 0.1945 0.4492 0.4871 (  3020 PWs)   bands (ev):

   -40.7694 -39.8416 -37.6536   0.7032   4.4935   5.2113   5.7991   8.2884
    10.5995  14.3868  15.8492

          k = 0.1945 0.5615 0.0000 (  3026 PWs)   bands (ev):

   -41.3687 -39.1590 -37.6619  -1.4097   3.0416   3.9573  11.7294  12.5719
    13.2533  15.0253  16.1233

          k = 0.1945 0.5615 0.2436 (  3034 PWs)   bands (ev):

   -41.1937 -39.3657 -37.6588  -0.8198   3.5505   4.4132   8.6620  10.9130
    12.8020  13.4944  16.6208

          k = 0.1945 0.5615 0.4871 (  3011 PWs)   bands (ev):

   -40.7692 -39.8413 -37.6539   0.7728   4.6190   5.1275   5.5985   7.9636
    10.4753  14.5656  16.5302

          k = 0.2918 0.5053 0.0000 (  3040 PWs)   bands (ev):

   -41.3685 -39.1589 -37.6619  -1.3859   3.0102   3.8378  12.6169  12.6377
    13.0353  14.6456  15.9428

          k = 0.2918 0.5053 0.2436 (  3028 PWs)   bands (ev):

   -41.1936 -39.3657 -37.6589  -0.7941   3.5465   4.2558   8.7264  11.4537
    12.1602  13.9260  15.7634

          k = 0.2918 0.5053 0.4871 (  3021 PWs)   bands (ev):

   -40.7692 -39.8411 -37.6540   0.8005   4.8197   5.0666   5.3368   7.9506
    10.2524  15.5701  16.5278

     the Fermi energy is     7.7385 ev

!    total energy              =     -51.37134651 Ry
     estimated scf accuracy    <          7.9E-11 Ry
     smearing contrib. (-TS)   =       0.00011756 Ry
     internal energy E=F+TS    =     -51.37146408 Ry

     The total energy is F=E-TS. E is the sum of the following terms:
     one-electron contribution =     -18.73930287 Ry
     hartree contribution      =      10.07480087 Ry
     xc contribution           =     -13.77607628 Ry
     ewald contribution        =     -28.93088579 Ry

     convergence has been achieved in   7 iterations

     Forces acting on atoms (cartesian axes, Ry/au):

     atom    1 type  1   force =     0.00000000    0.00000000    0.00000000
     atom    2 type  2   force =     0.00000000    0.00000000    0.00004246
     atom    3 type  2   force =    -0.00000000   -0.00000000   -0.00004246
     atom    4 type  2   force =    -0.00000000   -0.00000000    0.00000000
     The non-local contrib.  to forces
     atom    1 type  1   force =     0.00000000    0.00000000    0.00000000
     atom    2 type  2   force =     0.00000000   -0.00000000    0.21336687
     atom    3 type  2   force =     0.00000000    0.00000000   -0.21336687
     atom    4 type  2   force =    -0.00000000   -0.00000000    0.00000000
     The ionic contribution  to forces
     atom    1 type  1   force =    -0.00000010    0.00000006   -0.00000000
     atom    2 type  2   force =     0.00000001   -0.00000000    0.09913536
     atom    3 type  2   force =     0.00000001   -0.00000000   -0.09913536
     atom    4 type  2   force =     0.00000009   -0.00000005   -0.00000000
     The local contribution  to forces
     atom    1 type  1   force =     0.00000003   -0.00000002   -0.00000000
     atom    2 type  2   force =     0.00000000   -0.00000000   -0.31246154
     atom    3 type  2   force =     0.00000000   -0.00000000    0.31246154
     atom    4 type  2   force =     0.00000067   -0.00000038    0.00000000
     The core correction contribution to forces
     atom    1 type  1   force =     0.00000000   -0.00000000    0.00000000
     atom    2 type  2   force =     0.00000000    0.00000000    0.00000000
     atom    3 type  2   force =     0.00000000    0.00000000    0.00000000
     atom    4 type  2   force =     0.00000000    0.00000000    0.00000000
     The Hubbard contrib.    to forces
     atom    1 type  1   force =     0.00000000    0.00000000    0.00000000
     atom    2 type  2   force =     0.00000000    0.00000000    0.00000000
     atom    3 type  2   force =     0.00000000    0.00000000    0.00000000
     atom    4 type  2   force =     0.00000000    0.00000000    0.00000000
     The SCF correction term to forces
     atom    1 type  1   force =    -0.00000000    0.00000000   -0.00000000
     atom    2 type  2   force =     0.00000000   -0.00000000    0.00000177
     atom    3 type  2   force =     0.00000000   -0.00000000   -0.00000177
     atom    4 type  2   force =     0.00000000   -0.00000000   -0.00000000

     Total force =     0.000060     Total SCF correction =     0.000003


     Computing stress (Cartesian axis) and pressure

          total   stress  (Ry/bohr**3)                   (kbar)     P=      500.05
   0.00340057   0.00000000   0.00000000          500.24        0.00        0.00
   0.00000000   0.00340057   0.00000000            0.00      500.24        0.00
   0.00000000   0.00000000   0.00339664            0.00        0.00      499.66


     Writing all to output data dir ./output/SiLi.save/

     init_run     :      1.33s CPU      1.53s WALL (       2 calls)
     electrons    :     84.67s CPU     89.37s WALL (      17 calls)
     update_pot   :      9.05s CPU      9.17s WALL (      15 calls)
     forces       :      5.84s CPU      5.97s WALL (      17 calls)
     stress       :     20.25s CPU     21.50s WALL (      17 calls)

     Called by init_run:
     wfcinit      :      0.30s CPU      0.32s WALL (       2 calls)
     potinit      :      0.40s CPU      0.49s WALL (       2 calls)
     hinit0       :      0.57s CPU      0.63s WALL (       2 calls)

     Called by electrons:
     c_bands      :     73.08s CPU     76.46s WALL (     127 calls)
     sum_band     :     10.07s CPU     10.51s WALL (     127 calls)
     v_of_rho     :      1.54s CPU      2.31s WALL (     143 calls)
     mix_rho      :      0.11s CPU      0.20s WALL (     127 calls)

     Called by c_bands:
     init_us_2    :      2.57s CPU      2.74s WALL (   12180 calls)
     init_us_2:cp :      2.56s CPU      2.73s WALL (   12180 calls)
     cegterg      :     68.83s CPU     70.55s WALL (    5334 calls)

     Called by *egterg:
     cdiaghg      :      3.24s CPU      3.36s WALL (   23413 calls)
     h_psi        :     58.25s CPU     59.68s WALL (   24169 calls)
     g_psi        :      0.38s CPU      0.39s WALL (   18751 calls)

     Called by h_psi:
     h_psi:calbec :      3.47s CPU      3.56s WALL (   24169 calls)
     vloc_psi     :     51.78s CPU     53.03s WALL (   24169 calls)
     add_vuspsi   :      2.75s CPU      2.81s WALL (   24169 calls)

     General routines
     calbec       :      4.31s CPU      4.42s WALL (   27739 calls)
     fft          :      1.26s CPU      2.33s WALL (    1854 calls)
     ffts         :      0.06s CPU      0.09s WALL (     127 calls)
     fftw         :     51.95s CPU     53.14s WALL (  417698 calls)

     Parallel routines

     PWSCF        :   2m 1.42s CPU   2m 8.21s WALL


   This run was terminated on:  11:33:43  29Dec2024            

=------------------------------------------------------------------------------=
   JOB DONE.
=------------------------------------------------------------------------------=
