
     Program PWSCF v.7.2 starts on 29Dec2024 at 17:29:40 

     This program is part of the open-source Quantum ESPRESSO suite
     for quantum simulation of materials; please cite
         "P. Giannozzi et al., J. Phys.:Condens. Matter 21 395502 (2009);
         "P. Giannozzi et al., J. Phys.:Condens. Matter 29 465901 (2017);
         "P. Giannozzi et al., J. Chem. Phys. 152 154105 (2020);
          URL http://www.quantum-espresso.org", 
     in publications or presentations arising from this work. More details at
     http://www.quantum-espresso.org/quote

     Parallel version (MPI & OpenMP), running on       8 processor cores
     Number of MPI processes:                 8
     Threads/MPI process:                     1

     MPI processes distributed on     1 nodes
     480590 MiB available memory on the printing compute node when the environment starts

     Waiting for input...
     Reading input from standard input

     Current dimensions of program PWSCF are:
     Max number of different atomic species (ntypx) = 10
     Max number of k-points (npk) =  40000
     Max angular momentum in pseudopotentials (lmaxx) =  4

     R & G space division:  proc/nbgrp/npool/nimage =       8
     Subspace diagonalization in iterative solution of the eigenvalue problem:
     a serial algorithm will be used


     Parallelization info
     --------------------
     sticks:   dense  smooth     PW     G-vecs:    dense   smooth      PW
     Min         320     320     90                12940    12940    1899
     Max         321     321     91                12945    12945    1900
     Sum        2563    2563    721               103531   103531   15199

     Using Slab Decomposition



     bravais-lattice index     =            4
     lattice parameter (alat)  =      10.7810  a.u.
     unit-cell volume          =    1071.0746 (a.u.)^3
     number of atoms/cell      =            8
     number of atomic types    =            2
     number of electrons       =        30.00
     number of Kohn-Sham states=           19
     kinetic-energy cutoff     =      80.0000  Ry
     charge density cutoff     =     320.0000  Ry
     scf convergence threshold =      1.0E-08
     mixing beta               =       0.7000
     number of iterations used =            8  plain     mixing
     energy convergence thresh.=      1.0E-04
     force convergence thresh. =      1.0E-03
     press convergence thresh. =      1.0E+00
     Exchange-correlation= PBE
                           (   1   4   3   4   0   0   0)
     nstep                     =           50


     celldm(1)=  10.780999  celldm(2)=   0.000000  celldm(3)=   0.986989
     celldm(4)=   0.000000  celldm(5)=   0.000000  celldm(6)=   0.000000

     crystal axes: (cart. coord. in units of alat)
               a(1) = (   1.000000   0.000000   0.000000 )  
               a(2) = (  -0.500000   0.866025   0.000000 )  
               a(3) = (   0.000000   0.000000   0.986989 )  

     reciprocal axes: (cart. coord. in units 2 pi/alat)
               b(1) = (  1.000000  0.577350 -0.000000 )  
               b(2) = (  0.000000  1.154701  0.000000 )  
               b(3) = (  0.000000 -0.000000  1.013183 )  


     PseudoPot. # 1 for Si read from file:
     ../pseudo/Si_ONCV_PBE_sr.upf
     MD5 check sum: e543d271109d17c80368dfa7c482276d
     Pseudo is Norm-conserving + core correction, Zval =  4.0
     Generated using ONCVPSP code by D. R. Hamann
     Using radial grid of 1510 points,  6 beta functions with: 
                l(1) =   0
                l(2) =   0
                l(3) =   1
                l(4) =   1
                l(5) =   2
                l(6) =   2

     PseudoPot. # 2 for Li read from file:
     ../pseudo/Li_ONCV_PBE_sr.upf
     MD5 check sum: 50ff420e78310ffa21704f3361e624a4
     Pseudo is Norm-conserving, Zval =  3.0
     Generated using ONCVPSP code by D. R. Hamann
     Using radial grid of 1944 points,  4 beta functions with: 
                l(1) =   0
                l(2) =   0
                l(3) =   1
                l(4) =   1

     atomic species   valence    mass     pseudopotential
        Si             4.00    28.08550     Si( 1.00)
        Li             3.00     6.94100     Li( 1.00)

     12 Sym. Ops., with inversion, found



   Cartesian axes

     site n.     atom                  positions (alat units)
         1           Si  tau(   1) = (   0.0000000   0.2220657   0.1586140  )
         2           Si  tau(   2) = (   0.5000000   0.6439597   0.8283746  )
         3           Si  tau(   3) = (   0.3076855   0.7549926   0.1586140  )
         4           Si  tau(   4) = (   0.1923145   0.1110328   0.8283746  )
         5           Si  tau(   5) = (  -0.3076855   0.7549926   0.1586140  )
         6           Si  tau(   6) = (   0.8076855   0.1110328   0.8283746  )
         7           Li  tau(   7) = (  -0.0000000   0.5773503   0.3750586  )
         8           Li  tau(   8) = (   0.5000000   0.2886751   0.6119300  )

     number of k points=    34  Marzari-Vanderbilt smearing, width (Ry)=  0.0200
                       cart. coord. in units 2pi/alat
        k(    1) = (   0.0000000   0.0000000   0.0000000), wk =   0.0092593
        k(    2) = (   0.0000000   0.0000000   0.1688638), wk =   0.0185185
        k(    3) = (   0.0000000   0.0000000   0.3377276), wk =   0.0185185
        k(    4) = (   0.0000000   0.0000000  -0.5065915), wk =   0.0092593
        k(    5) = (   0.0000000   0.1924501   0.0000000), wk =   0.0555556
        k(    6) = (   0.0000000   0.1924501   0.1688638), wk =   0.0555556
        k(    7) = (   0.0000000   0.1924501   0.3377276), wk =   0.0555556
        k(    8) = (   0.0000000   0.1924501  -0.5065915), wk =   0.0555556
        k(    9) = (   0.0000000   0.3849002   0.0000000), wk =   0.0555556
        k(   10) = (   0.0000000   0.3849002   0.1688638), wk =   0.0555556
        k(   11) = (   0.0000000   0.3849002   0.3377276), wk =   0.0555556
        k(   12) = (   0.0000000   0.3849002  -0.5065915), wk =   0.0555556
        k(   13) = (   0.0000000  -0.5773503   0.0000000), wk =   0.0277778
        k(   14) = (   0.0000000  -0.5773503   0.1688638), wk =   0.0555556
        k(   15) = (   0.0000000  -0.5773503   0.3377276), wk =   0.0555556
        k(   16) = (   0.0000000  -0.5773503  -0.5065915), wk =   0.0277778
        k(   17) = (   0.1666667   0.2886751   0.0000000), wk =   0.0555556
        k(   18) = (   0.1666667   0.2886751   0.1688638), wk =   0.1111111
        k(   19) = (   0.1666667   0.2886751   0.3377276), wk =   0.1111111
        k(   20) = (   0.1666667   0.2886751  -0.5065915), wk =   0.0555556
        k(   21) = (   0.1666667   0.4811252   0.0000000), wk =   0.1111111
        k(   22) = (   0.1666667   0.4811252   0.1688638), wk =   0.1111111
        k(   23) = (   0.1666667   0.4811252   0.3377276), wk =   0.1111111
        k(   24) = (   0.1666667   0.4811252  -0.5065915), wk =   0.1111111
        k(   25) = (   0.3333333   0.5773503   0.0000000), wk =   0.0185185
        k(   26) = (   0.3333333   0.5773503   0.1688638), wk =   0.0370370
        k(   27) = (   0.3333333   0.5773503   0.3377276), wk =   0.0370370
        k(   28) = (   0.3333333   0.5773503  -0.5065915), wk =   0.0185185
        k(   29) = (   0.0000000   0.1924501  -0.1688638), wk =   0.0555556
        k(   30) = (   0.0000000   0.1924501  -0.3377276), wk =   0.0555556
        k(   31) = (   0.0000000   0.3849002  -0.1688638), wk =   0.0555556
        k(   32) = (   0.0000000   0.3849002  -0.3377276), wk =   0.0555556
        k(   33) = (  -0.1666667   0.4811252  -0.1688638), wk =   0.1111111
        k(   34) = (  -0.1666667   0.4811252  -0.3377276), wk =   0.1111111

     Dense  grid:   103531 G-vectors     FFT dimensions: (  64,  64,  64)

     Estimated max dynamical RAM per process >      40.96 MB

     Estimated total dynamical RAM >     327.69 MB

     Initial potential from superposition of free atoms

     starting charge      29.9872, renormalised to      30.0000
     Starting wfcs are   28 randomized atomic wfcs

     total cpu time spent up to now is        4.2 secs

     Self-consistent Calculation

     iteration #  1     ecut=    80.00 Ry     beta= 0.70
     Davidson diagonalization with overlap
     ethr =  1.00E-02,  avg # of iterations =  3.4

     total cpu time spent up to now is        6.8 secs

     WARNING: integrated charge=    30.00451485, expected=    30.00000000

     total energy              =     -79.01964631 Ry
     estimated scf accuracy    <       0.49528243 Ry

     iteration #  2     ecut=    80.00 Ry     beta= 0.70
     Davidson diagonalization with overlap
     ethr =  1.65E-03,  avg # of iterations =  2.3

     total cpu time spent up to now is        9.1 secs

     WARNING: integrated charge=    30.00244616, expected=    30.00000000

     total energy              =     -79.12892691 Ry
     estimated scf accuracy    <       0.17069997 Ry

     iteration #  3     ecut=    80.00 Ry     beta= 0.70
     Davidson diagonalization with overlap
     ethr =  5.69E-04,  avg # of iterations =  2.1

     total cpu time spent up to now is       11.4 secs

     WARNING: integrated charge=    30.00066316, expected=    30.00000000

     total energy              =     -79.17377100 Ry
     estimated scf accuracy    <       0.00836884 Ry

     iteration #  4     ecut=    80.00 Ry     beta= 0.70
     Davidson diagonalization with overlap
     ethr =  2.79E-05,  avg # of iterations =  6.5
     Minimization algorithm failed to find Fermi energy: reverting to bisection
     Possible cause: smearing is larger than the electronic band-gap.

     total cpu time spent up to now is       14.1 secs

     WARNING: integrated charge=    30.00022451, expected=    30.00000000

     total energy              =     -79.17506067 Ry
     estimated scf accuracy    <       0.00086239 Ry

     iteration #  5     ecut=    80.00 Ry     beta= 0.70
     Davidson diagonalization with overlap
     ethr =  2.87E-06,  avg # of iterations =  5.5
     Minimization algorithm failed to find Fermi energy: reverting to bisection
     Possible cause: smearing is larger than the electronic band-gap.

     total cpu time spent up to now is       16.8 secs

     WARNING: integrated charge=    30.00003723, expected=    30.00000000

     total energy              =     -79.17537647 Ry
     estimated scf accuracy    <       0.00012107 Ry

     iteration #  6     ecut=    80.00 Ry     beta= 0.70
     Davidson diagonalization with overlap
     ethr =  4.04E-07,  avg # of iterations =  2.8

     total cpu time spent up to now is       18.9 secs

     WARNING: integrated charge=    29.99999663, expected=    30.00000000

     total energy              =     -79.17538571 Ry
     estimated scf accuracy    <       0.00003572 Ry

     iteration #  7     ecut=    80.00 Ry     beta= 0.70
     Davidson diagonalization with overlap
     ethr =  1.19E-07,  avg # of iterations =  2.5

     total cpu time spent up to now is       21.0 secs

     total energy              =     -79.17539785 Ry
     estimated scf accuracy    <       0.00000417 Ry

     iteration #  8     ecut=    80.00 Ry     beta= 0.70
     Davidson diagonalization with overlap
     ethr =  1.39E-08,  avg # of iterations =  2.0

     total cpu time spent up to now is       23.0 secs

     total energy              =     -79.17539822 Ry
     estimated scf accuracy    <       0.00000054 Ry

     iteration #  9     ecut=    80.00 Ry     beta= 0.70
     Davidson diagonalization with overlap
     ethr =  1.79E-09,  avg # of iterations =  3.3
     Minimization algorithm failed to find Fermi energy: reverting to bisection
     Possible cause: smearing is larger than the electronic band-gap.

     total cpu time spent up to now is       25.3 secs

     End of self-consistent calculation

          k = 0.0000 0.0000 0.0000 ( 13003 PWs)   bands (ev):

   -40.7540 -40.7525  -9.8098  -4.0343  -3.7682  -3.7682  -0.8298   0.3272
     0.6420   0.6420   1.9454   1.9454   2.3575   3.9300   3.9300   6.1278
     6.1278   6.9207   7.4534

          k = 0.0000 0.0000 0.1689 ( 13008 PWs)   bands (ev):

   -40.7540 -40.7525  -9.7956  -4.1927  -3.7500  -3.7500  -0.7196   0.6147
     0.6808   0.6808   1.7118   1.7118   2.2909   3.9549   3.9549   6.2457
     6.2457   6.3263   8.1185

          k = 0.0000 0.0000 0.3377 ( 12948 PWs)   bands (ev):

   -40.7540 -40.7525  -9.7666  -4.4656  -3.7123  -3.7123  -0.5719   0.7623
     0.7623   1.3451   1.3513   1.3513   2.1440   3.7916   3.7916   5.6322
     6.8783   6.8784   7.7269

          k = 0.0000 0.0000-0.5066 ( 12930 PWs)   bands (ev):

   -40.7540 -40.7525  -9.7517  -4.5866  -3.6929  -3.6929  -0.5161   0.8026
     0.8026   1.2054   1.2054   1.9434   1.9438   3.6672   3.6672   5.2141
     7.3834   7.3834   7.4182

          k = 0.0000 0.1925 0.0000 ( 12951 PWs)   bands (ev):

   -40.7539 -40.7526  -9.7834  -4.0266  -3.9976  -3.8276  -0.5296   0.3709
     0.5842   0.9223   1.4990   1.8514   3.0629   3.7071   3.9212   5.6857
     6.2380   7.2745   7.7405

          k = 0.0000 0.1925 0.1689 ( 12947 PWs)   bands (ev):

   -40.7539 -40.7526  -9.7694  -4.1567  -4.0046  -3.8080  -0.3967   0.5417
     0.7083   0.9421   1.2773   1.6074   2.9554   3.7894   4.1223   5.7786
     6.2412   6.9053   7.7185

          k = 0.0000 0.1925 0.3377 ( 12956 PWs)   bands (ev):

   -40.7539 -40.7526  -9.7406  -4.4270  -3.9632  -3.7686  -0.2331   0.5666
     0.9687   0.9823   1.2687   1.4292   2.7288   3.7631   4.0886   5.8535
     6.7970   6.8056   7.8353

          k = 0.0000 0.1925-0.5066 ( 12954 PWs)   bands (ev):

   -40.7539 -40.7526  -9.7259  -4.5471  -3.9412  -3.7488  -0.1711   0.4722
     0.9528   0.9860   1.1594   1.9737   2.5269   3.7128   3.9522   5.5491
     7.1457   7.3520   7.9226

          k = 0.0000 0.3849 0.0000 ( 12936 PWs)   bands (ev):

   -40.7537 -40.7528  -9.7287  -4.4348  -3.9367  -3.9258  -0.3461   0.2950
     1.0067   1.3701   1.6137   1.6928   3.0814   3.7667   3.8847   5.3354
     6.1411   7.1206   7.4605

          k = 0.0000 0.3849 0.1689 ( 12942 PWs)   bands (ev):

   -40.7537 -40.7528  -9.7149  -4.4126  -4.0793  -3.9158  -0.2818   0.5964
     0.8332   1.3367   1.3751   1.6734   3.0707   4.0619   4.1289   5.4618
     6.2404   6.8911   6.9763

          k = 0.0000 0.3849 0.3377 ( 12929 PWs)   bands (ev):

   -40.7537 -40.7528  -9.6866  -4.3699  -4.3409  -3.8733  -0.2631   0.4979
     0.9858   1.2600   1.5413   1.7248   2.9396   4.1079   4.4295   6.0499
     6.5634   6.7745   6.9463

          k = 0.0000 0.3849-0.5066 ( 12924 PWs)   bands (ev):

   -40.7537 -40.7528  -9.6722  -4.4653  -4.3389  -3.8518  -0.2961   0.3939
     0.8323   1.3630   1.7586   2.0376   2.8237   3.9621   4.3944   6.3349
     6.6903   6.7086   7.1139

          k = 0.0000-0.5774 0.0000 ( 12914 PWs)   bands (ev):

   -40.7535 -40.7530  -9.7003  -4.6096  -3.9871  -3.8867  -0.4163   0.3392
     0.9356   1.6189   2.1330   2.2134   2.4033   3.5396   3.9786   5.3873
     5.6611   7.2697   7.4531

          k = 0.0000-0.5774 0.1689 ( 12936 PWs)   bands (ev):

   -40.7535 -40.7530  -9.6866  -4.5870  -4.0369  -3.9661  -0.3897   0.5529
     0.8131   1.3342   2.1509   2.2330   2.5127   3.8489   4.1202   5.4318
     5.8257   6.7767   7.3762

          k = 0.0000-0.5774 0.3377 ( 12938 PWs)   bands (ev):

   -40.7535 -40.7530  -9.6586  -4.5407  -4.2975  -3.9224  -0.4378   0.3920
     0.9158   1.5054   2.1931   2.2758   2.5116   4.1616   4.2524   5.9800
     6.1823   6.4452   7.4665

          k = 0.0000-0.5774-0.5066 ( 12952 PWs)   bands (ev):

   -40.7535 -40.7530  -9.6443  -4.5191  -4.4111  -3.8997  -0.5000   0.3335
     0.7452   2.0634   2.2157   2.3008   2.4194   3.9929   4.3879   6.2690
     6.3173   6.7751   7.5299

          k = 0.1667 0.2887 0.0000 ( 12939 PWs)   bands (ev):

   -40.7537 -40.7528  -9.7427  -4.3009  -3.9749  -3.9360  -0.1719   0.3428
     0.5871   1.2711   1.5948   1.6476   3.3181   3.6969   3.8970   5.2489
     6.4691   6.8894   7.8399

          k = 0.1667 0.2887 0.1689 ( 12955 PWs)   bands (ev):

   -40.7537 -40.7528  -9.7288  -4.2802  -4.1000  -3.9431   0.0180   0.3070
     0.7838   1.0854   1.3864   1.6386   3.4303   3.6494   4.1527   5.4355
     6.4713   6.8145   7.4374

          k = 0.1667 0.2887 0.3377 ( 12940 PWs)   bands (ev):

   -40.7537 -40.7528  -9.7004  -4.3673  -4.2335  -3.9019   0.1479   0.2375
     0.8870   0.9903   1.4782   1.7108   3.2587   3.6295   4.4252   6.0100
     6.6423   6.8842   6.9900

          k = 0.1667 0.2887-0.5066 ( 12946 PWs)   bands (ev):

   -40.7537 -40.7528  -9.6859  -4.4848  -4.2113  -3.8801   0.0595   0.2810
     0.8251   0.8715   1.7277   2.0218   3.0345   3.6007   4.4377   6.1409
     6.6322   6.9960   7.3261

          k = 0.1667 0.4811 0.0000 ( 12933 PWs)   bands (ev):

   -40.7535 -40.7530  -9.7004  -4.5208  -4.1201  -3.8873  -0.0626   0.3484
     0.9975   1.2225   1.5340   2.1646   2.8782   3.5877   4.2884   5.1806
     5.9929   6.8142   7.5201

          k = 0.1667 0.4811 0.1689 ( 12932 PWs)   bands (ev):

   -40.7535 -40.7530  -9.6867  -4.4982  -4.1005  -4.0358  -0.0260   0.5945
     0.8960   0.9815   1.4703   2.1851   3.0342   3.9190   4.3067   5.3720
     6.0772   6.5952   7.2542

          k = 0.1667 0.4811 0.3377 ( 12948 PWs)   bands (ev):

   -40.7535 -40.7530  -9.6587  -4.4515  -4.3005  -4.0524  -0.1484   0.6031
     0.6557   1.3612   1.5734   2.2276   3.1307   4.0211   4.4743   6.0426
     6.2537   6.5356   7.2184

          k = 0.1667 0.4811-0.5066 ( 12952 PWs)   bands (ev):

   -40.7535 -40.7530  -9.6444  -4.4371  -4.4066  -4.0297  -0.2510   0.4563
     0.6277   1.4309   2.0657   2.2505   3.0984   3.8208   4.5459   6.1643
     6.6586   6.8626   7.2023

          k = 0.3333 0.5774 0.0000 ( 12918 PWs)   bands (ev):

   -40.7532 -40.7532  -9.6861  -4.3954  -4.3954  -3.8686   0.2453   0.6866
     0.6866   1.4229   1.4229   1.5696   3.3046   3.3046   4.7958   5.6640
     5.6640   6.1052   7.8354

          k = 0.3333 0.5774 0.1689 ( 12909 PWs)   bands (ev):

   -40.7532 -40.7532  -9.6725  -4.3729  -4.3729  -4.0178   0.5135   0.5135
     0.6068   1.3483   1.3483   1.6082   3.6188   3.6188   4.5929   5.7995
     5.7995   6.1529   7.5712

          k = 0.3333 0.5774 0.3377 ( 12939 PWs)   bands (ev):

   -40.7532 -40.7532  -9.6446  -4.3260  -4.3260  -4.2781   0.1809   0.1809
     1.3165   1.3165   1.3781   1.7403   4.0158   4.0158   4.1197   6.2522
     6.3271   6.3271   7.2686

          k = 0.3333 0.5774-0.5066 ( 12942 PWs)   bands (ev):

   -40.7532 -40.7532  -9.6304  -4.3943  -4.3015  -4.3015   0.0296   0.0296
     1.3210   1.3210   1.6283   2.0878   3.7624   4.1238   4.1238   6.3168
     6.8544   7.1382   7.1382

          k = 0.0000 0.1925-0.1689 ( 12947 PWs)   bands (ev):

   -40.7539 -40.7526  -9.7694  -4.1588  -4.0011  -3.8090  -0.3926   0.4689
     0.7332   0.9696   1.3228   1.6073   2.9405   3.8680   3.9741   5.7745
     6.3820   6.7537   7.9119

          k = 0.0000 0.1925-0.3377 ( 12956 PWs)   bands (ev):

   -40.7539 -40.7526  -9.7406  -4.4275  -3.9614  -3.7697  -0.2247   0.4756
     1.0456   1.0491   1.2259   1.4335   2.7194   3.8267   3.9730   5.8742
     6.6432   6.9327   7.9508

          k = 0.0000 0.3849-0.1689 ( 12942 PWs)   bands (ev):

   -40.7537 -40.7528  -9.7149  -4.4141  -4.0762  -3.9166  -0.2704   0.4480
     0.9109   1.4159   1.4212   1.6653   3.2154   3.8526   3.9496   5.4734
     6.3284   6.9135   7.1172

          k = 0.0000 0.3849-0.3377 ( 12929 PWs)   bands (ev):

   -40.7537 -40.7528  -9.6866  -4.3854  -4.3240  -3.8743  -0.2576   0.4205
     1.0100   1.3059   1.5795   1.7294   3.0502   3.9703   4.2447   6.0014
     6.6124   6.6943   7.1767

          k =-0.1667 0.4811-0.1689 ( 12932 PWs)   bands (ev):

   -40.7535 -40.7530  -9.6867  -4.4986  -4.0991  -4.0366  -0.0123   0.5018
     0.9096   1.0884   1.4354   2.1848   3.1091   3.8347   4.2546   5.3274
     6.0620   6.8706   7.1294

          k =-0.1667 0.4811-0.3377 ( 12948 PWs)   bands (ev):

   -40.7535 -40.7530  -9.6587  -4.4531  -4.2980  -4.0532  -0.1458   0.5201
     0.7325   1.3617   1.5799   2.2279   3.2310   3.8898   4.4394   5.9915
     6.1707   6.8318   7.1263

     the Fermi energy is     4.6771 ev

!    total energy              =     -79.17539838 Ry
     estimated scf accuracy    <          3.2E-09 Ry
     smearing contrib. (-TS)   =       0.00332925 Ry
     internal energy E=F+TS    =     -79.17872763 Ry

     The total energy is F=E-TS. E is the sum of the following terms:
     one-electron contribution =     -19.14885352 Ry
     hartree contribution      =      17.56679184 Ry
     xc contribution           =     -25.83888063 Ry
     ewald contribution        =     -51.75778533 Ry

     convergence has been achieved in   9 iterations

     Forces acting on atoms (cartesian axes, Ry/au):

     atom    1 type  1   force =     0.00000000    0.17586040    0.11961823
     atom    2 type  1   force =    -0.00000000   -0.17586040   -0.11961823
     atom    3 type  1   force =    -0.15229957   -0.08793020    0.11961823
     atom    4 type  1   force =     0.15229957    0.08793020   -0.11961823
     atom    5 type  1   force =     0.15229957   -0.08793020    0.11961823
     atom    6 type  1   force =    -0.15229957    0.08793020   -0.11961823
     atom    7 type  2   force =     0.00000000    0.00000000    0.03953448
     atom    8 type  2   force =     0.00000000    0.00000000   -0.03953448
     The non-local contrib.  to forces
     atom    1 type  1   force =    -0.00000000    0.07593145    0.03773478
     atom    2 type  1   force =     0.00000000   -0.07593145   -0.03773478
     atom    3 type  1   force =    -0.06575857   -0.03796573    0.03773478
     atom    4 type  1   force =     0.06575857    0.03796573   -0.03773478
     atom    5 type  1   force =     0.06575857   -0.03796573    0.03773478
     atom    6 type  1   force =    -0.06575857    0.03796573   -0.03773478
     atom    7 type  2   force =     0.00000000    0.00000000    0.13246701
     atom    8 type  2   force =     0.00000000    0.00000000   -0.13246701
     The ionic contribution  to forces
     atom    1 type  1   force =     0.00000009    2.46315782    2.00266246
     atom    2 type  1   force =    -0.00000009   -2.46315782   -2.00266246
     atom    3 type  1   force =    -2.13315727   -1.23157886    2.00266246
     atom    4 type  1   force =     2.13315727    1.23157886   -2.00266246
     atom    5 type  1   force =     2.13315717   -1.23157895    2.00266243
     atom    6 type  1   force =    -2.13315717    1.23157895   -2.00266243
     atom    7 type  2   force =     0.00000004   -0.00000002    1.14981122
     atom    8 type  2   force =    -0.00000004    0.00000002   -1.14981122
     The local contribution  to forces
     atom    1 type  1   force =    -0.00000007   -2.35097787   -1.91313701
     atom    2 type  1   force =     0.00000007    2.35097787    1.91313701
     atom    3 type  1   force =     2.03600660    1.17548887   -1.91313701
     atom    4 type  1   force =    -2.03600660   -1.17548887    1.91313701
     atom    5 type  1   force =    -2.03600652    1.17548900   -1.91313701
     atom    6 type  1   force =     2.03600652   -1.17548900    1.91313701
     atom    7 type  2   force =     0.00000106   -0.00000061   -1.24274440
     atom    8 type  2   force =    -0.00000106    0.00000061    1.24274440
     The core correction contribution to forces
     atom    1 type  1   force =     0.00000000   -0.01224469   -0.00765713
     atom    2 type  1   force =    -0.00000000    0.01224469    0.00765713
     atom    3 type  1   force =     0.01060421    0.00612235   -0.00765713
     atom    4 type  1   force =    -0.01060421   -0.00612235    0.00765713
     atom    5 type  1   force =    -0.01060421    0.00612234   -0.00765713
     atom    6 type  1   force =     0.01060421   -0.00612234    0.00765713
     atom    7 type  2   force =     0.00000000    0.00000000    0.00000000
     atom    8 type  2   force =     0.00000000    0.00000000    0.00000000
     The Hubbard contrib.    to forces
     atom    1 type  1   force =     0.00000000    0.00000000    0.00000000
     atom    2 type  1   force =     0.00000000    0.00000000    0.00000000
     atom    3 type  1   force =     0.00000000    0.00000000    0.00000000
     atom    4 type  1   force =     0.00000000    0.00000000    0.00000000
     atom    5 type  1   force =     0.00000000    0.00000000    0.00000000
     atom    6 type  1   force =     0.00000000    0.00000000    0.00000000
     atom    7 type  2   force =     0.00000000    0.00000000    0.00000000
     atom    8 type  2   force =     0.00000000    0.00000000    0.00000000
     The SCF correction term to forces
     atom    1 type  1   force =     0.00000000   -0.00000630    0.00001513
     atom    2 type  1   force =    -0.00000000    0.00000630   -0.00001513
     atom    3 type  1   force =     0.00000546    0.00000315    0.00001513
     atom    4 type  1   force =    -0.00000546   -0.00000315   -0.00001513
     atom    5 type  1   force =    -0.00000546    0.00000315    0.00001513
     atom    6 type  1   force =     0.00000546   -0.00000315   -0.00001513
     atom    7 type  2   force =     0.00000000   -0.00000000    0.00000065
     atom    8 type  2   force =    -0.00000000    0.00000000   -0.00000065

     Total force =     0.523964     Total SCF correction =     0.000040


     Computing stress (Cartesian axis) and pressure

          total   stress  (Ry/bohr**3)                   (kbar)     P=      211.07
   0.00150314   0.00000000   0.00000000          221.12        0.00        0.00
   0.00000000   0.00150314   0.00000000            0.00      221.12        0.00
  -0.00000000  -0.00000000   0.00129819           -0.00       -0.00      190.97


     BFGS Geometry Optimization
     Energy error            =      0.0E+00 Ry
     Gradient error          =      1.8E-01 Ry/Bohr
     Cell gradient error     =      3.1E+02 kbar

     number of scf cycles    =   1
     number of bfgs steps    =   0

     enthalpy           new  =     -75.5348896933 Ry

     new trust radius        =       0.3437574503 bohr
ibrav =      4
 celldm(1) =     10.27003433
 celldm(3) =      0.98168007
Input lattice vectors:
     0.95260511     0.00000000    -0.00000000
    -0.47630256     0.82498023     0.00000000
     0.00000000     0.00000000     0.93515346
New lattice vectors in INITIAL alat:
     0.95260511     0.00000000     0.00000000
    -0.47630256     0.82498023     0.00000000
     0.00000000     0.00000000     0.93515346
New lattice vectors in NEW alat (for information only):
     1.00000000     0.00000000     0.00000000
    -0.50000000     0.86602540     0.00000000
     0.00000000     0.00000000     0.98168007
Discrepancy in bohr =     0.000000    0.000000    0.000000
     new conv_thr            =       0.0000000100 Ry

     new unit-cell volume =    920.90810 a.u.^3 (   136.46450 Ang^3 )
     density =      2.21943 g/cm^3

CELL_PARAMETERS (alat= 10.78099853)
   0.952605113   0.000000000   0.000000000
  -0.476302556   0.824980228   0.000000000
   0.000000000   0.000000000   0.935153456

ATOMIC_POSITIONS (crystal)
Si            0.1376274478        0.2752548855        0.1719465510
Si            0.8623725522        0.7247451145        0.8280534490
Si            0.7247451145        0.8623725622        0.1719465510
Si            0.2752548855        0.1376274378        0.8280534490
Si            0.1376274378        0.8623725522        0.1719465510
Si            0.8623725622        0.1376274478        0.8280534490
Li            0.3333333300        0.6666666700        0.3837183944
Li            0.6666666700        0.3333333300        0.6162816056



     Writing config-only to output data dir ./output/SiLi.save/
     NEW-OLD atomic charge density approx. for the potential
     extrapolated charge   25.11018, renormalised to   30.00000

     total cpu time spent up to now is       32.8 secs

     Self-consistent Calculation

     iteration #  1     ecut=    80.00 Ry     beta= 0.70
     Davidson diagonalization with overlap
     c_bands:  1 eigenvalues not converged
     c_bands:  1 eigenvalues not converged
     ethr =  1.00E-06,  avg # of iterations = 14.2
     Minimization algorithm failed to find Fermi energy: reverting to bisection
     Possible cause: smearing is larger than the electronic band-gap.

     total cpu time spent up to now is       40.0 secs

     total energy              =     -78.46880489 Ry
     estimated scf accuracy    <       0.56087908 Ry

     iteration #  2     ecut=    80.00 Ry     beta= 0.70
     Davidson diagonalization with overlap
     ethr =  1.87E-03,  avg # of iterations =  3.4

     total cpu time spent up to now is       42.7 secs

     total energy              =     -79.03643267 Ry
     estimated scf accuracy    <       2.17541743 Ry

     iteration #  3     ecut=    80.00 Ry     beta= 0.70
     Davidson diagonalization with overlap
     ethr =  1.87E-03,  avg # of iterations =  2.0

     total cpu time spent up to now is       44.9 secs

     total energy              =     -79.13381667 Ry
     estimated scf accuracy    <       0.29183251 Ry

     iteration #  4     ecut=    80.00 Ry     beta= 0.70
     Davidson diagonalization with overlap
     ethr =  9.73E-04,  avg # of iterations =  2.0

     total cpu time spent up to now is       46.7 secs

     total energy              =     -79.15156390 Ry
     estimated scf accuracy    <       0.04320896 Ry

     iteration #  5     ecut=    80.00 Ry     beta= 0.70
     Davidson diagonalization with overlap
     ethr =  1.44E-04,  avg # of iterations =  2.4

     total cpu time spent up to now is       48.8 secs

     total energy              =     -79.15846447 Ry
     estimated scf accuracy    <       0.00345495 Ry

     iteration #  6     ecut=    80.00 Ry     beta= 0.70
     Davidson diagonalization with overlap
     c_bands:  1 eigenvalues not converged
     ethr =  1.15E-05,  avg # of iterations =  5.8

     total cpu time spent up to now is       51.8 secs

     total energy              =     -79.16072723 Ry
     estimated scf accuracy    <       0.00042680 Ry

     iteration #  7     ecut=    80.00 Ry     beta= 0.70
     Davidson diagonalization with overlap
     ethr =  1.42E-06,  avg # of iterations =  5.1

     total cpu time spent up to now is       54.1 secs

     total energy              =     -79.16068091 Ry
     estimated scf accuracy    <       0.00032186 Ry

     iteration #  8     ecut=    80.00 Ry     beta= 0.70
     Davidson diagonalization with overlap
     ethr =  1.07E-06,  avg # of iterations =  1.1

     total cpu time spent up to now is       55.8 secs

     total energy              =     -79.16064066 Ry
     estimated scf accuracy    <       0.00010226 Ry

     iteration #  9     ecut=    80.00 Ry     beta= 0.70
     Davidson diagonalization with overlap
     ethr =  3.41E-07,  avg # of iterations =  2.2

     total cpu time spent up to now is       57.8 secs

     total energy              =     -79.16067737 Ry
     estimated scf accuracy    <       0.00001003 Ry

     iteration # 10     ecut=    80.00 Ry     beta= 0.70
     Davidson diagonalization with overlap
     ethr =  3.34E-08,  avg # of iterations =  2.1

     total cpu time spent up to now is       59.8 secs

     total energy              =     -79.16067721 Ry
     estimated scf accuracy    <       0.00000260 Ry

     iteration # 11     ecut=    80.00 Ry     beta= 0.70
     Davidson diagonalization with overlap
     ethr =  8.67E-09,  avg # of iterations =  2.2

     total cpu time spent up to now is       61.9 secs

     End of self-consistent calculation

          k = 0.0000 0.0000 0.0000 ( 13003 PWs)   bands (ev):

   -39.2276 -39.2244  -8.2059  -2.4402  -2.1147  -2.1147   0.0817   1.3229
     1.6065   1.6065   3.0998   3.6860   3.6860   5.0684   5.0684   7.2633
     7.2633   8.0237   8.9055

          k = 0.0000 0.0000 0.1782 ( 13008 PWs)   bands (ev):

   -39.2276 -39.2244  -8.1771  -2.7340  -2.0804  -2.0804   0.1951   1.6664
     1.6664   1.8019   3.0453   3.2732   3.2732   5.0579   5.0579   7.4572
     7.5103   7.5103   9.4371

          k = 0.0000 0.0000 0.3564 ( 12948 PWs)   bands (ev):

   -39.2276 -39.2244  -8.1167  -3.1940  -2.0078  -2.0078   0.3258   1.7960
     1.7960   2.7266   2.7266   2.7816   3.0881   4.6904   4.6904   6.6876
     8.5005   8.5005   8.9929

          k = 0.0000 0.0000-0.5347 ( 12930 PWs)   bands (ev):

   -39.2276 -39.2244  -8.0851  -3.3880  -1.9693  -1.9693   0.3762   1.8611
     1.8611   2.5234   2.5234   2.8115   3.8129   4.4690   4.4690   6.1068
     8.5981   9.2408   9.2408

          k = 0.0000 0.2020 0.0000 ( 12951 PWs)   bands (ev):

   -39.2274 -39.2246  -8.1532  -2.6017  -2.3753  -2.2282   0.4904   1.3113
     1.6168   1.9978   2.8622   3.5146   4.1963   4.8764   5.0865   6.7608
     7.4347   8.4910   8.9644

          k = 0.0000 0.2020 0.1782 ( 12947 PWs)   bands (ev):

   -39.2274 -39.2246  -8.1245  -2.6695  -2.5646  -2.1908   0.6435   1.4852
     1.9149   2.0202   2.5467   3.1156   4.0119   5.0604   5.2997   6.8499
     7.5287   8.1530   9.3662

          k = 0.0000 0.2020 0.3564 ( 12956 PWs)   bands (ev):

   -39.2274 -39.2246  -8.0644  -3.1277  -2.4880  -2.1137   0.7829   1.5111
     2.0643   2.1681   2.6219   3.0019   3.7879   4.8629   5.1177   7.0083
     8.2394   8.3959   9.1992

          k = 0.0000 0.2020-0.5347 ( 12954 PWs)   bands (ev):

   -39.2274 -39.2246  -8.0329  -3.3212  -2.4456  -2.0737   0.8249   1.4130
     2.0737   2.1595   2.4565   3.5719   3.8624   4.7211   4.9243   6.5118
     8.7989   8.9178   9.1302

          k = 0.0000 0.4041 0.0000 ( 12936 PWs)   bands (ev):

   -39.2269 -39.2251  -8.0392  -3.2760  -2.4218  -2.2321   0.4554   1.3323
     2.2378   2.7797   2.9365   3.2895   4.3580   4.8991   4.9308   6.5500
     7.3575   8.7281   8.8608

          k = 0.0000 0.4041 0.1782 ( 12942 PWs)   bands (ev):

   -39.2269 -39.2251  -8.0108  -3.2381  -2.5229  -2.3819   0.5102   1.7727
     1.9994   2.6170   2.7048   3.1999   4.3486   5.4065   5.4189   6.4794
     7.5070   8.3386   8.3963

          k = 0.0000 0.4041 0.3564 ( 12929 PWs)   bands (ev):

   -39.2269 -39.2251  -7.9513  -3.1590  -2.9754  -2.2983   0.4763   1.5101
     2.0865   2.6401   3.1151   3.2358   4.1553   5.6524   5.7188   7.1400
     7.9485   8.1866   8.4735

          k = 0.0000 0.4041-0.5347 ( 12924 PWs)   bands (ev):

   -39.2269 -39.2251  -7.9202  -3.1875  -3.0937  -2.2544   0.3979   1.4101
     1.8739   2.7096   3.2732   3.9661   3.9747   5.4017   5.6584   7.4359
     8.0890   8.1621   8.6171

          k = 0.0000-0.6061 0.0000 ( 12914 PWs)   bands (ev):

   -39.2265 -39.2255  -7.9770  -3.5514  -2.5066  -2.1499   0.2959   1.4203
     2.1504   3.1131   3.5069   3.8726   4.1033   4.5782   4.7800   6.6506
     6.7418   8.5969   8.7804

          k = 0.0000-0.6061 0.1782 ( 12936 PWs)   bands (ev):

   -39.2265 -39.2255  -7.9488  -3.5132  -2.4665  -2.4361   0.2991   1.6661
     2.0784   2.6216   3.5893   3.9084   4.1304   5.0327   5.1713   6.6898
     6.9113   8.1169   9.1445

          k = 0.0000-0.6061 0.3564 ( 12938 PWs)   bands (ev):

   -39.2265 -39.2255  -7.8898  -3.4324  -2.8869  -2.3805   0.2060   1.3719
     1.9996   3.1311   3.5223   3.9880   4.2089   5.4782   5.5753   7.1615
     7.4823   7.7780   9.1511

          k = 0.0000-0.6061-0.5347 ( 12952 PWs)   bands (ev):

   -39.2265 -39.2255  -7.8589  -3.3906  -3.0757  -2.3342   0.1182   1.2880
     1.7550   3.3468   4.0299   4.0312   4.2615   5.3765   5.6057   7.4885
     7.6753   8.2184   9.0873

          k = 0.1750 0.3030 0.0000 ( 12939 PWs)   bands (ev):

   -39.2271 -39.2249  -8.0690  -3.0588  -2.5014  -2.2641   0.9127   1.2180
     1.6580   2.6343   3.0102   3.1454   4.5599   4.9039   5.0141   6.2559
     7.8376   8.3836   9.2717

          k = 0.1750 0.3030 0.1782 ( 12955 PWs)   bands (ev):

   -39.2271 -39.2249  -8.0405  -3.0222  -2.5733  -2.4417   1.1484   1.1662
     1.9906   2.3459   2.7137   3.0922   4.6145   4.9409   5.4393   6.5000
     7.8074   8.2136   8.8513

          k = 0.1750 0.3030 0.3564 ( 12940 PWs)   bands (ev):

   -39.2271 -39.2249  -7.9809  -3.0239  -2.9365  -2.3704   0.9781   1.3211
     2.0438   2.1435   3.0757   3.2255   4.3913   4.8808   5.7636   7.2504
     8.0451   8.2899   8.4285

          k = 0.1750 0.3030-0.5347 ( 12946 PWs)   bands (ev):

   -39.2271 -39.2249  -7.9496  -3.2116  -2.8984  -2.3267   0.8518   1.3447
     1.9229   2.0319   3.2507   3.9428   4.1445   4.7950   5.7339   7.1819
     8.0357   8.6052   8.8995

          k = 0.1750 0.5051 0.0000 ( 12933 PWs)   bands (ev):

   -39.2265 -39.2255  -7.9778  -3.4148  -2.7663  -2.1520   0.8422   1.4026
     2.1894   2.4833   3.0490   3.9660   4.0466   4.7003   5.3660   6.2941
     7.3676   8.3690   9.1099

          k = 0.1750 0.5051 0.1782 ( 12932 PWs)   bands (ev):

   -39.2265 -39.2255  -7.9495  -3.3763  -2.7282  -2.4370   0.8285   1.7740
     2.0808   2.1248   2.9352   4.0006   4.2682   5.1978   5.5494   6.4602
     7.4061   7.9695   8.8417

          k = 0.1750 0.5051 0.3564 ( 12948 PWs)   bands (ev):

   -39.2265 -39.2255  -7.8905  -3.2942  -2.8948  -2.6371   0.6108   1.5633
     1.7394   2.7990   3.1985   4.0668   4.3432   5.3649   5.9835   7.2677
     7.4664   7.9642   8.7676

          k = 0.1750 0.5051-0.5347 ( 12952 PWs)   bands (ev):

   -39.2265 -39.2255  -7.8596  -3.2530  -3.0804  -2.5936   0.4590   1.3558
     1.7182   2.8327   4.0293   4.1040   4.2771   5.1127   6.0360   7.3832
     8.1378   8.2481   8.5955

          k = 0.3499 0.6061 0.0000 ( 12918 PWs)   bands (ev):

   -39.2260 -39.2260  -7.9462  -3.2262  -3.2262  -2.1130   1.3747   1.6951
     1.6951   2.9090   2.9090   2.9918   4.4224   4.4224   6.2253   6.9889
     6.9889   7.5921   9.3447

          k = 0.3499 0.6061 0.1782 ( 12909 PWs)   bands (ev):

   -39.2260 -39.2260  -7.9181  -3.1869  -3.1869  -2.3978   1.4536   1.4536
     1.9089   2.7506   2.7506   3.0637   4.9377   4.9377   5.9870   7.0917
     7.0917   7.6440   9.0327

          k = 0.3499 0.6061 0.3564 ( 12939 PWs)   bands (ev):

   -39.2260 -39.2260  -7.8593  -3.1025  -3.1025  -2.8489   1.0018   1.0018
     2.6810   2.6810   2.9031   3.3747   5.4571   5.5100   5.5100   7.6762
     7.6762   7.7625   8.7276

          k = 0.3499 0.6061-0.5347 ( 12942 PWs)   bands (ev):

   -39.2260 -39.2260  -7.8285  -3.0570  -3.0570  -3.0400   0.7971   0.7971
     2.6833   2.6833   3.1456   4.0611   4.9958   5.6261   5.6261   7.8644
     8.3219   8.3219   8.6997

          k = 0.0000 0.2020-0.1782 ( 12947 PWs)   bands (ev):

   -39.2274 -39.2246  -8.1245  -2.6815  -2.5489  -2.1930   0.6271   1.4375
     1.9246   2.0744   2.6588   3.0611   3.9508   5.0299   5.2287   7.0328
     7.5879   7.9627   9.6925

          k = 0.0000 0.2020-0.3564 ( 12956 PWs)   bands (ev):

   -39.2274 -39.2246  -8.0644  -3.1288  -2.4835  -2.1160   0.7722   1.4288
     2.1824   2.3024   2.5027   3.0150   3.7233   4.8758   5.0707   7.0435
     8.1691   8.4356   9.2581

          k = 0.0000 0.4041-0.1782 ( 12942 PWs)   bands (ev):

   -39.2269 -39.2251  -8.0108  -3.2398  -2.5160  -2.3836   0.4748   1.6321
     2.1623   2.7550   2.8246   3.0676   4.4576   4.9178   5.2922   6.8027
     7.5877   8.2886   8.5745

          k = 0.0000 0.4041-0.3564 ( 12929 PWs)   bands (ev):

   -39.2269 -39.2251  -7.9513  -3.1688  -2.9614  -2.3002   0.4409   1.4942
     2.1327   2.7093   3.1912   3.1971   4.1942   5.3165   5.5918   7.3468
     8.0317   8.1304   8.5651

          k =-0.1750 0.5051-0.1782 ( 12932 PWs)   bands (ev):

   -39.2265 -39.2255  -7.9496  -3.3767  -2.7271  -2.4368   0.8140   1.6862
     2.1307   2.2637   2.8483   4.0049   4.3733   5.0980   5.4273   6.4336
     7.4325   8.3762   8.5992

          k =-0.1750 0.5051-0.3564 ( 12948 PWs)   bands (ev):

   -39.2265 -39.2255  -7.8905  -3.2958  -2.8900  -2.6397   0.5974   1.5354
     1.7936   2.7750   3.2166   4.0800   4.4657   5.1500   5.9302   7.2043
     7.5095   8.3068   8.6109

     the Fermi energy is     6.1501 ev

!    total energy              =     -79.16067789 Ry
     estimated scf accuracy    <          9.0E-09 Ry
     smearing contrib. (-TS)   =       0.00085451 Ry
     internal energy E=F+TS    =     -79.16153241 Ry

     The total energy is F=E-TS. E is the sum of the following terms:
     one-electron contribution =      -9.41827260 Ry
     hartree contribution      =      14.27246185 Ry
     xc contribution           =     -25.96303544 Ry
     ewald contribution        =     -58.05268623 Ry

     convergence has been achieved in  11 iterations

     Forces acting on atoms (cartesian axes, Ry/au):

     atom    1 type  1   force =    -0.00000000    0.10008733    0.07340548
     atom    2 type  1   force =    -0.00000000   -0.10008733   -0.07340548
     atom    3 type  1   force =    -0.08667817   -0.05004367    0.07340548
     atom    4 type  1   force =     0.08667817    0.05004367   -0.07340548
     atom    5 type  1   force =     0.08667817   -0.05004367    0.07340548
     atom    6 type  1   force =    -0.08667817    0.05004367   -0.07340548
     atom    7 type  2   force =    -0.00000000    0.00000000    0.10987510
     atom    8 type  2   force =     0.00000000   -0.00000000   -0.10987510
     The non-local contrib.  to forces
     atom    1 type  1   force =     0.00000000    0.01775093    0.00209199
     atom    2 type  1   force =     0.00000000   -0.01775093   -0.00209199
     atom    3 type  1   force =    -0.01537276   -0.00887547    0.00209199
     atom    4 type  1   force =     0.01537276    0.00887547   -0.00209199
     atom    5 type  1   force =     0.01537276   -0.00887547    0.00209199
     atom    6 type  1   force =    -0.01537276    0.00887547   -0.00209199
     atom    7 type  2   force =    -0.00000000   -0.00000000    0.13477722
     atom    8 type  2   force =    -0.00000000   -0.00000000   -0.13477722
     The ionic contribution  to forces
     atom    1 type  1   force =     0.00000008    1.73527689    1.55335033
     atom    2 type  1   force =    -0.00000008   -1.73527689   -1.55335033
     atom    3 type  1   force =    -1.50279389   -0.86763841    1.55335033
     atom    4 type  1   force =     1.50279389    0.86763841   -1.55335033
     atom    5 type  1   force =     1.50279379   -0.86763847    1.55335029
     atom    6 type  1   force =    -1.50279379    0.86763847   -1.55335029
     atom    7 type  2   force =     0.00000005   -0.00000003    1.36775362
     atom    8 type  2   force =    -0.00000005    0.00000003   -1.36775362
     The local contribution  to forces
     atom    1 type  1   force =    -0.00000006   -1.64533146   -1.47708655
     atom    2 type  1   force =     0.00000006    1.64533146    1.47708655
     atom    3 type  1   force =     1.42489888    0.82266568   -1.47708655
     atom    4 type  1   force =    -1.42489888   -0.82266568    1.47708655
     atom    5 type  1   force =    -1.42489881    0.82266579   -1.47708655
     atom    6 type  1   force =     1.42489881   -0.82266579    1.47708655
     atom    7 type  2   force =     0.00000101   -0.00000058   -1.39259659
     atom    8 type  2   force =    -0.00000101    0.00000058    1.39259659
     The core correction contribution to forces
     atom    1 type  1   force =     0.00000000   -0.00760675   -0.00491327
     atom    2 type  1   force =    -0.00000000    0.00760675    0.00491327
     atom    3 type  1   force =     0.00658764    0.00380338   -0.00491327
     atom    4 type  1   force =    -0.00658764   -0.00380338    0.00491327
     atom    5 type  1   force =    -0.00658764    0.00380337   -0.00491327
     atom    6 type  1   force =     0.00658764   -0.00380337    0.00491327
     atom    7 type  2   force =     0.00000000    0.00000000    0.00000000
     atom    8 type  2   force =     0.00000000    0.00000000    0.00000000
     The Hubbard contrib.    to forces
     atom    1 type  1   force =     0.00000000    0.00000000    0.00000000
     atom    2 type  1   force =     0.00000000    0.00000000    0.00000000
     atom    3 type  1   force =     0.00000000    0.00000000    0.00000000
     atom    4 type  1   force =     0.00000000    0.00000000    0.00000000
     atom    5 type  1   force =     0.00000000    0.00000000    0.00000000
     atom    6 type  1   force =     0.00000000    0.00000000    0.00000000
     atom    7 type  2   force =     0.00000000    0.00000000    0.00000000
     atom    8 type  2   force =     0.00000000    0.00000000    0.00000000
     The SCF correction term to forces
     atom    1 type  1   force =    -0.00000000   -0.00000225   -0.00003700
     atom    2 type  1   force =     0.00000000    0.00000225    0.00003700
     atom    3 type  1   force =     0.00000195    0.00000112   -0.00003700
     atom    4 type  1   force =    -0.00000195   -0.00000112    0.00003700
     atom    5 type  1   force =    -0.00000195    0.00000112   -0.00003700
     atom    6 type  1   force =     0.00000195   -0.00000112    0.00003700
     atom    7 type  2   force =     0.00000000   -0.00000000   -0.00005915
     atom    8 type  2   force =    -0.00000000    0.00000000    0.00005915

     Total force =     0.341438     Total SCF correction =     0.000123


     Computing stress (Cartesian axis) and pressure

          total   stress  (Ry/bohr**3)                   (kbar)     P=      248.54
   0.00174797  -0.00000000   0.00000000          257.13       -0.00        0.00
  -0.00000000   0.00174797   0.00000000           -0.00      257.13        0.00
   0.00000000   0.00000000   0.00157261            0.00        0.00      231.34

     Energy error            =      5.0E-01 Ry
     Gradient error          =      1.1E-01 Ry/Bohr
     Cell gradient error     =      2.7E+02 kbar

     number of scf cycles    =   2
     number of bfgs steps    =   1

     enthalpy           old  =     -75.5348896933 Ry
     enthalpy           new  =     -76.0305748817 Ry

     CASE: enthalpy          _new < enthalpy          _old

     new trust radius        =       0.5046275019 bohr
ibrav =      4
 celldm(1) =      9.50606754
 celldm(3) =      0.97239325
Input lattice vectors:
     0.88174277    -0.00000000     0.00000000
    -0.44087139     0.76361164     0.00000000
     0.00000000     0.00000000     0.85740072
New lattice vectors in INITIAL alat:
     0.88174277     0.00000000     0.00000000
    -0.44087139     0.76361164     0.00000000
     0.00000000     0.00000000     0.85740072
New lattice vectors in NEW alat (for information only):
     1.00000000     0.00000000     0.00000000
    -0.50000000     0.86602540     0.00000000
     0.00000000     0.00000000     0.97239325
Discrepancy in bohr =     0.000000    0.000000    0.000000
     new conv_thr            =       0.0000000100 Ry

     new unit-cell volume =    723.39459 a.u.^3 (   107.19602 Ang^3 )
     density =      2.82542 g/cm^3

CELL_PARAMETERS (alat= 10.78099853)
   0.881742773   0.000000000   0.000000000
  -0.440871387   0.763611641   0.000000000
   0.000000000   0.000000000   0.857400724

ATOMIC_POSITIONS (crystal)
Si            0.1478712551        0.2957425003        0.1849118742
Si            0.8521287449        0.7042574997        0.8150881258
Si            0.7042574997        0.8521287549        0.1849118742
Si            0.2957425003        0.1478712451        0.8150881258
Si            0.1478712451        0.8521287449        0.1849118742
Si            0.8521287549        0.1478712551        0.8150881258
Li            0.3333333300        0.6666666700        0.4007406221
Li            0.6666666700        0.3333333300        0.5992593779



     Writing config-only to output data dir ./output/SiLi.save/
     NEW-OLD atomic charge density approx. for the potential
     extrapolated charge   21.81238, renormalised to   30.00000

     total cpu time spent up to now is       69.4 secs

     Self-consistent Calculation

     iteration #  1     ecut=    80.00 Ry     beta= 0.70
     Davidson diagonalization with overlap
     c_bands:  2 eigenvalues not converged
     c_bands:  1 eigenvalues not converged
     c_bands:  3 eigenvalues not converged
     c_bands:  1 eigenvalues not converged
     c_bands:  1 eigenvalues not converged
     c_bands:  2 eigenvalues not converged
     c_bands:  1 eigenvalues not converged
     c_bands:  1 eigenvalues not converged
     c_bands:  1 eigenvalues not converged
     c_bands:  1 eigenvalues not converged
     c_bands:  1 eigenvalues not converged
     c_bands:  1 eigenvalues not converged
     c_bands:  1 eigenvalues not converged
     c_bands:  1 eigenvalues not converged
     c_bands:  1 eigenvalues not converged
     ethr =  1.00E-06,  avg # of iterations = 17.9

     total cpu time spent up to now is       77.3 secs

     total energy              =     -77.69823971 Ry
     estimated scf accuracy    <       1.23408372 Ry

     iteration #  2     ecut=    80.00 Ry     beta= 0.70
     Davidson diagonalization with overlap
     ethr =  4.11E-03,  avg # of iterations =  3.1

     total cpu time spent up to now is       79.9 secs

     total energy              =     -78.64438467 Ry
     estimated scf accuracy    <       2.59519704 Ry

     iteration #  3     ecut=    80.00 Ry     beta= 0.70
     Davidson diagonalization with overlap
     ethr =  4.11E-03,  avg # of iterations =  2.0

     total cpu time spent up to now is       82.0 secs

     total energy              =     -78.88637090 Ry
     estimated scf accuracy    <       0.21149788 Ry

     iteration #  4     ecut=    80.00 Ry     beta= 0.70
     Davidson diagonalization with overlap
     ethr =  7.05E-04,  avg # of iterations =  2.1

     total cpu time spent up to now is       83.9 secs

     total energy              =     -78.88044392 Ry
     estimated scf accuracy    <       0.05311341 Ry

     iteration #  5     ecut=    80.00 Ry     beta= 0.70
     Davidson diagonalization with overlap
     ethr =  1.77E-04,  avg # of iterations =  2.8

     total cpu time spent up to now is       86.1 secs

     total energy              =     -78.89289545 Ry
     estimated scf accuracy    <       0.00201458 Ry

     iteration #  6     ecut=    80.00 Ry     beta= 0.70
     Davidson diagonalization with overlap
     ethr =  6.72E-06,  avg # of iterations =  8.1

     total cpu time spent up to now is       89.3 secs

     total energy              =     -78.89426228 Ry
     estimated scf accuracy    <       0.00065968 Ry

     iteration #  7     ecut=    80.00 Ry     beta= 0.70
     Davidson diagonalization with overlap
     ethr =  2.20E-06,  avg # of iterations =  2.8

     total cpu time spent up to now is       91.0 secs

     total energy              =     -78.89429098 Ry
     estimated scf accuracy    <       0.00007299 Ry

     iteration #  8     ecut=    80.00 Ry     beta= 0.70
     Davidson diagonalization with overlap
     ethr =  2.43E-07,  avg # of iterations =  2.6

     total cpu time spent up to now is       93.2 secs

     total energy              =     -78.89431258 Ry
     estimated scf accuracy    <       0.00000038 Ry

     iteration #  9     ecut=    80.00 Ry     beta= 0.70
     Davidson diagonalization with overlap
     ethr =  1.27E-09,  avg # of iterations =  5.3

     total cpu time spent up to now is       96.4 secs

     total energy              =     -78.89431341 Ry
     estimated scf accuracy    <       0.00000019 Ry

     iteration # 10     ecut=    80.00 Ry     beta= 0.70
     Davidson diagonalization with overlap
     ethr =  6.49E-10,  avg # of iterations =  2.8

     total cpu time spent up to now is       98.6 secs

     total energy              =     -78.89431347 Ry
     estimated scf accuracy    <       0.00000023 Ry

     iteration # 11     ecut=    80.00 Ry     beta= 0.70
     Davidson diagonalization with overlap
     ethr =  6.49E-10,  avg # of iterations =  2.0

     total cpu time spent up to now is      100.5 secs

     total energy              =     -78.89431349 Ry
     estimated scf accuracy    <       0.00000001 Ry

     iteration # 12     ecut=    80.00 Ry     beta= 0.70
     Davidson diagonalization with overlap
     ethr =  4.49E-11,  avg # of iterations =  3.5

     total cpu time spent up to now is      102.8 secs

     End of self-consistent calculation

          k = 0.0000 0.0000 0.0000 ( 13003 PWs)   bands (ev):

   -37.1023 -37.0912  -6.1940   0.0925   0.6116   0.6116   1.7487   2.9564
     3.4033   3.4033   4.7607   7.0225   7.0225   7.4116   7.4116   9.5720
     9.5720  10.1096  10.9883

          k = 0.0000 0.0000 0.1944 ( 13008 PWs)   bands (ev):

   -37.1023 -37.0912  -6.1347  -0.5138   0.6821   0.6821   1.8462   3.5120
     3.5120   3.8292   4.7104   6.0979   6.0979   7.3258   7.3258   9.5180
    10.1787  10.1787  11.5302

          k = 0.0000 0.0000 0.3888 ( 12948 PWs)   bands (ev):

   -37.1023 -37.0912  -6.0046  -1.3148   0.8399   0.8399   1.9462   3.7816
     3.7816   4.5544   5.1885   5.1885   5.6226   6.5208   6.5208   8.7721
    11.3190  11.7986  11.7986

          k = 0.0000 0.0000-0.5832 ( 12930 PWs)   bands (ev):

   -37.1022 -37.0912  -5.9324  -1.6361   0.9298   0.9298   1.9906   3.9596
     3.9596   4.4956   4.8446   4.8446   6.1009   6.1009   7.0046   8.0955
    10.8408  11.9188  12.9715

          k = 0.0000 0.2183 0.0000 ( 12951 PWs)   bands (ev):

   -37.1016 -37.0918  -6.0914  -0.4016   0.2118   0.3555   2.3138   3.0049
     3.5814   4.0146   5.0395   6.6391   6.7898   7.1757   7.4153   8.9968
     9.9372  10.7914  11.2513

          k = 0.0000 0.2183 0.1944 ( 12947 PWs)   bands (ev):

   -37.1016 -37.0918  -6.0317  -0.4034  -0.3357   0.4329   2.5049   3.3787
     4.0598   4.0893   4.6501   5.7607   6.2537   7.5937   7.6951   9.0794
    10.2491  10.4576  11.7873

          k = 0.0000 0.2183 0.3888 ( 12956 PWs)   bands (ev):

   -37.1016 -37.0918  -5.9007  -1.2073  -0.1930   0.6057   2.6315   3.4648
     4.1867   4.2467   4.8804   5.6749   5.9164   6.9982   7.2142   9.3870
    11.0156  11.6354  11.6457

          k = 0.0000 0.2183-0.5832 ( 12954 PWs)   bands (ev):

   -37.1016 -37.0919  -5.8280  -1.5301  -0.1092   0.7039   2.6398   3.4079
     4.1707   4.2664   4.6251   5.5766   6.7728   6.9092   7.0985   8.6540
    11.1408  12.1917  12.3690

          k = 0.0000 0.4365 0.0000 ( 12936 PWs)   bands (ev):

   -37.0999 -37.0935  -5.8531  -1.5020  -0.0145   0.5081   2.0126   3.1182
     4.4290   5.1594   5.3948   6.2148   6.5398   7.1091   7.1927   9.0743
     9.9095  11.2896  11.7266

          k = 0.0000 0.4365 0.1944 ( 12942 PWs)   bands (ev):

   -37.0999 -37.0935  -5.7924  -1.4390  -0.1271   0.0679   2.0963   3.7186
     4.1347   5.0330   5.0445   5.7467   6.8606   7.8378   7.9993   8.7217
    10.1239  11.0290  11.5399

          k = 0.0000 0.4365 0.3888 ( 12929 PWs)   bands (ev):

   -37.0999 -37.0935  -5.6592  -1.3016  -0.9382   0.2555   2.0505   3.2095
     4.1673   4.9117   5.7920   5.8410   6.6806   8.2546   8.4386   9.4297
    10.8647  11.0439  11.4314

          k = 0.0000 0.4365-0.5832 ( 12924 PWs)   bands (ev):

   -37.0999 -37.0935  -5.5852  -1.3106  -1.1717   0.3648   1.9234   3.1123
     3.8023   4.8705   5.9398   6.3545   7.2965   8.0720   8.1398   9.7562
    10.9819  11.0385  11.6897

          k = 0.0000-0.6548 0.0000 ( 12914 PWs)   bands (ev):

   -37.0986 -37.0949  -5.7101  -1.9493  -0.1610   0.7196   1.7623   3.2209
     4.2591   5.6859   6.0550   6.3292   6.5976   6.9949   7.2997   8.7364
     9.4598  10.8124  13.0414

          k = 0.0000-0.6548 0.1944 ( 12936 PWs)   bands (ev):

   -37.0986 -37.0949  -5.6488  -1.8860  -0.0778   0.0647   1.7706   3.5468
     4.2967   4.9996   5.6514   7.0243   7.0638   7.4325   7.4682   9.2393
     9.2456  10.8290  12.4461

          k = 0.0000-0.6548 0.3888 ( 12938 PWs)   bands (ev):

   -37.0985 -37.0949  -5.5142  -1.7461  -0.7680   0.1140   1.6573   3.0139
     4.0114   5.3448   6.0574   7.2223   7.4673   7.8717   8.1741   9.5525
    10.3185  10.5226  12.4006

          k = 0.0000-0.6548-0.5832 ( 12952 PWs)   bands (ev):

   -37.0985 -37.0949  -5.4395  -1.6691  -1.0960   0.2278   1.5380   2.8742
     3.6219   5.2069   7.3147   7.4172   7.6576   7.8623   7.9905  10.0812
    10.6169  11.0572  11.1073

          k = 0.1890 0.3274 0.0000 ( 12939 PWs)   bands (ev):

   -37.1004 -37.0930  -5.9184  -1.1449  -0.2470   0.4471   2.7839   3.1564
     3.4674   4.9494   5.4437   5.9614   6.8674   7.0831   7.4675   8.5393
    10.5265  11.5459  11.9129

          k = 0.1890 0.3274 0.1944 ( 12955 PWs)   bands (ev):

   -37.1004 -37.0930  -5.8580  -1.0813  -0.2759  -0.0733   3.0206   3.2053
     4.1112   4.4667   5.0487   5.6453   6.8580   7.5106   8.0678   8.7205
    10.4460  11.1338  11.5441

          k = 0.1890 0.3274 0.3888 ( 12940 PWs)   bands (ev):

   -37.1004 -37.0930  -5.7254  -1.0266  -0.9343   0.0292   2.7966   3.3279
     4.0139   4.1798   5.7725   5.8879   6.5728   7.3392   8.3071   9.8078
    10.8918  11.1122  11.3637

          k = 0.1890 0.3274-0.5832 ( 12946 PWs)   bands (ev):

   -37.1004 -37.0930  -5.6518  -1.3470  -0.8578   0.1283   2.6087   3.3033
     3.8808   4.0058   5.9297   6.2263   7.1537   7.2811   8.2262   9.4385
    10.9495  11.6644  11.8022

          k = 0.1890 0.5457 0.0000 ( 12933 PWs)   bands (ev):

   -37.0986 -37.0949  -5.7138  -1.7375  -0.7173   0.7090   2.6593   3.2363
     4.3347   4.7923   5.5964   6.1375   6.7149   7.0721   7.6946   8.7392
    10.2940  11.3441  11.9537

          k = 0.1890 0.5457 0.1944 ( 12932 PWs)   bands (ev):

   -37.0986 -37.0949  -5.6526  -1.6733  -0.6461   0.0598   2.6666   3.7160
     4.2312   4.2958   5.3869   6.4829   7.1271   7.5907   8.0282   8.8853
    10.1762  10.7457  11.9947

          k = 0.1890 0.5457 0.3888 ( 12948 PWs)   bands (ev):

   -37.0985 -37.0949  -5.5182  -1.5300  -0.7886  -0.4626   2.3047   3.3798
     3.6330   5.1986   5.9389   6.5770   7.3559   7.9429   8.8865   9.7095
    10.0301  10.8857  11.7951

          k = 0.1890 0.5457-0.5832 ( 12952 PWs)   bands (ev):

   -37.0985 -37.0949  -5.4435  -1.4518  -1.1076  -0.3747   2.0583   3.0928
     3.6086   5.1778   6.4586   7.2212   7.4385   7.7559   8.9447   9.9538
    10.7772  11.1022  11.5487

          k = 0.3780 0.6548 0.0000 ( 12918 PWs)   bands (ev):

   -37.0967 -37.0967  -5.6395  -1.4730  -1.4730   0.8063   3.1931   3.8059
     3.8059   5.2104   5.4505   5.4505   6.3855   6.3855   8.9968   9.9498
     9.9498  10.7753  12.3248

          k = 0.3780 0.6548 0.1944 ( 12909 PWs)   bands (ev):

   -37.0967 -37.0967  -5.5780  -1.4053  -1.4053   0.1470   3.4012   3.4012
     4.1205   5.1259   5.1259   5.3653   7.3341   7.3341   8.6146   9.9591
     9.9591  10.8410  11.9132

          k = 0.3780 0.6548 0.3888 ( 12939 PWs)   bands (ev):

   -37.0967 -37.0967  -5.4430  -1.2533  -1.2533  -0.6925   2.7041   2.7041
     5.0456   5.0456   5.2834   6.1900   7.9034   8.3703   8.3703  10.3926
    10.3926  10.9918  11.5982

          k = 0.3780 0.6548-0.5832 ( 12942 PWs)   bands (ev):

   -37.0967 -37.0967  -5.3680  -1.1665  -1.1665  -1.0256   2.3966   2.3966
     5.0566   5.0566   5.5701   7.1929   7.4941   8.5749   8.5749  11.1291
    11.1292  11.2185  11.2468

          k = 0.0000 0.2183-0.1944 ( 12947 PWs)   bands (ev):

   -37.1016 -37.0918  -6.0317  -0.4389  -0.2904   0.4301   2.3999   3.5212
     3.9802   4.1286   4.8608   5.6588   6.0313   7.3628   7.8716   9.7577
    10.0067  10.1687  11.6162

          k = 0.0000 0.2183-0.3888 ( 12956 PWs)   bands (ev):

   -37.1016 -37.0918  -5.9007  -1.2082  -0.1850   0.6023   2.5379   3.5077
     4.3917   4.3976   4.6980   5.5916   5.7399   7.0395   7.2957   9.3463
    11.2779  11.4302  11.6582

          k = 0.0000 0.4365-0.1944 ( 12942 PWs)   bands (ev):

   -37.0999 -37.0935  -5.7924  -1.4389  -0.1109   0.0662   1.9799   3.8230
     4.2970   5.0865   5.1315   5.6168   6.7309   7.1276   8.0528   9.5469
    10.1489  11.0058  11.4666

          k = 0.0000 0.4365-0.3888 ( 12929 PWs)   bands (ev):

   -37.0999 -37.0935  -5.6592  -1.3068  -0.9242   0.2532   1.9496   3.3499
     4.1927   4.9245   5.7967   5.9728   6.5182   7.7961   8.2921  10.0376
    10.9822  11.1028  11.2819

          k =-0.1890 0.5457-0.1944 ( 12932 PWs)   bands (ev):

   -37.0986 -37.0949  -5.6526  -1.6731  -0.6446   0.0606   2.5977   3.8028
     4.2488   4.4118   5.1659   6.6400   7.2435   7.4048   7.8798   8.7757
    10.4034  11.2624  11.5841

          k =-0.1890 0.5457-0.3888 ( 12948 PWs)   bands (ev):

   -37.0985 -37.0949  -5.5182  -1.5305  -0.7802  -0.4699   2.2684   3.4321
     3.6569   5.0950   6.0394   6.7632   7.2326   7.6909   8.7942   9.7054
    10.2743  11.2873  11.4349

     the Fermi energy is     8.7374 ev

!    total energy              =     -78.89431349 Ry
     estimated scf accuracy    <          3.6E-10 Ry
     smearing contrib. (-TS)   =      -0.00114980 Ry
     internal energy E=F+TS    =     -78.89316369 Ry

     The total energy is F=E-TS. E is the sum of the following terms:
     one-electron contribution =       2.47970541 Ry
     hartree contribution      =      11.17304338 Ry
     xc contribution           =     -26.54051727 Ry
     ewald contribution        =     -66.00539521 Ry

     convergence has been achieved in  12 iterations

     Forces acting on atoms (cartesian axes, Ry/au):

     atom    1 type  1   force =     0.00000000    0.05476713    0.04811350
     atom    2 type  1   force =     0.00000000   -0.05476713   -0.04811350
     atom    3 type  1   force =    -0.04742972   -0.02738356    0.04811350
     atom    4 type  1   force =     0.04742972    0.02738356   -0.04811350
     atom    5 type  1   force =     0.04742972   -0.02738356    0.04811350
     atom    6 type  1   force =    -0.04742972    0.02738356   -0.04811350
     atom    7 type  2   force =    -0.00000000    0.00000000    0.25532396
     atom    8 type  2   force =     0.00000000   -0.00000000   -0.25532396
     The non-local contrib.  to forces
     atom    1 type  1   force =     0.00000000    0.00965758    0.01003652
     atom    2 type  1   force =     0.00000000   -0.00965758   -0.01003652
     atom    3 type  1   force =    -0.00836371   -0.00482879    0.01003652
     atom    4 type  1   force =     0.00836371    0.00482879   -0.01003652
     atom    5 type  1   force =     0.00836371   -0.00482879    0.01003652
     atom    6 type  1   force =    -0.00836371    0.00482879   -0.01003652
     atom    7 type  2   force =     0.00000000    0.00000000    0.11405276
     atom    8 type  2   force =     0.00000000   -0.00000000   -0.11405276
     The ionic contribution  to forces
     atom    1 type  1   force =     0.00000008    0.98433816    1.04191012
     atom    2 type  1   force =    -0.00000008   -0.98433816   -1.04191012
     atom    3 type  1   force =    -0.85246187   -0.49216906    1.04191012
     atom    4 type  1   force =     0.85246187    0.49216906   -1.04191012
     atom    5 type  1   force =     0.85246177   -0.49216910    1.04191007
     atom    6 type  1   force =    -0.85246177    0.49216910   -1.04191007
     atom    7 type  2   force =     0.00000006   -0.00000003    1.67822092
     atom    8 type  2   force =    -0.00000006    0.00000003   -1.67822092
     The local contribution  to forces
     atom    1 type  1   force =    -0.00000005   -0.93280835   -0.99852091
     atom    2 type  1   force =     0.00000005    0.93280835    0.99852091
     atom    3 type  1   force =     0.80783575    0.46640413   -0.99852091
     atom    4 type  1   force =    -0.80783575   -0.46640413    0.99852091
     atom    5 type  1   force =    -0.80783571    0.46640422   -0.99852091
     atom    6 type  1   force =     0.80783571   -0.46640422    0.99852091
     atom    7 type  2   force =     0.00000093   -0.00000054   -1.53695120
     atom    8 type  2   force =    -0.00000093    0.00000054    1.53695120
     The core correction contribution to forces
     atom    1 type  1   force =     0.00000000   -0.00641202   -0.00530253
     atom    2 type  1   force =    -0.00000000    0.00641202    0.00530253
     atom    3 type  1   force =     0.00555297    0.00320601   -0.00530253
     atom    4 type  1   force =    -0.00555297   -0.00320601    0.00530253
     atom    5 type  1   force =    -0.00555297    0.00320600   -0.00530253
     atom    6 type  1   force =     0.00555297   -0.00320600    0.00530253
     atom    7 type  2   force =     0.00000000    0.00000000    0.00000000
     atom    8 type  2   force =     0.00000000    0.00000000    0.00000000
     The Hubbard contrib.    to forces
     atom    1 type  1   force =     0.00000000    0.00000000    0.00000000
     atom    2 type  1   force =     0.00000000    0.00000000    0.00000000
     atom    3 type  1   force =     0.00000000    0.00000000    0.00000000
     atom    4 type  1   force =     0.00000000    0.00000000    0.00000000
     atom    5 type  1   force =     0.00000000    0.00000000    0.00000000
     atom    6 type  1   force =     0.00000000    0.00000000    0.00000000
     atom    7 type  2   force =     0.00000000    0.00000000    0.00000000
     atom    8 type  2   force =     0.00000000    0.00000000    0.00000000
     The SCF correction term to forces
     atom    1 type  1   force =    -0.00000000   -0.00000822   -0.00000969
     atom    2 type  1   force =     0.00000000    0.00000822    0.00000969
     atom    3 type  1   force =     0.00000712    0.00000411   -0.00000969
     atom    4 type  1   force =    -0.00000712   -0.00000411    0.00000969
     atom    5 type  1   force =    -0.00000712    0.00000411   -0.00000969
     atom    6 type  1   force =     0.00000712   -0.00000411    0.00000969
     atom    7 type  2   force =    -0.00000000    0.00000000    0.00000149
     atom    8 type  2   force =     0.00000000   -0.00000000   -0.00000149

     Total force =     0.402823     Total SCF correction =     0.000031


     Computing stress (Cartesian axis) and pressure

          total   stress  (Ry/bohr**3)                   (kbar)     P=      466.45
   0.00318101   0.00000000   0.00000000          467.94        0.00        0.00
   0.00000000   0.00318101   0.00000000            0.00      467.94        0.00
   0.00000000   0.00000000   0.00315048            0.00        0.00      463.45

     Energy error            =      4.0E-01 Ry
     Gradient error          =      2.6E-01 Ry/Bohr
     Cell gradient error     =      3.7E+01 kbar

     number of scf cycles    =   3
     number of bfgs steps    =   2

     enthalpy           old  =     -76.0305748817 Ry
     enthalpy           new  =     -76.4355452519 Ry

     CASE: enthalpy          _new < enthalpy          _old

     new trust radius        =       0.3881696407 bohr
ibrav =      4
 celldm(1) =      8.95961781
 celldm(3) =      0.96446620
Input lattice vectors:
     0.83105640     0.00000000    -0.00000000
    -0.41552820     0.71971595     0.00000000
     0.00000000     0.00000000     0.80152580
New lattice vectors in INITIAL alat:
     0.83105640     0.00000000     0.00000000
    -0.41552820     0.71971595     0.00000000
     0.00000000     0.00000000     0.80152580
New lattice vectors in NEW alat (for information only):
     1.00000000     0.00000000     0.00000000
    -0.50000000     0.86602540     0.00000000
     0.00000000     0.00000000     0.96446620
Discrepancy in bohr =     0.000000    0.000000    0.000000
     new conv_thr            =       0.0000000100 Ry

     new unit-cell volume =    600.73937 a.u.^3 (    89.02039 Ang^3 )
     density =      3.40230 g/cm^3

CELL_PARAMETERS (alat= 10.78099853)
   0.831056398   0.000000000   0.000000000
  -0.415528199   0.719715952   0.000000000
   0.000000000   0.000000000   0.801525803

ATOMIC_POSITIONS (crystal)
Si            0.1589389535        0.3178778969        0.1998069498
Si            0.8410610465        0.6821221031        0.8001930502
Si            0.6821221031        0.8410610565        0.1998069498
Si            0.3178778969        0.1589389435        0.8001930502
Si            0.1589389435        0.8410610465        0.1998069498
Si            0.8410610565        0.1589389535        0.8001930502
Li            0.3333333300        0.6666666700        0.4427337991
Li            0.6666666700        0.3333333300        0.5572662009



     Writing config-only to output data dir ./output/SiLi.save/
     NEW-OLD atomic charge density approx. for the potential

     negative rho (up, down):  3.967E-03 0.000E+00
     extrapolated charge   23.87740, renormalised to   30.00000

     total cpu time spent up to now is      110.2 secs

     Self-consistent Calculation

     iteration #  1     ecut=    80.00 Ry     beta= 0.70
     Davidson diagonalization with overlap
     c_bands:  2 eigenvalues not converged
     c_bands:  1 eigenvalues not converged
     c_bands:  1 eigenvalues not converged
     c_bands:  2 eigenvalues not converged
     c_bands:  3 eigenvalues not converged
     c_bands:  2 eigenvalues not converged
     c_bands:  1 eigenvalues not converged
     c_bands:  1 eigenvalues not converged
     c_bands:  2 eigenvalues not converged
     c_bands:  1 eigenvalues not converged
     c_bands:  1 eigenvalues not converged
     c_bands:  1 eigenvalues not converged
     c_bands:  1 eigenvalues not converged
     c_bands:  1 eigenvalues not converged
     ethr =  1.00E-06,  avg # of iterations = 17.9

     total cpu time spent up to now is      119.1 secs

     total energy              =     -78.42178260 Ry
     estimated scf accuracy    <       0.31403287 Ry

     iteration #  2     ecut=    80.00 Ry     beta= 0.70
     Davidson diagonalization with overlap
     ethr =  1.05E-03,  avg # of iterations =  2.8

     total cpu time spent up to now is      121.6 secs

     total energy              =     -78.67755868 Ry
     estimated scf accuracy    <       0.24704819 Ry

     iteration #  3     ecut=    80.00 Ry     beta= 0.70
     Davidson diagonalization with overlap
     ethr =  8.23E-04,  avg # of iterations =  1.6

     total cpu time spent up to now is      123.4 secs

     total energy              =     -78.68413192 Ry
     estimated scf accuracy    <       0.03489451 Ry

     iteration #  4     ecut=    80.00 Ry     beta= 0.70
     Davidson diagonalization with overlap
     ethr =  1.16E-04,  avg # of iterations =  2.3

     total cpu time spent up to now is      125.5 secs

     total energy              =     -78.68740618 Ry
     estimated scf accuracy    <       0.00573349 Ry

     iteration #  5     ecut=    80.00 Ry     beta= 0.70
     Davidson diagonalization with overlap
     ethr =  1.91E-05,  avg # of iterations =  4.4

     total cpu time spent up to now is      128.0 secs

     total energy              =     -78.68898079 Ry
     estimated scf accuracy    <       0.00069355 Ry

     iteration #  6     ecut=    80.00 Ry     beta= 0.70
     Davidson diagonalization with overlap
     ethr =  2.31E-06,  avg # of iterations =  4.0

     total cpu time spent up to now is      130.3 secs

     total energy              =     -78.68909251 Ry
     estimated scf accuracy    <       0.00001681 Ry

     iteration #  7     ecut=    80.00 Ry     beta= 0.70
     Davidson diagonalization with overlap
     ethr =  5.60E-08,  avg # of iterations =  4.0

     total cpu time spent up to now is      132.7 secs

     total energy              =     -78.68910058 Ry
     estimated scf accuracy    <       0.00000102 Ry

     iteration #  8     ecut=    80.00 Ry     beta= 0.70
     Davidson diagonalization with overlap
     ethr =  3.39E-09,  avg # of iterations =  3.2

     total cpu time spent up to now is      134.9 secs

     total energy              =     -78.68910088 Ry
     estimated scf accuracy    <       0.00000007 Ry

     iteration #  9     ecut=    80.00 Ry     beta= 0.70
     Davidson diagonalization with overlap
     ethr =  2.18E-10,  avg # of iterations =  3.4

     total cpu time spent up to now is      137.2 secs

     End of self-consistent calculation

          k = 0.0000 0.0000 0.0000 ( 13003 PWs)   bands (ev):

   -35.4350 -35.4017  -4.1389   2.2418   3.4523   3.4523   3.5157   4.5864
     5.0186   5.0186   6.2975   9.7885   9.7885  10.4236  10.4236  11.6932
    11.6932  12.0964  12.7853

          k = 0.0000 0.0000 0.2079 ( 13008 PWs)   bands (ev):

   -35.4349 -35.4017  -4.0392   1.3731   3.5614   3.5782   3.5782   5.1800
     5.1800   5.4247   6.6191   8.7099   8.7099   9.4456   9.4456  11.4765
    12.9439  13.0556  13.0556

          k = 0.0000 0.0000 0.4159 ( 12948 PWs)   bands (ev):

   -35.4349 -35.4017  -3.8057   0.2899   3.6463   3.8888   3.8888   5.6298
     5.6298   5.6802   7.4746   7.4746   8.0977   8.0977   8.3725  10.7762
    13.0667  15.2550  15.2550

          k = 0.0000 0.0000-0.6238 ( 12930 PWs)   bands (ev):

   -35.4348 -35.4017  -3.6637  -0.1575   3.6921   4.0949   4.0949   5.6495
     6.0353   6.0353   6.9564   6.9564   7.3614   7.3614   9.9859  10.2778
    13.1759  13.7814  16.9417

          k = 0.0000 0.2316 0.0000 ( 12951 PWs)   bands (ev):

   -35.4330 -35.4036  -3.9707   1.6664   2.4055   2.8967   4.1090   4.6813
     5.6966   5.9853   6.9342   9.1717   9.4416   9.5116   9.8537  11.1918
    12.4976  13.0407  13.3089

          k = 0.0000 0.2316 0.2079 ( 12947 PWs)   bands (ev):

   -35.4329 -35.4036  -3.8690   1.4805   1.8278   3.0346   4.1582   5.2134
     6.1156   6.3464   6.6483   8.1262   8.3656   9.8173  10.0514  11.4752
    12.6945  13.0249  13.4362

          k = 0.0000 0.2316 0.4159 ( 12956 PWs)   bands (ev):

   -35.4329 -35.4036  -3.6301   0.4368   2.0004   3.3860   4.2681   5.2723
     6.1497   6.3157   6.9495   7.8484   8.4266   8.9253   9.1691  11.7691
    13.2931  13.9546  14.9253

          k = 0.0000 0.2316-0.6238 ( 12954 PWs)   bands (ev):

   -35.4328 -35.4036  -3.4844  -0.0117   2.1328   3.6341   4.2057   5.3916
     6.0179   6.0186   6.9219   7.4694   8.6178   8.6819  10.1839  11.0178
    13.4623  14.1603  15.6349

          k = 0.0000 0.4631 0.0000 ( 12936 PWs)   bands (ev):

   -35.4279 -35.4087  -3.5358   0.1284   2.3067   2.7510   3.7648   4.9063
     6.3835   7.2429   7.7143   8.2827   9.1392   9.3377   9.6354  11.4581
    12.5636  13.4853  14.4177

          k = 0.0000 0.4631 0.2079 ( 12942 PWs)   bands (ev):

   -35.4278 -35.4087  -3.4278   0.2090   2.0020   2.4504   3.4735   5.3634
     6.4329   7.1837   7.2254   8.1973   9.3684   9.8128  10.6298  11.1488
    12.7799  13.5160  14.5283

          k = 0.0000 0.4631 0.4159 ( 12929 PWs)   bands (ev):

   -35.4278 -35.4087  -3.1724   0.3766   0.9340   2.8220   3.2857   4.7814
     5.9589   6.7484   8.4392   8.5361   9.4066  10.6412  10.6474  12.1094
    13.6777  13.9027  14.0591

          k = 0.0000 0.4631-0.6238 ( 12924 PWs)   bands (ev):

   -35.4278 -35.4087  -3.0147   0.3109   0.6589   3.0871   3.0937   4.7272
     5.3558   6.5612   8.6537   8.9483  10.2987  10.4145  10.8528  12.2180
    13.9315  14.1048  14.5182

          k = 0.0000-0.6947 0.0000 ( 12914 PWs)   bands (ev):

   -35.4238 -35.4127  -3.2187  -0.5694   2.0973   2.9323   3.7074   5.0256
     6.0659   7.4618   7.8119   8.5975   8.9732  10.1520  10.4711  10.7039
    12.1999  12.9271  15.5277

          k = 0.0000-0.6947 0.2079 ( 12936 PWs)   bands (ev):

   -35.4238 -35.4127  -3.1049  -0.4841   2.2423   2.4624   2.8973   5.2321
     6.7058   7.1112   7.2848   8.8756   9.9367  10.2647  10.6616  11.5652
    11.8018  13.4335  15.1227

          k = 0.0000-0.6947 0.4159 ( 12938 PWs)   bands (ev):

   -35.4237 -35.4127  -2.8325  -0.2890   1.2187   2.6190   2.6951   4.5846
     5.7462   6.8961   8.9754  10.2039  10.3051  10.5498  11.2072  11.8155
    13.1394  13.4099  14.3462

          k = 0.0000-0.6947-0.6238 ( 12952 PWs)   bands (ev):

   -35.4237 -35.4127  -2.6612  -0.1784   0.7213   2.5284   2.8965   4.4186
     5.1314   6.7157  10.2805  10.4498  10.7312  10.8287  11.2855  12.7724
    13.1164  13.4318  13.7749

          k = 0.2005 0.3474 0.0000 ( 12939 PWs)   bands (ev):

   -35.4294 -35.4072  -3.6644   0.6751   1.6588   2.9767   4.6522   5.1657
     5.1882   7.1446   7.5721   8.6779   8.9296   8.9779   9.9947  11.2326
    12.8550  13.8238  14.0929

          k = 0.2005 0.3474 0.2079 ( 12955 PWs)   bands (ev):

   -35.4293 -35.4072  -3.5587   0.7674   1.5920   2.1841   4.7263   5.1090
     6.4498   6.5463   6.9924   8.1302   8.9545   9.8601  10.8090  10.9672
    12.8899  13.8147  14.2961

          k = 0.2005 0.3474 0.4159 ( 12940 PWs)   bands (ev):

   -35.4293 -35.4072  -3.3090   0.7039   0.9938   2.1923   4.3921   5.1378
     5.9282   6.1664   8.1341   8.5263   8.8292   9.7448  10.5876  12.5738
    13.4008  13.9470  14.0999

          k = 0.2005 0.3474-0.6238 ( 12946 PWs)   bands (ev):

   -35.4293 -35.4072  -3.1551   0.2536   1.1218   2.3506   4.1577   4.9150
     5.8706   6.0098   8.0779   8.4470   9.5832  10.4697  10.5512  11.9028
    14.0517  14.2275  14.7920

          k = 0.2005 0.5789 0.0000 ( 12933 PWs)   bands (ev):

   -35.4238 -35.4127  -3.2380  -0.2588   1.0442   3.5832   4.4004   5.0389
     6.1820   6.7504   7.8751   8.0859   8.6539   9.7891  10.5070  11.3860
    13.1679  13.8510  14.7916

          k = 0.2005 0.5789 0.2079 ( 12932 PWs)   bands (ev):

   -35.4238 -35.4127  -3.1250  -0.1728   1.1423   2.4384   4.2454   5.3967
     6.1603   6.6888   7.7630   8.5338   9.2881  10.4620  10.6128  11.5045
    12.8007  13.6259  14.7407

          k = 0.2005 0.5789 0.4159 ( 12948 PWs)   bands (ev):

   -35.4237 -35.4127  -2.8551   0.0286   1.1297   1.4636   3.7051   4.8481
     5.6120   7.4306   8.3765   9.1403  10.0673  10.9241  11.5341  12.2637
    12.5652  13.8036  14.5738

          k = 0.2005 0.5789-0.6238 ( 12952 PWs)   bands (ev):

   -35.4237 -35.4127  -2.6862   0.1494   0.6784   1.5541   3.4158   4.4687
     5.6275   7.2560   8.6565   9.5250  11.0317  11.1616  11.8684  12.4130
    13.0049  13.8494  14.2881

          k = 0.4011 0.6947 0.0000 ( 12918 PWs)   bands (ev):

   -35.4182 -35.4182  -3.0621   0.0205   0.0205   3.9406   5.0425   5.4278
     5.4278   7.2290   8.0638   8.0638   8.0986   8.0986  11.7058  13.1399
    13.1399  14.2800  15.2005

          k = 0.4011 0.6947 0.2079 ( 12909 PWs)   bands (ev):

   -35.4182 -35.4182  -2.9458   0.1127   0.1127   2.6274   4.8975   4.8975
     6.5183   7.4805   7.4805   7.5631   9.4983   9.4983  11.0906  13.0228
    13.0228  14.3650  14.7021

          k = 0.4011 0.6947 0.4159 ( 12939 PWs)   bands (ev):

   -35.4182 -35.4182  -2.6664   0.3281   0.3281   1.3501   4.0444   4.0444
     7.4103   7.4103   7.5094   9.0987  10.2445  10.9582  10.9582  13.0719
    13.0719  14.4515  14.4968

          k = 0.4011 0.6947-0.6238 ( 12942 PWs)   bands (ev):

   -35.4182 -35.4182  -2.4897   0.4585   0.4585   0.8323   3.6633   3.6633
     7.4265   7.4265   7.9370   9.1178  11.2130  11.3587  11.3587  13.7567
    13.7895  13.7895  14.6224

          k = 0.0000 0.2316-0.2079 ( 12947 PWs)   bands (ev):

   -35.4329 -35.4036  -3.8691   1.5165   1.7987   3.0343   3.9840   5.6119
     6.1212   6.1263   6.9247   7.9483   7.9762   9.5424  10.5865  12.2203
    12.3426  12.7118  13.3915

          k = 0.0000 0.2316-0.4159 ( 12956 PWs)   bands (ev):

   -35.4329 -35.4036  -3.6303   0.4416   2.0042   3.3856   4.0771   5.6308
     6.3312   6.4097   6.7713   7.2162   8.4725   9.1143   9.3671  11.5539
    13.4983  14.4536  14.4897

          k = 0.0000 0.4631-0.2079 ( 12942 PWs)   bands (ev):

   -35.4278 -35.4087  -3.4284   0.2248   2.0024   2.4502   3.3003   5.9040
     6.4965   6.8918   7.2263   8.1173   8.8225   9.4825  11.0434  12.2845
    12.5321  13.5044  14.0913

          k = 0.0000 0.4631-0.4159 ( 12929 PWs)   bands (ev):

   -35.4278 -35.4087  -3.1732   0.4245   0.8892   2.8220   3.1521   5.0939
     5.9542   6.6156   8.3729   8.8371   9.0426  10.0029  10.9673  12.8185
    13.6868  13.8003  14.2617

          k =-0.2005 0.5789-0.2079 ( 12932 PWs)   bands (ev):

   -35.4238 -35.4127  -3.1253  -0.1675   1.1371   2.4393   4.1317   5.8630
     5.9065   6.7880   7.3578   8.6668   9.5013  10.2895  10.5752  11.2691
    13.4617  13.8964  14.3336

          k =-0.2005 0.5789-0.4159 ( 12948 PWs)   bands (ev):

   -35.4237 -35.4127  -2.8556   0.0398   1.1120   1.4648   3.6719   4.9146
     5.6565   7.2116   8.9152   9.0077   9.5875  10.9361  11.5817  12.1943
    12.8911  14.0682  14.3663

[...]
     c_bands:  2 eigenvalues not converged
     c_bands:  2 eigenvalues not converged
     c_bands:  1 eigenvalues not converged
     c_bands:  2 eigenvalues not converged
     c_bands:  1 eigenvalues not converged
     c_bands:  1 eigenvalues not converged
     c_bands:  1 eigenvalues not converged
     c_bands:  1 eigenvalues not converged
     c_bands:  2 eigenvalues not converged
     c_bands:  1 eigenvalues not converged
     c_bands:  2 eigenvalues not converged
     c_bands:  2 eigenvalues not converged
     c_bands:  1 eigenvalues not converged
     c_bands:  1 eigenvalues not converged
     c_bands:  1 eigenvalues not converged
     c_bands:  3 eigenvalues not converged
     c_bands:  2 eigenvalues not converged
     c_bands:  1 eigenvalues not converged
     c_bands:  2 eigenvalues not converged
     ethr =  1.00E-06,  avg # of iterations = 19.4

     total cpu time spent up to now is      575.1 secs

     total energy              =     -79.19651534 Ry
     estimated scf accuracy    <       0.04820822 Ry

     iteration #  2     ecut=    80.00 Ry     beta= 0.70
     Davidson diagonalization with overlap
     ethr =  1.61E-04,  avg # of iterations =  2.2

     total cpu time spent up to now is      576.1 secs

     total energy              =     -79.19829568 Ry
     estimated scf accuracy    <       0.01397199 Ry

     iteration #  3     ecut=    80.00 Ry     beta= 0.70
     Davidson diagonalization with overlap
     ethr =  4.66E-05,  avg # of iterations =  2.2

     total cpu time spent up to now is      577.1 secs

     total energy              =     -79.20184349 Ry
     estimated scf accuracy    <       0.00232189 Ry

     iteration #  4     ecut=    80.00 Ry     beta= 0.70
     Davidson diagonalization with overlap
     c_bands:  1 eigenvalues not converged
     ethr =  7.74E-06,  avg # of iterations =  3.0

     total cpu time spent up to now is      578.0 secs

     total energy              =     -79.20208521 Ry
     estimated scf accuracy    <       0.00007382 Ry

     iteration #  5     ecut=    80.00 Ry     beta= 0.70
     Davidson diagonalization with overlap
     ethr =  2.46E-07,  avg # of iterations =  5.1

     total cpu time spent up to now is      579.3 secs

     total energy              =     -79.20213933 Ry
     estimated scf accuracy    <       0.00003783 Ry

     iteration #  6     ecut=    80.00 Ry     beta= 0.70
     Davidson diagonalization with overlap
     ethr =  1.26E-07,  avg # of iterations =  2.1

     total cpu time spent up to now is      580.1 secs

     total energy              =     -79.20214197 Ry
     estimated scf accuracy    <       0.00000390 Ry

     iteration #  7     ecut=    80.00 Ry     beta= 0.70
     Davidson diagonalization with overlap
     ethr =  1.30E-08,  avg # of iterations =  3.1

     total cpu time spent up to now is      581.2 secs

     total energy              =     -79.20214285 Ry
     estimated scf accuracy    <       0.00000010 Ry

     iteration #  8     ecut=    80.00 Ry     beta= 0.70
     Davidson diagonalization with overlap
     ethr =  3.23E-10,  avg # of iterations =  4.8

     total cpu time spent up to now is      582.5 secs

     total energy              =     -79.20214296 Ry
     estimated scf accuracy    <       0.00000010 Ry

     iteration #  9     ecut=    80.00 Ry     beta= 0.70
     Davidson diagonalization with overlap
     ethr =  3.22E-10,  avg # of iterations =  1.0

     total cpu time spent up to now is      583.3 secs

     total energy              =     -79.20214295 Ry
     estimated scf accuracy    <       0.00000003 Ry

     iteration # 10     ecut=    80.00 Ry     beta= 0.70
     Davidson diagonalization with overlap
     ethr =  1.15E-10,  avg # of iterations =  2.1

     total cpu time spent up to now is      584.2 secs

     End of self-consistent calculation

          k = 0.0000 0.0000 0.0000 (  6519 PWs)   bands (ev):

   -32.9532 -32.9434  -2.6062   4.5187   4.5187   4.9073   4.9758   5.4616
     5.4616   5.5018   8.6165  12.0042  12.0042  13.8092  13.8092  14.0962
    14.2436  14.2436  14.4336

          k = 0.0000 0.0000 0.2386 (  6537 PWs)   bands (ev):

   -32.9524 -32.9439  -2.3743   3.0297   4.7627   4.7627   5.0386   5.7013
     5.7013   6.6738   9.4803  10.4101  10.4101  11.4775  11.4775  13.6635
    13.8700  16.4021  16.4022

          k = 0.0000 0.0000 0.4772 (  6562 PWs)   bands (ev):

   -32.9503 -32.9453  -1.6804   1.0548   5.4163   5.4877   5.4877   6.4056
     6.4056   6.5493   8.4162   8.4162   9.3596   9.3596  11.2863  12.7945
    14.2211  19.4847  19.4848

          k = 0.0000 0.0000-0.7158 (  6598 PWs)   bands (ev):

   -32.9476 -32.9476  -0.5332  -0.5301   5.9750   5.9768   6.6324   6.6324
     6.6360   6.6360   7.7409   7.7409   7.7446   7.7446  12.0589  12.0592
    17.1691  17.1718  21.0086

          k = 0.0000 0.2272 0.0000 (  6553 PWs)   bands (ev):

   -32.9526 -32.9439  -2.4202   2.7152   3.7970   4.3243   5.7048   6.0169
     6.6084   7.2159   8.8217  10.7287  11.6274  12.7984  13.0899  13.1013
    14.4564  15.0297  15.0697

          k = 0.0000 0.2272 0.2386 (  6557 PWs)   bands (ev):

   -32.9518 -32.9443  -2.1879   2.8036   3.2987   4.0427   5.1059   6.7307
     6.8401   7.7040   9.0267   9.7989  10.2041  11.6023  12.4416  14.1508
    14.7211  15.3820  15.5929

          k = 0.0000 0.2272 0.4772 (  6570 PWs)   bands (ev):

   -32.9499 -32.9456  -1.4937   1.2179   3.6172   4.7754   5.2533   6.5383
     7.1105   7.3384   7.9410   9.0231  10.0901  10.4401  11.8895  13.4983
    14.4570  17.5575  17.6282

          k = 0.0000 0.2272-0.7158 (  6564 PWs)   bands (ev):

   -32.9476 -32.9476  -0.3495  -0.3464   4.5606   4.5633   5.9752   5.9793
     6.6538   6.6553   8.8151   8.8193   9.2600   9.2621  12.6490  12.6494
    17.2962  17.2986  18.7102

          k = 0.0000 0.4544 0.0000 (  6578 PWs)   bands (ev):

   -32.9510 -32.9453  -1.8990   1.0185   3.1625   3.8775   6.2910   7.1327
     8.5058   8.6685   9.0340   9.5056  11.1516  12.1649  12.3482  12.4038
    13.6137  13.6667  16.5542

          k = 0.0000 0.4544 0.2386 (  6575 PWs)   bands (ev):

   -32.9504 -32.9455  -1.6641   1.2087   3.4095   3.4868   4.7774   7.1769
     8.0775   8.6229   9.3298   9.8434  11.0330  11.4380  13.4601  13.7505
    14.0131  14.1387  15.8714

          k = 0.0000 0.4544 0.4772 (  6556 PWs)   bands (ev):

   -32.9491 -32.9462  -0.9651   1.4499   2.2495   4.0169   4.1471   6.1774
     7.0312   7.3997   9.5253  10.8508  11.6859  12.1689  13.0506  14.5246
    14.7860  15.4410  15.9391

          k = 0.0000 0.4544-0.7158 (  6556 PWs)   bands (ev):

   -32.9475 -32.9475   0.1691   0.1723   2.9430   2.9456   5.3620   5.3662
     6.5301   6.5315  10.6548  10.6590  11.3472  11.3485  14.3037  14.3057
    15.8493  15.8536  16.8888

          k = 0.0000-0.6816 0.0000 (  6564 PWs)   bands (ev):

   -32.9497 -32.9465  -1.4224   0.1433   2.9453   3.7304   6.9095   7.7350
     8.0225   9.2067   9.5041  10.7464  10.7523  10.9739  11.8525  12.1079
    12.5720  14.6028  16.3254

          k = 0.0000-0.6816 0.2386 (  6580 PWs)   bands (ev):

   -32.9494 -32.9465  -1.1796   0.3331   3.1927   3.6411   4.7210   6.6726
     8.6901   8.9126  10.3789  10.8713  10.9655  11.2781  12.3341  12.6086
    14.4244  14.8701  16.0939

          k = 0.0000-0.6816 0.4772 (  6572 PWs)   bands (ev):

   -32.9484 -32.9468  -0.4594   0.8514   2.6490   3.0385   3.9317   6.0053
     6.8324   7.4877  11.5956  11.9027  12.0132  12.6380  14.1109  14.2499
    14.5086  15.0213  15.1814

          k = 0.0000-0.6816-0.7158 (  6540 PWs)   bands (ev):

   -32.9474 -32.9474   0.6575   0.6606   2.0748   2.0762   5.1501   5.1543
     6.4711   6.4725  12.3448  12.3459  12.6670  12.6684  13.8067  13.8082
    14.8977  14.8988  16.8654

          k = 0.1967 0.3408 0.0000 (  6577 PWs)   bands (ev):

   -32.9515 -32.9449  -2.0627   1.6994   2.3780   5.4179   5.8483   6.1017
     7.7062   8.9233   9.2903   9.7351  10.4739  11.9532  12.9435  13.1064
    13.6741  14.8076  15.2666

          k = 0.1967 0.3408 0.2386 (  6576 PWs)   bands (ev):

   -32.9509 -32.9452  -1.8290   1.9119   2.4379   3.9854   6.0059   6.1030
     7.7640   8.2375   9.4972   9.7536  10.7625  11.8880  12.5060  13.8710
    14.3560  14.8410  15.8549

          k = 0.1967 0.3408 0.4772 (  6571 PWs)   bands (ev):

   -32.9493 -32.9460  -1.1323   1.5058   2.5318   3.5073   5.3091   6.0653
     7.0172   7.2516   9.6686   9.8569  11.0073  11.5912  12.9867  14.4596
    15.0375  15.2763  16.8577

          k = 0.1967 0.3408-0.7158 (  6570 PWs)   bands (ev):

   -32.9475 -32.9475   0.0068   0.0100   3.4163   3.4185   5.0236   5.0257
     7.3039   7.3048   9.2772   9.2773  11.3585  11.3603  13.7185  13.7187
    16.1623  16.1661  17.5265

          k = 0.1967 0.5680 0.0000 (  6580 PWs)   bands (ev):

   -32.9497 -32.9465  -1.4751   0.5259   1.7775   5.3219   6.8051   7.3525
     8.2241   8.4881   9.4019   9.8334  10.0075  11.1173  12.5669  13.6522
    13.8282  14.4562  16.2885

          k = 0.1967 0.5680 0.2386 (  6584 PWs)   bands (ev):

   -32.9494 -32.9465  -1.2342   0.7190   1.9416   4.5581   5.3678   6.9817
     7.4469   8.4657  10.2078  10.4151  11.4479  11.9658  12.5092  13.4641
    14.0180  14.9059  15.8316

          k = 0.1967 0.5680 0.4772 (  6569 PWs)   bands (ev):

   -32.9484 -32.9468  -0.5190   1.2302   2.1107   2.8344   4.4563   5.7438
     6.9001   8.3148   9.9780  11.2961  12.6985  13.1793  13.6706  13.9167
    14.8152  15.1840  15.7070

          k = 0.1967 0.5680-0.7158 (  6590 PWs)   bands (ev):

   -32.9474 -32.9474   0.6219   0.6252   2.2450   2.2468   4.4774   4.4796
     7.5934   7.5954  10.4623  10.4647  13.4580  13.4600  13.7963  13.7969
    15.7797  15.7815  16.9397

          k = 0.3935 0.6816 0.0000 (  6627 PWs)   bands (ev):

   -32.9481 -32.9481  -1.1720   0.7071   0.7071   7.2152   7.2338   7.2338
     7.8346   8.0524   8.6562   8.6562  10.4290  10.4290  14.8804  15.0222
    15.0222  15.4654  15.4659

          k = 0.3935 0.6816 0.2386 (  6585 PWs)   bands (ev):

   -32.9479 -32.9479  -0.9217   0.8884   0.8884   4.9643   6.2929   6.2929
     8.0727   8.3906   8.3906  10.7073  12.1170  12.1170  13.5637  14.1683
    14.1683  15.3532  15.3534

          k = 0.3935 0.6816 0.4772 (  6591 PWs)   bands (ev):

   -32.9476 -32.9476  -0.1730   1.3723   1.3723   2.7870   4.7725   4.7725
     8.5707   8.5707   8.7849  11.5725  12.9028  12.9028  14.0971  14.7769
    14.7769  15.8297  15.8297

          k = 0.3935 0.6816-0.7158 (  6564 PWs)   bands (ev):

   -32.9474 -32.9474   1.0651   1.0692   1.7533   1.7533   4.0089   4.0089
     8.7258   8.7258   9.9609   9.9651  12.3995  12.3995  16.1888  16.1889
    16.4282  16.6279  16.6309

          k = 0.0000 0.2272-0.2386 (  6557 PWs)   bands (ev):

   -32.9518 -32.9443  -2.1879   2.8034   3.2991   4.0427   5.1057   6.7309
     6.8401   7.7039   9.0267   9.7988  10.2043  11.6019  12.4421  14.1509
    14.7204  15.3833  15.5919

          k = 0.0000 0.2272-0.4772 (  6570 PWs)   bands (ev):

   -32.9499 -32.9456  -1.4937   1.2179   3.6173   4.7754   5.2531   6.5380
     7.1109   7.3384   7.9409   9.0233  10.0896  10.4402  11.8898  13.4979
    14.4572  17.5574  17.6283

          k = 0.0000 0.4544-0.2386 (  6575 PWs)   bands (ev):

   -32.9504 -32.9455  -1.6641   1.2086   3.4095   3.4871   4.7772   7.1767
     8.0780   8.6229   9.3298   9.8432  11.0331  11.4378  13.4601  13.7506
    14.0131  14.1395  15.8699

          k = 0.0000 0.4544-0.4772 (  6556 PWs)   bands (ev):

   -32.9491 -32.9462  -0.9651   1.4496   2.2499   4.0167   4.1471   6.1772
     7.0312   7.4001   9.5253  10.8507  11.6854  12.1691  13.0515  14.5235
    14.7861  15.4411  15.9399

          k =-0.1967 0.5680-0.2386 (  6584 PWs)   bands (ev):

   -32.9494 -32.9465  -1.2342   0.7190   1.9416   4.5582   5.3677   6.9813
     7.4474   8.4657  10.2077  10.4151  11.4481  11.9655  12.5093  13.4637
    14.0184  14.9064  15.8312

          k =-0.1967 0.5680-0.4772 (  6569 PWs)   bands (ev):

   -32.9484 -32.9468  -0.5190   1.2301   2.1110   2.8343   4.4563   5.7437
     6.9000   8.3149   9.9777  11.2962  12.6987  13.1788  13.6709  13.9169
    14.8147  15.1836  15.7078

     the Fermi energy is    13.5592 ev

!    total energy              =     -79.20214296 Ry
     estimated scf accuracy    <          1.1E-11 Ry
     smearing contrib. (-TS)   =      -0.00228672 Ry
     internal energy E=F+TS    =     -79.19985624 Ry

     The total energy is F=E-TS. E is the sum of the following terms:
     one-electron contribution =      22.15643264 Ry
     hartree contribution      =       5.81781932 Ry
     xc contribution           =     -27.03036091 Ry
     ewald contribution        =     -80.14374728 Ry

     convergence has been achieved in  10 iterations

     Forces acting on atoms (cartesian axes, Ry/au):

     atom    1 type  1   force =     0.00000000   -0.00056983    0.00023331
     atom    2 type  1   force =    -0.00000000    0.00056983   -0.00023331
     atom    3 type  1   force =     0.00049349    0.00028492    0.00023331
     atom    4 type  1   force =    -0.00049349   -0.00028492   -0.00023331
     atom    5 type  1   force =    -0.00049349    0.00028492    0.00023331
     atom    6 type  1   force =     0.00049349   -0.00028492   -0.00023331
     atom    7 type  2   force =     0.00000000    0.00000000   -0.00022621
     atom    8 type  2   force =     0.00000000   -0.00000000    0.00022621
     The non-local contrib.  to forces
     atom    1 type  1   force =     0.00000000   -0.02764200    0.00031805
     atom    2 type  1   force =     0.00000000    0.02764200   -0.00031805
     atom    3 type  1   force =     0.02393867    0.01382100    0.00031805
     atom    4 type  1   force =    -0.02393867   -0.01382100   -0.00031805
     atom    5 type  1   force =    -0.02393867    0.01382100    0.00031805
     atom    6 type  1   force =     0.02393867   -0.01382100   -0.00031805
     atom    7 type  2   force =     0.00000000   -0.00000000   -0.00006787
     atom    8 type  2   force =     0.00000000    0.00000000    0.00006787
     The ionic contribution  to forces
     atom    1 type  1   force =     0.00000006    0.11551587    0.00259803
     atom    2 type  1   force =    -0.00000006   -0.11551587   -0.00259803
     atom    3 type  1   force =    -0.10003965   -0.05775799    0.00259803
     atom    4 type  1   force =     0.10003965    0.05775799   -0.00259803
     atom    5 type  1   force =     0.10003965   -0.05775792    0.00259803
     atom    6 type  1   force =    -0.10003965    0.05775792   -0.00259803
     atom    7 type  2   force =     0.00000006   -0.00000004   -0.00246487
     atom    8 type  2   force =    -0.00000006    0.00000004    0.00246487
     The local contribution  to forces
     atom    1 type  1   force =     0.00000001   -0.08921367   -0.00265618
     atom    2 type  1   force =    -0.00000001    0.08921367    0.00265618
     atom    3 type  1   force =     0.07726130    0.04460684   -0.00265618
     atom    4 type  1   force =    -0.07726130   -0.04460684    0.00265618
     atom    5 type  1   force =    -0.07726131    0.04460682   -0.00265618
     atom    6 type  1   force =     0.07726131   -0.04460682    0.00265618
     atom    7 type  2   force =     0.00000088   -0.00000051    0.00230655
     atom    8 type  2   force =    -0.00000088    0.00000051   -0.00230655
     The core correction contribution to forces
     atom    1 type  1   force =     0.00000000    0.00076917   -0.00002657
     atom    2 type  1   force =    -0.00000000   -0.00076917    0.00002657
     atom    3 type  1   force =    -0.00066612   -0.00038458   -0.00002657
     atom    4 type  1   force =     0.00066612    0.00038458    0.00002657
     atom    5 type  1   force =     0.00066612   -0.00038459   -0.00002657
     atom    6 type  1   force =    -0.00066612    0.00038459    0.00002657
     atom    7 type  2   force =     0.00000000    0.00000000    0.00000000
     atom    8 type  2   force =     0.00000000    0.00000000    0.00000000
     The Hubbard contrib.    to forces
     atom    1 type  1   force =     0.00000000    0.00000000    0.00000000
     atom    2 type  1   force =     0.00000000    0.00000000    0.00000000
     atom    3 type  1   force =     0.00000000    0.00000000    0.00000000
     atom    4 type  1   force =     0.00000000    0.00000000    0.00000000
     atom    5 type  1   force =     0.00000000    0.00000000    0.00000000
     atom    6 type  1   force =     0.00000000    0.00000000    0.00000000
     atom    7 type  2   force =     0.00000000    0.00000000    0.00000000
     atom    8 type  2   force =     0.00000000    0.00000000    0.00000000
     The SCF correction term to forces
     atom    1 type  1   force =    -0.00000000    0.00000082   -0.00000002
     atom    2 type  1   force =     0.00000000   -0.00000082    0.00000002
     atom    3 type  1   force =    -0.00000071   -0.00000041   -0.00000002
     atom    4 type  1   force =     0.00000071    0.00000041    0.00000002
     atom    5 type  1   force =     0.00000071   -0.00000041   -0.00000002
     atom    6 type  1   force =    -0.00000071    0.00000041    0.00000002
     atom    7 type  2   force =    -0.00000000    0.00000000   -0.00000002
     atom    8 type  2   force =     0.00000000   -0.00000000    0.00000002

     Total force =     0.001542     Total SCF correction =     0.000002


     Computing stress (Cartesian axis) and pressure

          total   stress  (Ry/bohr**3)                   (kbar)     P=      499.53
   0.00339514   0.00000000   0.00000000          499.44        0.00        0.00
   0.00000000   0.00339514   0.00000000            0.00      499.44        0.00
  -0.00000000  -0.00000000   0.00339687           -0.00       -0.00      499.70


     Writing all to output data dir ./output/SiLi.save/

     init_run     :      3.02s CPU      4.72s WALL (       2 calls)
     electrons    :    386.44s CPU    431.03s WALL (      23 calls)
     update_pot   :     21.79s CPU     22.06s WALL (      21 calls)
     forces       :     18.44s CPU     18.72s WALL (      23 calls)
     stress       :    105.54s CPU    109.24s WALL (      23 calls)

     Called by init_run:
     wfcinit      :      1.53s CPU      2.66s WALL (       2 calls)
     potinit      :      0.74s CPU      1.01s WALL (       2 calls)
     hinit0       :      0.61s CPU      0.73s WALL (       2 calls)

     Called by electrons:
     c_bands      :    348.32s CPU    386.39s WALL (     189 calls)
     sum_band     :     34.58s CPU     39.89s WALL (     189 calls)
     v_of_rho     :      3.49s CPU      4.47s WALL (     207 calls)
     mix_rho      :      0.29s CPU      0.40s WALL (     189 calls)

     Called by c_bands:
     init_us_2    :      8.73s CPU      9.93s WALL (   14484 calls)
     init_us_2:cp :      8.69s CPU      9.91s WALL (   14484 calls)
     cegterg      :    317.71s CPU    352.75s WALL (    6426 calls)

     Called by *egterg:
     cdiaghg      :     13.34s CPU     13.77s WALL (   29993 calls)
     h_psi        :    261.58s CPU    296.56s WALL (   30945 calls)
     g_psi        :      1.46s CPU      1.50s WALL (   24451 calls)

     Called by h_psi:
     h_psi:calbec :     35.45s CPU     37.43s WALL (   30945 calls)
     vloc_psi     :    193.47s CPU    225.86s WALL (   30945 calls)
     add_vuspsi   :     31.54s CPU     32.12s WALL (   30945 calls)

     General routines
     calbec       :     42.43s CPU     44.50s WALL (   34855 calls)
     fft          :      1.96s CPU      3.18s WALL (    2648 calls)
     ffts         :      0.10s CPU      0.18s WALL (     189 calls)
     fftw         :    193.33s CPU    225.76s WALL (  906168 calls)

     Parallel routines

     PWSCF        :   8m55.91s CPU   9m47.26s WALL


   This run was terminated on:  17:39:27  29Dec2024            

=------------------------------------------------------------------------------=
   JOB DONE.
=------------------------------------------------------------------------------=
