
     Program PWSCF v.7.2 starts on 29Dec2024 at 10:59: 4 

     This program is part of the open-source Quantum ESPRESSO suite
     for quantum simulation of materials; please cite
         "P. Giannozzi et al., J. Phys.:Condens. Matter 21 395502 (2009);
         "P. Giannozzi et al., J. Phys.:Condens. Matter 29 465901 (2017);
         "P. Giannozzi et al., J. Chem. Phys. 152 154105 (2020);
          URL http://www.quantum-espresso.org", 
     in publications or presentations arising from this work. More details at
     http://www.quantum-espresso.org/quote

     Parallel version (MPI & OpenMP), running on       8 processor cores
     Number of MPI processes:                 8
     Threads/MPI process:                     1

     MPI processes distributed on     1 nodes
     481738 MiB available memory on the printing compute node when the environment starts

     Waiting for input...
     Reading input from standard input

     Current dimensions of program PWSCF are:
     Max number of different atomic species (ntypx) = 10
     Max number of k-points (npk) =  40000
     Max angular momentum in pseudopotentials (lmaxx) =  4

     R & G space division:  proc/nbgrp/npool/nimage =       8
     Subspace diagonalization in iterative solution of the eigenvalue problem:
     a serial algorithm will be used


     Parallelization info
     --------------------
     sticks:   dense  smooth     PW     G-vecs:    dense   smooth      PW
     Min         237     237     75                 6063     6063    1097
     Max         238     238     76                 6065     6065    1100
     Sum        1899    1899    607                48511    48511    8787

     Using Slab Decomposition



     bravais-lattice index     =            7
     lattice parameter (alat)  =       7.1913  a.u.
     unit-cell volume          =     502.2133 (a.u.)^3
     number of atoms/cell      =            4
     number of atomic types    =            2
     number of electrons       =        15.00
     number of Kohn-Sham states=           12
     kinetic-energy cutoff     =      80.0000  Ry
     charge density cutoff     =     320.0000  Ry
     scf convergence threshold =      1.0E-08
     mixing beta               =       0.7000
     number of iterations used =            8  plain     mixing
     energy convergence thresh.=      1.0E-04
     force convergence thresh. =      1.0E-03
     press convergence thresh. =      1.0E+00
     Exchange-correlation= PBE
                           (   1   4   3   4   0   0   0)
     nstep                     =           50


     celldm(1)=   7.191331  celldm(2)=   0.000000  celldm(3)=   2.700787
     celldm(4)=   0.000000  celldm(5)=   0.000000  celldm(6)=   0.000000

     crystal axes: (cart. coord. in units of alat)
               a(1) = (   0.500000  -0.500000   1.350394 )  
               a(2) = (   0.500000   0.500000   1.350394 )  
               a(3) = (  -0.500000  -0.500000   1.350394 )  

     reciprocal axes: (cart. coord. in units 2 pi/alat)
               b(1) = (  1.000000 -1.000000  0.000000 )  
               b(2) = (  0.000000  1.000000  0.370262 )  
               b(3) = ( -1.000000  0.000000  0.370262 )  


     PseudoPot. # 1 for Si read from file:
     ../pseudo/Si_ONCV_PBE_sr.upf
     MD5 check sum: e543d271109d17c80368dfa7c482276d
     Pseudo is Norm-conserving + core correction, Zval =  4.0
     Generated using ONCVPSP code by D. R. Hamann
     Using radial grid of 1510 points,  6 beta functions with: 
                l(1) =   0
                l(2) =   0
                l(3) =   1
                l(4) =   1
                l(5) =   2
                l(6) =   2

     PseudoPot. # 2 for Li read from file:
     ../pseudo/Li_ONCV_PBE_sr.upf
     MD5 check sum: 50ff420e78310ffa21704f3361e624a4
     Pseudo is Norm-conserving, Zval =  3.0
     Generated using ONCVPSP code by D. R. Hamann
     Using radial grid of 1944 points,  4 beta functions with: 
                l(1) =   0
                l(2) =   0
                l(3) =   1
                l(4) =   1

     atomic species   valence    mass     pseudopotential
        Si             4.00    28.08550     Si( 1.00)
        Li             3.00     6.94100     Li( 1.00)

      8 Sym. Ops. (no inversion) found



   Cartesian axes

     site n.     atom                  positions (alat units)
         1           Si  tau(   1) = (  -0.0000000   0.5000000   0.6942023  )
         2           Si  tau(   2) = (   0.5000000   0.0000000   0.6942023  )
         3           Si  tau(   3) = (   0.0000000   0.0000000   0.2678182  )
         4           Li  tau(   4) = (   0.0000000   0.0000000   2.3902739  )

     number of k points=   149  Marzari-Vanderbilt smearing, width (Ry)=  0.0200

     Number of k-points >= 100: set verbosity='high' to print them.

     Dense  grid:    48511 G-vectors     FFT dimensions: (  64,  64,  64)

     Estimated max dynamical RAM per process >      38.57 MB

     Estimated total dynamical RAM >     308.60 MB

     Initial potential from superposition of free atoms

     starting charge      14.9936, renormalised to      15.0000
     Starting wfcs are   14 randomized atomic wfcs

     total cpu time spent up to now is        7.1 secs

     Self-consistent Calculation

     iteration #  1     ecut=    80.00 Ry     beta= 0.70
     Davidson diagonalization with overlap
     ethr =  1.00E-02,  avg # of iterations =  4.3

     Threshold (ethr) on eigenvalues was too large:
     Diagonalizing with lowered threshold

     Davidson diagonalization with overlap
     ethr =  5.90E-04,  avg # of iterations =  3.4

     total cpu time spent up to now is       15.9 secs

     total energy              =     -39.63540694 Ry
     estimated scf accuracy    <       0.09408434 Ry

     iteration #  2     ecut=    80.00 Ry     beta= 0.70
     Davidson diagonalization with overlap
     ethr =  6.27E-04,  avg # of iterations =  2.5

     total cpu time spent up to now is       19.7 secs

     total energy              =     -39.64398640 Ry
     estimated scf accuracy    <       0.03936667 Ry

     iteration #  3     ecut=    80.00 Ry     beta= 0.70
     Davidson diagonalization with overlap
     ethr =  2.62E-04,  avg # of iterations =  2.2

     total cpu time spent up to now is       23.3 secs

     total energy              =     -39.65443149 Ry
     estimated scf accuracy    <       0.00692781 Ry

     iteration #  4     ecut=    80.00 Ry     beta= 0.70
     Davidson diagonalization with overlap
     ethr =  4.62E-05,  avg # of iterations =  3.3

     total cpu time spent up to now is       26.8 secs

     total energy              =     -39.65574546 Ry
     estimated scf accuracy    <       0.00074107 Ry

     iteration #  5     ecut=    80.00 Ry     beta= 0.70
     Davidson diagonalization with overlap
     c_bands:  1 eigenvalues not converged
     ethr =  4.94E-06,  avg # of iterations =  4.4

     total cpu time spent up to now is       30.9 secs

     total energy              =     -39.65592200 Ry
     estimated scf accuracy    <       0.00001761 Ry

     iteration #  6     ecut=    80.00 Ry     beta= 0.70
     Davidson diagonalization with overlap
     ethr =  1.17E-07,  avg # of iterations =  2.5

     total cpu time spent up to now is       34.5 secs

     total energy              =     -39.65592569 Ry
     estimated scf accuracy    <       0.00000104 Ry

     iteration #  7     ecut=    80.00 Ry     beta= 0.70
     Davidson diagonalization with overlap
     ethr =  6.91E-09,  avg # of iterations =  2.9

     total cpu time spent up to now is       38.3 secs

     total energy              =     -39.65592612 Ry
     estimated scf accuracy    <       0.00000005 Ry

     iteration #  8     ecut=    80.00 Ry     beta= 0.70
     Davidson diagonalization with overlap
     ethr =  3.53E-10,  avg # of iterations =  3.0

     total cpu time spent up to now is       42.2 secs

     End of self-consistent calculation

     Number of k-points >= 100: set verbosity='high' to print the bands.

     the Fermi energy is     4.9165 ev

!    total energy              =     -39.65592614 Ry
     estimated scf accuracy    <          2.5E-09 Ry
     smearing contrib. (-TS)   =       0.00110351 Ry
     internal energy E=F+TS    =     -39.65702966 Ry

     The total energy is F=E-TS. E is the sum of the following terms:
     one-electron contribution =      -5.10718220 Ry
     hartree contribution      =       6.84579087 Ry
     xc contribution           =     -12.62952195 Ry
     ewald contribution        =     -28.76611637 Ry

     convergence has been achieved in   8 iterations

     Forces acting on atoms (cartesian axes, Ry/au):

     atom    1 type  1   force =     0.00000000    0.00000000   -0.02987331
     atom    2 type  1   force =     0.00000000    0.00000000   -0.02987331
     atom    3 type  1   force =     0.00000000    0.00000000    0.02509993
     atom    4 type  2   force =     0.00000000   -0.00000000    0.03464668
     The non-local contrib.  to forces
     atom    1 type  1   force =     0.00000000   -0.00000000   -0.12909143
     atom    2 type  1   force =     0.00000000    0.00000000   -0.12909143
     atom    3 type  1   force =     0.00000000    0.00000000    0.21423419
     atom    4 type  2   force =     0.00000000    0.00000000   -0.00875614
     The ionic contribution  to forces
     atom    1 type  1   force =     0.00000000    0.00000000    0.12183756
     atom    2 type  1   force =    -0.00000000   -0.00000000    0.12183756
     atom    3 type  1   force =     0.00000000    0.00000000   -1.43050403
     atom    4 type  2   force =    -0.00000000    0.00000000    1.18682892
     The local contribution  to forces
     atom    1 type  1   force =    -0.00000000   -0.00000000   -0.02902817
     atom    2 type  1   force =    -0.00000000    0.00000000   -0.02902817
     atom    3 type  1   force =    -0.00000000   -0.00000000    1.25074073
     atom    4 type  2   force =    -0.00000000   -0.00000000   -1.14345778
     The core correction contribution to forces
     atom    1 type  1   force =    -0.00000000   -0.00000000    0.00642530
     atom    2 type  1   force =     0.00000000   -0.00000000    0.00642530
     atom    3 type  1   force =    -0.00000000   -0.00000000   -0.00933812
     atom    4 type  2   force =     0.00000000    0.00000000    0.00000000
     The Hubbard contrib.    to forces
     atom    1 type  1   force =     0.00000000    0.00000000    0.00000000
     atom    2 type  1   force =     0.00000000    0.00000000    0.00000000
     atom    3 type  1   force =     0.00000000    0.00000000    0.00000000
     atom    4 type  2   force =     0.00000000    0.00000000    0.00000000
     The SCF correction term to forces
     atom    1 type  1   force =     0.00000000    0.00000000   -0.00001467
     atom    2 type  1   force =    -0.00000000   -0.00000000   -0.00001467
     atom    3 type  1   force =    -0.00000000    0.00000000   -0.00003094
     atom    4 type  2   force =     0.00000000    0.00000000    0.00003358

     Total force =     0.060127     Total SCF correction =     0.000050


     Computing stress (Cartesian axis) and pressure

          total   stress  (Ry/bohr**3)                   (kbar)     P=       45.80
  -0.00010732  -0.00000000   0.00000000          -15.79       -0.00        0.00
   0.00000000  -0.00010732  -0.00000000            0.00      -15.79       -0.00
  -0.00000000  -0.00000000   0.00114857           -0.00       -0.00      168.96


     BFGS Geometry Optimization
     Energy error            =      0.0E+00 Ry
     Gradient error          =      3.5E-02 Ry/Bohr
     Cell gradient error     =      5.2E+02 kbar

     number of scf cycles    =   1
     number of bfgs steps    =   0

     enthalpy           new  =     -37.9489378179 Ry

     new trust radius        =       0.3928769625 bohr
ibrav =      7
 celldm(1) =      6.56096635
 celldm(3) =      2.79373166
Input lattice vectors:
     0.45617192    -0.45617192     1.27442193
     0.45617192     0.45617192     1.27442193
    -0.45617192    -0.45617192     1.27442193
New lattice vectors in INITIAL alat:
     0.45617192    -0.45617192     1.27442193
     0.45617192     0.45617192     1.27442193
    -0.45617192    -0.45617192     1.27442193
New lattice vectors in NEW alat (for information only):
     0.50000000    -0.50000000     1.39686583
     0.50000000     0.50000000     1.39686583
    -0.50000000    -0.50000000     1.39686583
Discrepancy in bohr =     0.000000    0.000000    0.000000
     new conv_thr            =       0.0000000100 Ry

     new unit-cell volume =    394.51010 a.u.^3 (    58.46037 Ang^3 )
     density =      2.59042 g/cm^3

CELL_PARAMETERS (alat=  7.19133082)
   0.456171918  -0.456171918   1.274421929
   0.456171918   0.456171918   1.274421929
  -0.456171918  -0.456171918   1.274421929

ATOMIC_POSITIONS (crystal)
Si           -0.5000000000        0.7554989034        0.2554989034
Si            0.5000000000        0.2554989034       -0.2445010966
Si           -0.0000000000        0.1004553285        0.1004553285
Li           -0.0000000000        0.8868123647        0.8868123647



     Writing config-only to output data dir ./output/SiLi.save/
     NEW-OLD atomic charge density approx. for the potential
     extrapolated charge   10.90667, renormalised to   15.00000

     total cpu time spent up to now is       46.6 secs

     Self-consistent Calculation

     iteration #  1     ecut=    80.00 Ry     beta= 0.70
     Davidson diagonalization with overlap
     c_bands:  1 eigenvalues not converged
     c_bands:  1 eigenvalues not converged
     c_bands:  1 eigenvalues not converged
     c_bands:  1 eigenvalues not converged
     c_bands:  1 eigenvalues not converged
     c_bands:  1 eigenvalues not converged
     c_bands:  1 eigenvalues not converged
     c_bands:  1 eigenvalues not converged
     c_bands:  1 eigenvalues not converged
     c_bands:  2 eigenvalues not converged
     c_bands:  2 eigenvalues not converged
     c_bands:  1 eigenvalues not converged
     c_bands:  1 eigenvalues not converged
     c_bands:  1 eigenvalues not converged
     c_bands:  1 eigenvalues not converged
     c_bands:  1 eigenvalues not converged
     c_bands:  2 eigenvalues not converged
     c_bands:  1 eigenvalues not converged
     c_bands:  1 eigenvalues not converged
     c_bands:  1 eigenvalues not converged
     c_bands:  1 eigenvalues not converged
     c_bands:  1 eigenvalues not converged
     c_bands:  1 eigenvalues not converged
     c_bands:  1 eigenvalues not converged
     c_bands:  2 eigenvalues not converged
     c_bands:  1 eigenvalues not converged
     c_bands:  1 eigenvalues not converged
     c_bands:  1 eigenvalues not converged
     c_bands:  1 eigenvalues not converged
     c_bands:  1 eigenvalues not converged
     c_bands:  1 eigenvalues not converged
     c_bands:  1 eigenvalues not converged
     c_bands:  1 eigenvalues not converged
     c_bands:  1 eigenvalues not converged
     c_bands:  1 eigenvalues not converged
     c_bands:  1 eigenvalues not converged
     c_bands:  1 eigenvalues not converged
     c_bands:  1 eigenvalues not converged
     c_bands:  1 eigenvalues not converged
     c_bands:  1 eigenvalues not converged
     c_bands:  1 eigenvalues not converged
     c_bands:  1 eigenvalues not converged
     c_bands:  1 eigenvalues not converged
     c_bands:  1 eigenvalues not converged
     c_bands:  1 eigenvalues not converged
     c_bands:  1 eigenvalues not converged
     c_bands:  1 eigenvalues not converged
     c_bands:  2 eigenvalues not converged
     c_bands:  1 eigenvalues not converged
     c_bands:  1 eigenvalues not converged
     c_bands:  1 eigenvalues not converged
     c_bands:  1 eigenvalues not converged
     c_bands:  1 eigenvalues not converged
     c_bands:  1 eigenvalues not converged
     ethr =  1.00E-06,  avg # of iterations = 16.6

     total cpu time spent up to now is       60.2 secs

     total energy              =     -38.79441495 Ry
     estimated scf accuracy    <       0.68048853 Ry

     iteration #  2     ecut=    80.00 Ry     beta= 0.70
     Davidson diagonalization with overlap
     ethr =  4.54E-03,  avg # of iterations =  3.3

     total cpu time spent up to now is       64.6 secs

     total energy              =     -39.37353116 Ry
     estimated scf accuracy    <       2.39802650 Ry

     iteration #  3     ecut=    80.00 Ry     beta= 0.70
     Davidson diagonalization with overlap
     ethr =  4.54E-03,  avg # of iterations =  2.0

     total cpu time spent up to now is       67.8 secs

     total energy              =     -39.56594167 Ry
     estimated scf accuracy    <       0.19766749 Ry

     iteration #  4     ecut=    80.00 Ry     beta= 0.70
     Davidson diagonalization with overlap
     ethr =  1.32E-03,  avg # of iterations =  1.5

     total cpu time spent up to now is       70.6 secs

     total energy              =     -39.55995869 Ry
     estimated scf accuracy    <       0.06038920 Ry

     iteration #  5     ecut=    80.00 Ry     beta= 0.70
     Davidson diagonalization with overlap
     ethr =  4.03E-04,  avg # of iterations =  1.9

     total cpu time spent up to now is       73.5 secs

     total energy              =     -39.56083469 Ry
     estimated scf accuracy    <       0.01086067 Ry

     iteration #  6     ecut=    80.00 Ry     beta= 0.70
     Davidson diagonalization with overlap
     ethr =  7.24E-05,  avg # of iterations =  4.3

     total cpu time spent up to now is       77.5 secs

     total energy              =     -39.56434233 Ry
     estimated scf accuracy    <       0.00016085 Ry

     iteration #  7     ecut=    80.00 Ry     beta= 0.70
     Davidson diagonalization with overlap
     c_bands:  1 eigenvalues not converged
     ethr =  1.07E-06,  avg # of iterations =  6.7

     total cpu time spent up to now is       82.4 secs

     total energy              =     -39.56445260 Ry
     estimated scf accuracy    <       0.00000258 Ry

     iteration #  8     ecut=    80.00 Ry     beta= 0.70
     Davidson diagonalization with overlap
     ethr =  1.72E-08,  avg # of iterations =  2.7

     total cpu time spent up to now is       85.7 secs

     total energy              =     -39.56445328 Ry
     estimated scf accuracy    <       0.00000030 Ry

     iteration #  9     ecut=    80.00 Ry     beta= 0.70
     Davidson diagonalization with overlap
     ethr =  2.01E-09,  avg # of iterations =  2.3

     total cpu time spent up to now is       89.0 secs

     total energy              =     -39.56445328 Ry
     estimated scf accuracy    <       0.00000031 Ry

     iteration # 10     ecut=    80.00 Ry     beta= 0.70
     Davidson diagonalization with overlap
     ethr =  2.01E-09,  avg # of iterations =  1.4

     total cpu time spent up to now is       91.7 secs

     End of self-consistent calculation

     Number of k-points >= 100: set verbosity='high' to print the bands.

     the Fermi energy is     7.4048 ev

!    total energy              =     -39.56445332 Ry
     estimated scf accuracy    <          6.4E-09 Ry
     smearing contrib. (-TS)   =       0.00107754 Ry
     internal energy E=F+TS    =     -39.56553086 Ry

     The total energy is F=E-TS. E is the sum of the following terms:
     one-electron contribution =      -1.98514538 Ry
     hartree contribution      =       6.58358646 Ry
     xc contribution           =     -13.11415700 Ry
     ewald contribution        =     -31.04981494 Ry

     convergence has been achieved in  10 iterations

     Forces acting on atoms (cartesian axes, Ry/au):

     atom    1 type  1   force =    -0.00000000    0.00000000    0.00701583
     atom    2 type  1   force =    -0.00000000   -0.00000000    0.00701583
     atom    3 type  1   force =    -0.00000000   -0.00000000   -0.07777214
     atom    4 type  2   force =     0.00000000    0.00000000    0.06374047
     The non-local contrib.  to forces
     atom    1 type  1   force =    -0.00000000   -0.00000000   -0.07100099
     atom    2 type  1   force =    -0.00000000   -0.00000000   -0.07100099
     atom    3 type  1   force =    -0.00000000   -0.00000000    0.11530742
     atom    4 type  2   force =     0.00000000    0.00000000   -0.02097558
     The ionic contribution  to forces
     atom    1 type  1   force =    -0.00000000   -0.00000000    0.19353718
     atom    2 type  1   force =    -0.00000000   -0.00000000    0.19353718
     atom    3 type  1   force =    -0.00000000   -0.00000000   -1.92095516
     atom    4 type  2   force =    -0.00000000   -0.00000000    1.53388080
     The local contribution  to forces
     atom    1 type  1   force =     0.00000000   -0.00000000   -0.11711376
     atom    2 type  1   force =     0.00000000   -0.00000000   -0.11711376
     atom    3 type  1   force =    -0.00000000    0.00000000    1.72815960
     atom    4 type  2   force =    -0.00000000   -0.00000000   -1.44927086
     The core correction contribution to forces
     atom    1 type  1   force =     0.00000000   -0.00000000    0.00157977
     atom    2 type  1   force =    -0.00000000    0.00000000    0.00157977
     atom    3 type  1   force =     0.00000000    0.00000000   -0.00021518
     atom    4 type  2   force =     0.00000000    0.00000000    0.00000000
     The Hubbard contrib.    to forces
     atom    1 type  1   force =     0.00000000    0.00000000    0.00000000
     atom    2 type  1   force =     0.00000000    0.00000000    0.00000000
     atom    3 type  1   force =     0.00000000    0.00000000    0.00000000
     atom    4 type  2   force =     0.00000000    0.00000000    0.00000000
     The SCF correction term to forces
     atom    1 type  1   force =     0.00000000   -0.00000000    0.00000632
     atom    2 type  1   force =    -0.00000000    0.00000000    0.00000632
     atom    3 type  1   force =     0.00000000   -0.00000000   -0.00007613
     atom    4 type  2   force =     0.00000000   -0.00000000    0.00009880

     Total force =     0.101044     Total SCF correction =     0.000125


     Computing stress (Cartesian axis) and pressure

          total   stress  (Ry/bohr**3)                   (kbar)     P=      300.12
   0.00144171   0.00000000   0.00000000          212.08        0.00        0.00
   0.00000000   0.00144171  -0.00000000            0.00      212.08       -0.00
   0.00000000  -0.00000000   0.00323718            0.00       -0.00      476.21

     Energy error            =      2.7E-01 Ry
     Gradient error          =      7.8E-02 Ry/Bohr
     Cell gradient error     =      2.9E+02 kbar

     number of scf cycles    =   2
     number of bfgs steps    =   1

     enthalpy           old  =     -37.9489378179 Ry
     enthalpy           new  =     -38.2235407464 Ry

     CASE: enthalpy          _new < enthalpy          _old

     new trust radius        =       0.3628206613 bohr
ibrav =      7
 celldm(1) =      5.96172639
 celldm(3) =      3.02980550
Input lattice vectors:
     0.41450787    -0.41450787     1.25587821
     0.41450787     0.41450787     1.25587821
    -0.41450787    -0.41450787     1.25587821
New lattice vectors in INITIAL alat:
     0.41450787    -0.41450787     1.25587821
     0.41450787     0.41450787     1.25587821
    -0.41450787    -0.41450787     1.25587821
New lattice vectors in NEW alat (for information only):
     0.50000000    -0.50000000     1.51490275
     0.50000000     0.50000000     1.51490275
    -0.50000000    -0.50000000     1.51490275
Discrepancy in bohr =     0.000000    0.000000    0.000000
     new conv_thr            =       0.0000000078 Ry

     new unit-cell volume =    320.99693 a.u.^3 (    47.56684 Ang^3 )
     density =      3.18367 g/cm^3

CELL_PARAMETERS (alat=  7.19133082)
   0.414507866  -0.414507866   1.255878214
   0.414507866   0.414507866   1.255878214
  -0.414507866  -0.414507866   1.255878214

ATOMIC_POSITIONS (crystal)
Si           -0.5000000000        0.7558503734        0.2558503734
Si            0.5000000000        0.2558503734       -0.2441496266
Si           -0.0000000000        0.0942958631        0.0942958631
Li           -0.0000000000        0.8922688900        0.8922688900



     Writing config-only to output data dir ./output/SiLi.save/
     NEW-OLD atomic charge density approx. for the potential
     extrapolated charge   11.56624, renormalised to   15.00000

     total cpu time spent up to now is       95.6 secs

     Self-consistent Calculation

     iteration #  1     ecut=    80.00 Ry     beta= 0.70
     Davidson diagonalization with overlap
     c_bands:  1 eigenvalues not converged
     c_bands:  1 eigenvalues not converged
     c_bands:  1 eigenvalues not converged
     c_bands:  1 eigenvalues not converged
     c_bands:  1 eigenvalues not converged
     c_bands:  1 eigenvalues not converged
     c_bands:  2 eigenvalues not converged
     c_bands:  1 eigenvalues not converged
     c_bands:  1 eigenvalues not converged
     c_bands:  1 eigenvalues not converged
     c_bands:  1 eigenvalues not converged
     c_bands:  1 eigenvalues not converged
     c_bands:  1 eigenvalues not converged
     c_bands:  1 eigenvalues not converged
     c_bands:  1 eigenvalues not converged
     c_bands:  1 eigenvalues not converged
     c_bands:  1 eigenvalues not converged
     ethr =  1.00E-06,  avg # of iterations = 14.8

     total cpu time spent up to now is      107.2 secs

     total energy              =     -38.62080019 Ry
     estimated scf accuracy    <       0.69417432 Ry

     iteration #  2     ecut=    80.00 Ry     beta= 0.70
     Davidson diagonalization with overlap
     ethr =  4.63E-03,  avg # of iterations =  3.2

     total cpu time spent up to now is      111.4 secs

     total energy              =     -39.10249236 Ry
     estimated scf accuracy    <       2.93310078 Ry

     iteration #  3     ecut=    80.00 Ry     beta= 0.70
     Davidson diagonalization with overlap
     ethr =  4.63E-03,  avg # of iterations =  2.0

     total cpu time spent up to now is      114.5 secs

     total energy              =     -39.37175540 Ry
     estimated scf accuracy    <       0.18727567 Ry

     iteration #  4     ecut=    80.00 Ry     beta= 0.70
     Davidson diagonalization with overlap
     ethr =  1.25E-03,  avg # of iterations =  1.7

     total cpu time spent up to now is      117.3 secs

     total energy              =     -39.36618705 Ry
     estimated scf accuracy    <       0.05746294 Ry

     iteration #  5     ecut=    80.00 Ry     beta= 0.70
     Davidson diagonalization with overlap
     ethr =  3.83E-04,  avg # of iterations =  2.2

     total cpu time spent up to now is      120.3 secs

     total energy              =     -39.36912908 Ry
     estimated scf accuracy    <       0.00756443 Ry

     iteration #  6     ecut=    80.00 Ry     beta= 0.70
     Davidson diagonalization with overlap
     ethr =  5.04E-05,  avg # of iterations =  4.4

     total cpu time spent up to now is      124.3 secs

     total energy              =     -39.37143288 Ry
     estimated scf accuracy    <       0.00002371 Ry

     iteration #  7     ecut=    80.00 Ry     beta= 0.70
     Davidson diagonalization with overlap
     ethr =  1.58E-07,  avg # of iterations =  6.0

     total cpu time spent up to now is      129.3 secs

     total energy              =     -39.37147729 Ry
     estimated scf accuracy    <       0.00002128 Ry

     iteration #  8     ecut=    80.00 Ry     beta= 0.70
     Davidson diagonalization with overlap
     ethr =  1.42E-07,  avg # of iterations =  2.0

     total cpu time spent up to now is      132.3 secs

     total energy              =     -39.37148177 Ry
     estimated scf accuracy    <       0.00000009 Ry

     iteration #  9     ecut=    80.00 Ry     beta= 0.70
     Davidson diagonalization with overlap
     ethr =  5.91E-10,  avg # of iterations =  3.3

     total cpu time spent up to now is      135.8 secs

     total energy              =     -39.37148183 Ry
     estimated scf accuracy    <       0.00000007 Ry

     iteration # 10     ecut=    80.00 Ry     beta= 0.70
     Davidson diagonalization with overlap
     ethr =  4.94E-10,  avg # of iterations =  1.9

     total cpu time spent up to now is      138.7 secs

     End of self-consistent calculation

     Number of k-points >= 100: set verbosity='high' to print the bands.

     the Fermi energy is    10.2857 ev

!    total energy              =     -39.37148184 Ry
     estimated scf accuracy    <          1.3E-09 Ry
     smearing contrib. (-TS)   =      -0.00028552 Ry
     internal energy E=F+TS    =     -39.37119632 Ry

     The total energy is F=E-TS. E is the sum of the following terms:
     one-electron contribution =       1.24602148 Ry
     hartree contribution      =       6.31216544 Ry
     xc contribution           =     -13.56914570 Ry
     ewald contribution        =     -33.36023754 Ry

     convergence has been achieved in  10 iterations

     Forces acting on atoms (cartesian axes, Ry/au):

     atom    1 type  1   force =    -0.00000000   -0.00000000    0.01553310
     atom    2 type  1   force =     0.00000000   -0.00000000    0.01553310
     atom    3 type  1   force =     0.00000000   -0.00000000   -0.08733155
     atom    4 type  2   force =     0.00000000    0.00000000    0.05626535
     The non-local contrib.  to forces
     atom    1 type  1   force =     0.00000000    0.00000000   -0.04274347
     atom    2 type  1   force =     0.00000000    0.00000000   -0.04274347
     atom    3 type  1   force =    -0.00000000   -0.00000000    0.06365006
     atom    4 type  2   force =    -0.00000000    0.00000000   -0.02162262
     The ionic contribution  to forces
     atom    1 type  1   force =     0.00000000    0.00000000    0.16719320
     atom    2 type  1   force =    -0.00000000    0.00000000    0.16719320
     atom    3 type  1   force =     0.00000000    0.00000000   -2.20404306
     atom    4 type  2   force =    -0.00000000    0.00000000    1.86965666
     The local contribution  to forces
     atom    1 type  1   force =    -0.00000000    0.00000000   -0.10783758
     atom    2 type  1   force =     0.00000000    0.00000000   -0.10783758
     atom    3 type  1   force =     0.00000000    0.00000000    2.04789989
     atom    4 type  2   force =    -0.00000000   -0.00000000   -1.79181445
     The core correction contribution to forces
     atom    1 type  1   force =    -0.00000000   -0.00000000   -0.00108354
     atom    2 type  1   force =    -0.00000000   -0.00000000   -0.00108354
     atom    3 type  1   force =     0.00000000   -0.00000000    0.00519308
     atom    4 type  2   force =     0.00000000    0.00000000    0.00000000
     The Hubbard contrib.    to forces
     atom    1 type  1   force =     0.00000000    0.00000000    0.00000000
     atom    2 type  1   force =     0.00000000    0.00000000    0.00000000
     atom    3 type  1   force =     0.00000000    0.00000000    0.00000000
     atom    4 type  2   force =     0.00000000    0.00000000    0.00000000
     The SCF correction term to forces
     atom    1 type  1   force =     0.00000000   -0.00000000    0.00000214
     atom    2 type  1   force =     0.00000000    0.00000000    0.00000214
     atom    3 type  1   force =    -0.00000000    0.00000000   -0.00003386
     atom    4 type  2   force =     0.00000000   -0.00000000    0.00004341

     Total force =     0.106184     Total SCF correction =     0.000055


     Computing stress (Cartesian axis) and pressure

          total   stress  (Ry/bohr**3)                   (kbar)     P=      727.63
   0.00448650  -0.00000000  -0.00000000          659.99       -0.00       -0.00
  -0.00000000   0.00448650   0.00000000           -0.00      659.99        0.00
  -0.00000000  -0.00000000   0.00586592           -0.00       -0.00      862.91

     Energy error            =      5.7E-02 Ry
     Gradient error          =      8.7E-02 Ry/Bohr
     Cell gradient error     =      3.6E+02 kbar

     number of scf cycles    =   3
     number of bfgs steps    =   2

     enthalpy           old  =     -38.2235407464 Ry
     enthalpy           new  =     -38.2804354561 Ry

     CASE: enthalpy          _new < enthalpy          _old

     new trust radius        =       0.1053078574 bohr
ibrav =      7
 celldm(1) =      6.07819547
 celldm(3) =      3.05908485
Input lattice vectors:
     0.42260575    -0.42260575     1.29278684
     0.42260575     0.42260575     1.29278684
    -0.42260575    -0.42260575     1.29278684
New lattice vectors in INITIAL alat:
     0.42260575    -0.42260575     1.29278684
     0.42260575     0.42260575     1.29278684
    -0.42260575    -0.42260575     1.29278684
New lattice vectors in NEW alat (for information only):
     0.50000000    -0.50000000     1.52954243
     0.50000000     0.50000000     1.52954243
    -0.50000000    -0.50000000     1.52954243
Discrepancy in bohr =     0.000000    0.000000    0.000000
     new conv_thr            =       0.0000000087 Ry

     new unit-cell volume =    343.46739 a.u.^3 (    50.89662 Ang^3 )
     density =      2.97538 g/cm^3

CELL_PARAMETERS (alat=  7.19133082)
   0.422605747  -0.422605747   1.292786840
   0.422605747   0.422605747   1.292786840
  -0.422605747  -0.422605747   1.292786840

ATOMIC_POSITIONS (crystal)
Si           -0.5000000000        0.7562435739        0.2562435739
Si            0.5000000000        0.2562435739       -0.2437564261
Si           -0.0000000000        0.0919670703        0.0919670703
Li           -0.0000000000        0.8938112818        0.8938112818



     Writing config-only to output data dir ./output/SiLi.save/
     NEW-OLD atomic charge density approx. for the potential
     extrapolated charge   15.98092, renormalised to   15.00000

     total cpu time spent up to now is      142.5 secs

     Self-consistent Calculation

     iteration #  1     ecut=    80.00 Ry     beta= 0.70
     Davidson diagonalization with overlap
     c_bands:  1 eigenvalues not converged
     c_bands:  1 eigenvalues not converged
     ethr =  1.00E-06,  avg # of iterations = 11.2

     total cpu time spent up to now is      151.5 secs

     total energy              =     -39.41134947 Ry
     estimated scf accuracy    <       0.05028214 Ry

     iteration #  2     ecut=    80.00 Ry     beta= 0.70
     Davidson diagonalization with overlap
     ethr =  3.35E-04,  avg # of iterations =  3.6

     total cpu time spent up to now is      155.6 secs

     total energy              =     -39.46185449 Ry
     estimated scf accuracy    <       0.18826712 Ry

     iteration #  3     ecut=    80.00 Ry     beta= 0.70
     Davidson diagonalization with overlap
     ethr =  3.35E-04,  avg # of iterations =  2.0

     total cpu time spent up to now is      158.7 secs

     total energy              =     -39.47479181 Ry
     estimated scf accuracy    <       0.02144379 Ry

     iteration #  4     ecut=    80.00 Ry     beta= 0.70
     Davidson diagonalization with overlap
     ethr =  1.43E-04,  avg # of iterations =  1.2

     total cpu time spent up to now is      161.4 secs

     total energy              =     -39.47505178 Ry
     estimated scf accuracy    <       0.00953251 Ry

     iteration #  5     ecut=    80.00 Ry     beta= 0.70
     Davidson diagonalization with overlap
     ethr =  6.36E-05,  avg # of iterations =  1.1

     total cpu time spent up to now is      164.1 secs

     total energy              =     -39.47374258 Ry
     estimated scf accuracy    <       0.00779796 Ry

     iteration #  6     ecut=    80.00 Ry     beta= 0.70
     Davidson diagonalization with overlap
     ethr =  5.20E-05,  avg # of iterations =  1.5

     total cpu time spent up to now is      166.8 secs

     total energy              =     -39.47252045 Ry
     estimated scf accuracy    <       0.00337869 Ry

     iteration #  7     ecut=    80.00 Ry     beta= 0.70
     Davidson diagonalization with overlap
     ethr =  2.25E-05,  avg # of iterations =  2.7

     total cpu time spent up to now is      169.9 secs

     total energy              =     -39.47311545 Ry
     estimated scf accuracy    <       0.00004037 Ry

     iteration #  8     ecut=    80.00 Ry     beta= 0.70
     Davidson diagonalization with overlap
     ethr =  2.69E-07,  avg # of iterations =  4.9

     total cpu time spent up to now is      174.1 secs

     total energy              =     -39.47313703 Ry
     estimated scf accuracy    <       0.00001290 Ry

     iteration #  9     ecut=    80.00 Ry     beta= 0.70
     Davidson diagonalization with overlap
     ethr =  8.60E-08,  avg # of iterations =  1.8

     total cpu time spent up to now is      177.0 secs

     total energy              =     -39.47313860 Ry
     estimated scf accuracy    <       0.00000106 Ry

     iteration # 10     ecut=    80.00 Ry     beta= 0.70
     Davidson diagonalization with overlap
     ethr =  7.07E-09,  avg # of iterations =  2.2

     total cpu time spent up to now is      180.0 secs

     total energy              =     -39.47313880 Ry
     estimated scf accuracy    <       0.00000003 Ry

     iteration # 11     ecut=    80.00 Ry     beta= 0.70
     Davidson diagonalization with overlap
     ethr =  2.24E-10,  avg # of iterations =  4.0

     total cpu time spent up to now is      183.7 secs

     End of self-consistent calculation

     Number of k-points >= 100: set verbosity='high' to print the bands.

     the Fermi energy is     9.5375 ev

!    total energy              =     -39.47313881 Ry
     estimated scf accuracy    <          2.2E-09 Ry
     smearing contrib. (-TS)   =      -0.00039589 Ry
     internal energy E=F+TS    =     -39.47274292 Ry

     The total energy is F=E-TS. E is the sum of the following terms:
     one-electron contribution =       0.31843540 Ry
     hartree contribution      =       6.32749088 Ry
     xc contribution           =     -13.39565235 Ry
     ewald contribution        =     -32.72301685 Ry

     convergence has been achieved in  11 iterations

     Forces acting on atoms (cartesian axes, Ry/au):

     atom    1 type  1   force =     0.00000000   -0.00000000   -0.00800575
     atom    2 type  1   force =    -0.00000000   -0.00000000   -0.00800575
     atom    3 type  1   force =     0.00000000    0.00000000   -0.00873421
     atom    4 type  2   force =     0.00000000    0.00000000    0.02474572
     The non-local contrib.  to forces
     atom    1 type  1   force =    -0.00000000   -0.00000000   -0.06656791
     atom    2 type  1   force =    -0.00000000   -0.00000000   -0.06656791
     atom    3 type  1   force =    -0.00000000   -0.00000000    0.13525917
     atom    4 type  2   force =    -0.00000000    0.00000000   -0.01806670
     The ionic contribution  to forces
     atom    1 type  1   force =     0.00000000   -0.00000000    0.12552231
     atom    2 type  1   force =    -0.00000000    0.00000000    0.12552231
     atom    3 type  1   force =    -0.00000000    0.00000000   -1.97343160
     atom    4 type  2   force =    -0.00000000   -0.00000000    1.72238699
     The local contribution  to forces
     atom    1 type  1   force =     0.00000000   -0.00000000   -0.06793668
     atom    2 type  1   force =    -0.00000000    0.00000000   -0.06793668
     atom    3 type  1   force =     0.00000000    0.00000000    1.82995887
     atom    4 type  2   force =    -0.00000000   -0.00000000   -1.67961048
     The core correction contribution to forces
     atom    1 type  1   force =     0.00000000   -0.00000000    0.00098837
     atom    2 type  1   force =     0.00000000   -0.00000000    0.00098837
     atom    3 type  1   force =    -0.00000000   -0.00000000   -0.00049908
     atom    4 type  2   force =     0.00000000    0.00000000    0.00000000
     The Hubbard contrib.    to forces
     atom    1 type  1   force =     0.00000000    0.00000000    0.00000000
     atom    2 type  1   force =     0.00000000    0.00000000    0.00000000
     atom    3 type  1   force =     0.00000000    0.00000000    0.00000000
     atom    4 type  2   force =     0.00000000    0.00000000    0.00000000
     The SCF correction term to forces
     atom    1 type  1   force =    -0.00000000    0.00000000   -0.00001239
     atom    2 type  1   force =     0.00000000   -0.00000000   -0.00001239
     atom    3 type  1   force =    -0.00000000   -0.00000000   -0.00002212
     atom    4 type  2   force =     0.00000000    0.00000000    0.00003536

     Total force =     0.028580     Total SCF correction =     0.000045


     Computing stress (Cartesian axis) and pressure

          total   stress  (Ry/bohr**3)                   (kbar)     P=      534.76
   0.00322311  -0.00000000  -0.00000000          474.14       -0.00       -0.00
   0.00000000   0.00322311   0.00000000            0.00      474.14        0.00
   0.00000000   0.00000000   0.00445947            0.00        0.00      656.01

     Energy error            =      2.5E-02 Ry
     Gradient error          =      2.5E-02 Ry/Bohr
     Cell gradient error     =      1.6E+02 kbar

     number of scf cycles    =   4
     number of bfgs steps    =   3

     enthalpy           old  =     -38.2804354561 Ry
     enthalpy           new  =     -38.3057168664 Ry

     CASE: enthalpy          _new < enthalpy          _old

     new trust radius        =       0.1158089993 bohr
ibrav =      7
 celldm(1) =      6.01658367
 celldm(3) =      3.18696834
Input lattice vectors:
     0.41832199    -0.41832199     1.33317894
     0.41832199     0.41832199     1.33317894
    -0.41832199    -0.41832199     1.33317894
New lattice vectors in INITIAL alat:
     0.41832199    -0.41832199     1.33317894
     0.41832199     0.41832199     1.33317894
    -0.41832199    -0.41832199     1.33317894
New lattice vectors in NEW alat (for information only):
     0.50000000    -0.50000000     1.59348417
     0.50000000     0.50000000     1.59348417
    -0.50000000    -0.50000000     1.59348417
Discrepancy in bohr =     0.000000    0.000000    0.000000
     new conv_thr            =       0.0000000025 Ry

     new unit-cell volume =    347.05446 a.u.^3 (    51.42817 Ang^3 )
     density =      2.94463 g/cm^3

CELL_PARAMETERS (alat=  7.19133082)
   0.418321992  -0.418321992   1.333178944
   0.418321992   0.418321992   1.333178944
  -0.418321992  -0.418321992   1.333178944

ATOMIC_POSITIONS (crystal)
Si           -0.5000000000        0.7558173094        0.2558173094
Si            0.5000000000        0.2558173094       -0.2441826906
Si           -0.0000000000        0.0902931380        0.0902931380
Li            0.0000000000        0.8963377433        0.8963377433



     Writing config-only to output data dir ./output/SiLi.save/
     NEW-OLD atomic charge density approx. for the potential
     extrapolated charge   15.15497, renormalised to   15.00000

     total cpu time spent up to now is      187.5 secs

     Self-consistent Calculation

     iteration #  1     ecut=    80.00 Ry     beta= 0.70
     Davidson diagonalization with overlap
     c_bands:  1 eigenvalues not converged
     ethr =  1.00E-06,  avg # of iterations = 10.2

     total cpu time spent up to now is      195.2 secs

     total energy              =     -39.49399170 Ry
     estimated scf accuracy    <       0.00147234 Ry

     iteration #  2     ecut=    80.00 Ry     beta= 0.70
     Davidson diagonalization with overlap
     ethr =  9.82E-06,  avg # of iterations =  3.3

     total cpu time spent up to now is      199.1 secs

     total energy              =     -39.49485448 Ry
     estimated scf accuracy    <       0.00548859 Ry

     iteration #  3     ecut=    80.00 Ry     beta= 0.70
     Davidson diagonalization with overlap
     ethr =  9.82E-06,  avg # of iterations =  2.1

     total cpu time spent up to now is      202.2 secs

     total energy              =     -39.49535275 Ry
     estimated scf accuracy    <       0.00031985 Ry

     iteration #  4     ecut=    80.00 Ry     beta= 0.70
     Davidson diagonalization with overlap
     ethr =  2.13E-06,  avg # of iterations =  2.3

     total cpu time spent up to now is      205.1 secs

     total energy              =     -39.49537393 Ry
     estimated scf accuracy    <       0.00005074 Ry

     iteration #  5     ecut=    80.00 Ry     beta= 0.70
     Davidson diagonalization with overlap
     ethr =  3.38E-07,  avg # of iterations =  2.4

     total cpu time spent up to now is      208.1 secs

     total energy              =     -39.49538023 Ry
     estimated scf accuracy    <       0.00000626 Ry

     iteration #  6     ecut=    80.00 Ry     beta= 0.70
     Davidson diagonalization with overlap
     ethr =  4.17E-08,  avg # of iterations =  2.3

     total cpu time spent up to now is      211.2 secs

     total energy              =     -39.49538201 Ry
     estimated scf accuracy    <       0.00000018 Ry

     iteration #  7     ecut=    80.00 Ry     beta= 0.70
     Davidson diagonalization with overlap
     ethr =  1.19E-09,  avg # of iterations =  3.4

     total cpu time spent up to now is      214.5 secs

     total energy              =     -39.49538205 Ry
     estimated scf accuracy    <       0.00000004 Ry

     iteration #  8     ecut=    80.00 Ry     beta= 0.70
     Davidson diagonalization with overlap
     ethr =  2.79E-10,  avg # of iterations =  2.0

     total cpu time spent up to now is      217.5 secs

     End of self-consistent calculation

     Number of k-points >= 100: set verbosity='high' to print the bands.

     the Fermi energy is     9.5697 ev

!    total energy              =     -39.49538206 Ry
     estimated scf accuracy    <          3.2E-10 Ry
     smearing contrib. (-TS)   =      -0.00051433 Ry
     internal energy E=F+TS    =     -39.49486774 Ry

     The total energy is F=E-TS. E is the sum of the following terms:
     one-electron contribution =       0.13215517 Ry
     hartree contribution      =       6.35860691 Ry
     xc contribution           =     -13.37005273 Ry
     ewald contribution        =     -32.61557708 Ry

     convergence has been achieved in   8 iterations

     Forces acting on atoms (cartesian axes, Ry/au):

     atom    1 type  1   force =    -0.00000000    0.00000000   -0.01789651
     atom    2 type  1   force =    -0.00000000   -0.00000000   -0.01789651
     atom    3 type  1   force =     0.00000000    0.00000000    0.02604200
     atom    4 type  2   force =     0.00000000    0.00000000    0.00975101
     The non-local contrib.  to forces
     atom    1 type  1   force =     0.00000000   -0.00000000   -0.07503173
     atom    2 type  1   force =     0.00000000    0.00000000   -0.07503173
     atom    3 type  1   force =     0.00000000    0.00000000    0.15619775
     atom    4 type  2   force =    -0.00000000   -0.00000000   -0.01412035
     The ionic contribution  to forces
     atom    1 type  1   force =    -0.00000000   -0.00000000    0.12917627
     atom    2 type  1   force =    -0.00000000    0.00000000    0.12917627
     atom    3 type  1   force =     0.00000000    0.00000000   -2.01582546
     atom    4 type  2   force =    -0.00000000   -0.00000000    1.75747292
     The local contribution  to forces
     atom    1 type  1   force =    -0.00000000   -0.00000000   -0.07375624
     atom    2 type  1   force =    -0.00000000    0.00000000   -0.07375624
     atom    3 type  1   force =     0.00000000   -0.00000000    1.88796613
     atom    4 type  2   force =    -0.00000000   -0.00000000   -1.73362040
     The core correction contribution to forces
     atom    1 type  1   force =    -0.00000000    0.00000000    0.00172392
     atom    2 type  1   force =     0.00000000   -0.00000000    0.00172392
     atom    3 type  1   force =     0.00000000    0.00000000   -0.00228256
     atom    4 type  2   force =     0.00000000    0.00000000    0.00000000
     The Hubbard contrib.    to forces
     atom    1 type  1   force =     0.00000000    0.00000000    0.00000000
     atom    2 type  1   force =     0.00000000    0.00000000    0.00000000
     atom    3 type  1   force =     0.00000000    0.00000000    0.00000000
     atom    4 type  2   force =     0.00000000    0.00000000    0.00000000
     The SCF correction term to forces
     atom    1 type  1   force =    -0.00000000    0.00000000   -0.00000648
     atom    2 type  1   force =    -0.00000000   -0.00000000   -0.00000648
     atom    3 type  1   force =     0.00000000    0.00000000   -0.00001161
     atom    4 type  2   force =    -0.00000000    0.00000000    0.00002109

     Total force =     0.037601     Total SCF correction =     0.000026


     Computing stress (Cartesian axis) and pressure

          total   stress  (Ry/bohr**3)                   (kbar)     P=      506.67
   0.00323857  -0.00000000   0.00000000          476.41       -0.00        0.00
  -0.00000000   0.00323857   0.00000000           -0.00      476.41        0.00
   0.00000000  -0.00000000   0.00385560            0.00       -0.00      567.18

     Energy error            =      1.0E-02 Ry
     Gradient error          =      2.6E-02 Ry/Bohr
     Cell gradient error     =      6.7E+01 kbar

     number of scf cycles    =   5
     number of bfgs steps    =   4

     enthalpy           old  =     -38.3057168664 Ry
     enthalpy           new  =     -38.3157679134 Ry

     CASE: enthalpy          _new < enthalpy          _old

     new trust radius        =       0.1088086980 bohr
ibrav =      7
 celldm(1) =      5.95682424
 celldm(3) =      3.31294461
Input lattice vectors:
     0.41416703    -0.41416703     1.37211243
     0.41416703     0.41416703     1.37211243
    -0.41416703    -0.41416703     1.37211243
New lattice vectors in INITIAL alat:
     0.41416703    -0.41416703     1.37211243
     0.41416703     0.41416703     1.37211243
    -0.41416703    -0.41416703     1.37211243
New lattice vectors in NEW alat (for information only):
     0.50000000    -0.50000000     1.65647230
     0.50000000     0.50000000     1.65647230
    -0.50000000    -0.50000000     1.65647230
Discrepancy in bohr =     0.000000    0.000000    0.000000
     new conv_thr            =       0.0000000026 Ry

     new unit-cell volume =    350.12937 a.u.^3 (    51.88382 Ang^3 )
     density =      2.91877 g/cm^3

CELL_PARAMETERS (alat=  7.19133082)
   0.414167029  -0.414167029   1.372112426
   0.414167029   0.414167029   1.372112426
  -0.414167029  -0.414167029   1.372112426

ATOMIC_POSITIONS (crystal)
Si           -0.5000000000        0.7542474318        0.2542474318
Si            0.5000000000        0.2542474318       -0.2457525682
Si           -0.0000000000        0.0911491978        0.0911491978
Li           -0.0000000000        0.8986214385        0.8986214385



     Writing config-only to output data dir ./output/SiLi.save/
     NEW-OLD atomic charge density approx. for the potential
     extrapolated charge   15.13168, renormalised to   15.00000

     total cpu time spent up to now is      221.3 secs

     Self-consistent Calculation

     iteration #  1     ecut=    80.00 Ry     beta= 0.70
     Davidson diagonalization with overlap
     c_bands:  1 eigenvalues not converged
     c_bands:  1 eigenvalues not converged
     c_bands:  1 eigenvalues not converged
     c_bands:  1 eigenvalues not converged
     ethr =  1.00E-06,  avg # of iterations =  9.8

     total cpu time spent up to now is      229.2 secs

     total energy              =     -39.50852651 Ry
     estimated scf accuracy    <       0.00238228 Ry

     iteration #  2     ecut=    80.00 Ry     beta= 0.70
     Davidson diagonalization with overlap
     ethr =  1.59E-05,  avg # of iterations =  2.8

     total cpu time spent up to now is      233.0 secs

     total energy              =     -39.50919622 Ry
     estimated scf accuracy    <       0.00946693 Ry

     iteration #  3     ecut=    80.00 Ry     beta= 0.70
     Davidson diagonalization with overlap
     ethr =  1.59E-05,  avg # of iterations =  2.0

     total cpu time spent up to now is      236.0 secs

     total energy              =     -39.51031675 Ry
     estimated scf accuracy    <       0.00022969 Ry

     iteration #  4     ecut=    80.00 Ry     beta= 0.70
     Davidson diagonalization with overlap
     ethr =  1.53E-06,  avg # of iterations =  2.9

     total cpu time spent up to now is      239.2 secs

     total energy              =     -39.51035095 Ry
     estimated scf accuracy    <       0.00000645 Ry

     iteration #  5     ecut=    80.00 Ry     beta= 0.70
     Davidson diagonalization with overlap
     ethr =  4.30E-08,  avg # of iterations =  3.3

     total cpu time spent up to now is      242.5 secs

     total energy              =     -39.51035408 Ry
     estimated scf accuracy    <       0.00000055 Ry

     iteration #  6     ecut=    80.00 Ry     beta= 0.70
     Davidson diagonalization with overlap
     ethr =  3.65E-09,  avg # of iterations =  2.1

     total cpu time spent up to now is      245.6 secs

     total energy              =     -39.51035425 Ry
     estimated scf accuracy    <       0.00000015 Ry

     iteration #  7     ecut=    80.00 Ry     beta= 0.70
     Davidson diagonalization with overlap
     ethr =  9.85E-10,  avg # of iterations =  1.9

     total cpu time spent up to now is      248.5 secs

     End of self-consistent calculation

     Number of k-points >= 100: set verbosity='high' to print the bands.

     the Fermi energy is     9.5688 ev

!    total energy              =     -39.51035427 Ry
     estimated scf accuracy    <          1.1E-09 Ry
     smearing contrib. (-TS)   =      -0.00066156 Ry
     internal energy E=F+TS    =     -39.50969271 Ry

     The total energy is F=E-TS. E is the sum of the following terms:
     one-electron contribution =      -0.20198848 Ry
     hartree contribution      =       6.46866254 Ry
     xc contribution           =     -13.36518210 Ry
     ewald contribution        =     -32.41118466 Ry

     convergence has been achieved in   7 iterations

     Forces acting on atoms (cartesian axes, Ry/au):

     atom    1 type  1   force =     0.00000000   -0.00000000   -0.01239910
     atom    2 type  1   force =    -0.00000000   -0.00000000   -0.01239910
     atom    3 type  1   force =     0.00000000    0.00000000    0.02020276
     atom    4 type  2   force =    -0.00000000    0.00000000    0.00459545
     The non-local contrib.  to forces
     atom    1 type  1   force =     0.00000000   -0.00000000   -0.06987753
     atom    2 type  1   force =    -0.00000000   -0.00000000   -0.06987753
     atom    3 type  1   force =    -0.00000000    0.00000000    0.14557125
     atom    4 type  2   force =    -0.00000000   -0.00000000   -0.01321388
     The ionic contribution  to forces
     atom    1 type  1   force =     0.00000000    0.00000000    0.21426579
     atom    2 type  1   force =     0.00000000    0.00000000    0.21426579
     atom    3 type  1   force =    -0.00000000   -0.00000000   -2.23974089
     atom    4 type  2   force =     0.00000000   -0.00000000    1.81120930
     The local contribution  to forces
     atom    1 type  1   force =    -0.00000000   -0.00000000   -0.15821687
     atom    2 type  1   force =    -0.00000000   -0.00000000   -0.15821687
     atom    3 type  1   force =     0.00000000    0.00000000    2.11609943
     atom    4 type  2   force =    -0.00000000   -0.00000000   -1.79340912
     The core correction contribution to forces
     atom    1 type  1   force =    -0.00000000   -0.00000000    0.00139918
     atom    2 type  1   force =    -0.00000000   -0.00000000    0.00139918
     atom    3 type  1   force =     0.00000000    0.00000000   -0.00170188
     atom    4 type  2   force =     0.00000000    0.00000000    0.00000000
     The Hubbard contrib.    to forces
     atom    1 type  1   force =     0.00000000    0.00000000    0.00000000
     atom    2 type  1   force =     0.00000000    0.00000000    0.00000000
     atom    3 type  1   force =     0.00000000    0.00000000    0.00000000
     atom    4 type  2   force =     0.00000000    0.00000000    0.00000000
     The SCF correction term to forces
     atom    1 type  1   force =     0.00000000   -0.00000000    0.00002748
     atom    2 type  1   force =     0.00000000    0.00000000    0.00002748
     atom    3 type  1   force =     0.00000000    0.00000000   -0.00002800
     atom    4 type  2   force =     0.00000000   -0.00000000    0.00000630

     Total force =     0.027143     Total SCF correction =     0.000048


     Computing stress (Cartesian axis) and pressure

          total   stress  (Ry/bohr**3)                   (kbar)     P=      496.31
   0.00336944  -0.00000000  -0.00000000          495.66       -0.00       -0.00
   0.00000000   0.00336944   0.00000000            0.00      495.66        0.00
   0.00000000   0.00000000   0.00338275            0.00        0.00      497.62

     Energy error            =      4.5E-03 Ry
     Gradient error          =      2.0E-02 Ry/Bohr
     Cell gradient error     =      4.3E+00 kbar

     number of scf cycles    =   6
     number of bfgs steps    =   5

     enthalpy           old  =     -38.3157679134 Ry
     enthalpy           new  =     -38.3202887435 Ry

     CASE: enthalpy          _new < enthalpy          _old

     new trust radius        =       0.0224108664 bohr
ibrav =      7
 celldm(1) =      5.95003338
 celldm(3) =      3.33441698
Input lattice vectors:
     0.41369487    -0.41369487     1.37943121
     0.41369487     0.41369487     1.37943121
    -0.41369487    -0.41369487     1.37943121
New lattice vectors in INITIAL alat:
     0.41369487    -0.41369487     1.37943121
     0.41369487     0.41369487     1.37943121
    -0.41369487    -0.41369487     1.37943121
New lattice vectors in NEW alat (for information only):
     0.50000000    -0.50000000     1.66720849
     0.50000000     0.50000000     1.66720849
    -0.50000000    -0.50000000     1.66720849
Discrepancy in bohr =     0.000000    0.000000    0.000000
     new conv_thr            =       0.0000000020 Ry

     new unit-cell volume =    351.19483 a.u.^3 (    52.04171 Ang^3 )
     density =      2.90992 g/cm^3

CELL_PARAMETERS (alat=  7.19133082)
   0.413694873  -0.413694873   1.379431209
   0.413694873   0.413694873   1.379431209
  -0.413694873  -0.413694873   1.379431209

ATOMIC_POSITIONS (crystal)
Si           -0.5000000000        0.7533340905        0.2533340905
Si            0.5000000000        0.2533340905       -0.2466659095
Si           -0.0000000000        0.0922848091        0.0922848091
Li           -0.0000000000        0.8993125100        0.8993125100



     Writing config-only to output data dir ./output/SiLi.save/
     NEW-OLD atomic charge density approx. for the potential
     extrapolated charge   15.04549, renormalised to   15.00000

     total cpu time spent up to now is      252.3 secs

     Self-consistent Calculation

     iteration #  1     ecut=    80.00 Ry     beta= 0.70
     Davidson diagonalization with overlap
     ethr =  1.00E-06,  avg # of iterations =  6.0

     total cpu time spent up to now is      257.9 secs

     total energy              =     -39.51419052 Ry
     estimated scf accuracy    <       0.00051136 Ry

     iteration #  2     ecut=    80.00 Ry     beta= 0.70
     Davidson diagonalization with overlap
     ethr =  3.41E-06,  avg # of iterations =  2.8

     total cpu time spent up to now is      261.6 secs

     total energy              =     -39.51430120 Ry
     estimated scf accuracy    <       0.00205498 Ry

     iteration #  3     ecut=    80.00 Ry     beta= 0.70
     Davidson diagonalization with overlap
     ethr =  3.41E-06,  avg # of iterations =  2.0

     total cpu time spent up to now is      264.7 secs

     total energy              =     -39.51456027 Ry
     estimated scf accuracy    <       0.00003667 Ry

     iteration #  4     ecut=    80.00 Ry     beta= 0.70
     Davidson diagonalization with overlap
     ethr =  2.44E-07,  avg # of iterations =  2.8

     total cpu time spent up to now is      267.7 secs

     total energy              =     -39.51456694 Ry
     estimated scf accuracy    <       0.00000087 Ry

     iteration #  5     ecut=    80.00 Ry     beta= 0.70
     Davidson diagonalization with overlap
     ethr =  5.83E-09,  avg # of iterations =  3.8

     total cpu time spent up to now is      271.3 secs

     total energy              =     -39.51456741 Ry
     estimated scf accuracy    <       0.00000185 Ry

     iteration #  6     ecut=    80.00 Ry     beta= 0.70
     Davidson diagonalization with overlap
     ethr =  5.83E-09,  avg # of iterations =  2.0

     total cpu time spent up to now is      274.3 secs

     total energy              =     -39.51456763 Ry
     estimated scf accuracy    <       0.00000006 Ry

     iteration #  7     ecut=    80.00 Ry     beta= 0.70
     Davidson diagonalization with overlap
     ethr =  4.18E-10,  avg # of iterations =  2.3

     total cpu time spent up to now is      277.3 secs

     End of self-consistent calculation

     Number of k-points >= 100: set verbosity='high' to print the bands.

     the Fermi energy is     9.5425 ev

!    total energy              =     -39.51456764 Ry
     estimated scf accuracy    <          5.5E-10 Ry
     smearing contrib. (-TS)   =      -0.00064874 Ry
     internal energy E=F+TS    =     -39.51391890 Ry

     The total energy is F=E-TS. E is the sum of the following terms:
     one-electron contribution =      -0.34734279 Ry
     hartree contribution      =       6.51891134 Ry
     xc contribution           =     -13.36850303 Ry
     ewald contribution        =     -32.31698442 Ry

     convergence has been achieved in   7 iterations

     Forces acting on atoms (cartesian axes, Ry/au):

     atom    1 type  1   force =     0.00000000   -0.00000000   -0.00449484
     atom    2 type  1   force =    -0.00000000    0.00000000   -0.00449484
     atom    3 type  1   force =    -0.00000000    0.00000000    0.00574019
     atom    4 type  2   force =    -0.00000000   -0.00000000    0.00324949
     The non-local contrib.  to forces
     atom    1 type  1   force =    -0.00000000   -0.00000000   -0.06267742
     atom    2 type  1   force =    -0.00000000   -0.00000000   -0.06267742
     atom    3 type  1   force =     0.00000000    0.00000000    0.13292970
     atom    4 type  2   force =     0.00000000   -0.00000000   -0.01394061
     The ionic contribution  to forces
     atom    1 type  1   force =     0.00000000   -0.00000000    0.27077192
     atom    2 type  1   force =    -0.00000000   -0.00000000    0.27077192
     atom    3 type  1   force =    -0.00000000   -0.00000000   -2.35145918
     atom    4 type  2   force =    -0.00000000   -0.00000000    1.80991534
     The local contribution  to forces
     atom    1 type  1   force =    -0.00000000    0.00000000   -0.21345200
     atom    2 type  1   force =     0.00000000   -0.00000000   -0.21345200
     atom    3 type  1   force =    -0.00000000    0.00000000    2.22503310
     atom    4 type  2   force =    -0.00000000   -0.00000000   -1.79274409
     The core correction contribution to forces
     atom    1 type  1   force =     0.00000000   -0.00000000    0.00085679
     atom    2 type  1   force =     0.00000000   -0.00000000    0.00085679
     atom    3 type  1   force =     0.00000000    0.00000000   -0.00073934
     atom    4 type  2   force =     0.00000000    0.00000000    0.00000000
     The Hubbard contrib.    to forces
     atom    1 type  1   force =     0.00000000    0.00000000    0.00000000
     atom    2 type  1   force =     0.00000000    0.00000000    0.00000000
     atom    3 type  1   force =     0.00000000    0.00000000    0.00000000
     atom    4 type  2   force =     0.00000000    0.00000000    0.00000000
     The SCF correction term to forces
     atom    1 type  1   force =     0.00000000    0.00000000    0.00000575
     atom    2 type  1   force =    -0.00000000   -0.00000000    0.00000575
     atom    3 type  1   force =    -0.00000000   -0.00000000   -0.00002421
     atom    4 type  2   force =     0.00000000    0.00000000    0.00001873

     Total force =     0.009161     Total SCF correction =     0.000032


     Computing stress (Cartesian axis) and pressure

          total   stress  (Ry/bohr**3)                   (kbar)     P=      496.10
   0.00339066  -0.00000000   0.00000000          498.78       -0.00        0.00
   0.00000000   0.00339066   0.00000000            0.00      498.78        0.00
   0.00000000  -0.00000000   0.00333593            0.00       -0.00      490.73

     Energy error            =      5.9E-04 Ry
     Gradient error          =      5.7E-03 Ry/Bohr
     Cell gradient error     =      9.3E+00 kbar

     number of scf cycles    =   7
     number of bfgs steps    =   6

     enthalpy           old  =     -38.3202887435 Ry
     enthalpy           new  =     -38.3208806605 Ry

     CASE: enthalpy          _new < enthalpy          _old

     new trust radius        =       0.0082730433 bohr
ibrav =      7
 celldm(1) =      5.95059470
 celldm(3) =      3.33241783
Input lattice vectors:
     0.41373390    -0.41373390     1.37873423
     0.41373390     0.41373390     1.37873423
    -0.41373390    -0.41373390     1.37873423
New lattice vectors in INITIAL alat:
     0.41373390    -0.41373390     1.37873423
     0.41373390     0.41373390     1.37873423
    -0.41373390    -0.41373390     1.37873423
New lattice vectors in NEW alat (for information only):
     0.50000000    -0.50000000     1.66620891
     0.50000000     0.50000000     1.66620891
    -0.50000000    -0.50000000     1.66620891
Discrepancy in bohr =     0.000000    0.000000    0.000000
     new conv_thr            =       0.0000000006 Ry

     new unit-cell volume =    351.08362 a.u.^3 (    52.02522 Ang^3 )
     density =      2.91084 g/cm^3

CELL_PARAMETERS (alat=  7.19133082)
   0.413733901  -0.413733901   1.378734226
   0.413733901   0.413733901   1.378734226
  -0.413733901  -0.413733901   1.378734226

ATOMIC_POSITIONS (crystal)
Si           -0.5000000000        0.7529822218        0.2529822218
Si            0.5000000000        0.2529822218       -0.2470177782
Si           -0.0000000000        0.0927017994        0.0927017994
Li           -0.0000000000        0.8995992571        0.8995992571



     Writing config-only to output data dir ./output/SiLi.save/
     NEW-OLD atomic charge density approx. for the potential
     extrapolated charge   14.99525, renormalised to   15.00000

     total cpu time spent up to now is      281.1 secs

     Self-consistent Calculation

     iteration #  1     ecut=    80.00 Ry     beta= 0.70
     Davidson diagonalization with overlap
     ethr =  1.00E-06,  avg # of iterations =  3.1

     total cpu time spent up to now is      285.3 secs

     total energy              =     -39.51424781 Ry
     estimated scf accuracy    <       0.00004165 Ry

     iteration #  2     ecut=    80.00 Ry     beta= 0.70
     Davidson diagonalization with overlap
     ethr =  2.78E-07,  avg # of iterations =  2.3

     total cpu time spent up to now is      288.4 secs

     total energy              =     -39.51425440 Ry
     estimated scf accuracy    <       0.00006663 Ry

     iteration #  3     ecut=    80.00 Ry     beta= 0.70
     Davidson diagonalization with overlap
     ethr =  2.78E-07,  avg # of iterations =  2.0

     total cpu time spent up to now is      291.3 secs

     total energy              =     -39.51426770 Ry
     estimated scf accuracy    <       0.00000139 Ry

     iteration #  4     ecut=    80.00 Ry     beta= 0.70
     Davidson diagonalization with overlap
     ethr =  9.28E-09,  avg # of iterations =  2.4

     total cpu time spent up to now is      294.3 secs

     total energy              =     -39.51426810 Ry
     estimated scf accuracy    <       0.00000031 Ry

     iteration #  5     ecut=    80.00 Ry     beta= 0.70
     Davidson diagonalization with overlap
     ethr =  2.07E-09,  avg # of iterations =  1.6

     total cpu time spent up to now is      297.0 secs

     total energy              =     -39.51426815 Ry
     estimated scf accuracy    <          6.3E-09 Ry

     iteration #  6     ecut=    80.00 Ry     beta= 0.70
     Davidson diagonalization with overlap
     ethr =  4.17E-11,  avg # of iterations =  4.0

     total cpu time spent up to now is      300.7 secs

     total energy              =     -39.51426816 Ry
     estimated scf accuracy    <          1.2E-09 Ry

     iteration #  7     ecut=    80.00 Ry     beta= 0.70
     Davidson diagonalization with overlap
     ethr =  8.06E-12,  avg # of iterations =  2.0

     total cpu time spent up to now is      303.6 secs

     End of self-consistent calculation

     Number of k-points >= 100: set verbosity='high' to print the bands.

     the Fermi energy is     9.5422 ev

!    total energy              =     -39.51426816 Ry
     estimated scf accuracy    <          1.2E-11 Ry
     smearing contrib. (-TS)   =      -0.00063266 Ry
     internal energy E=F+TS    =     -39.51363549 Ry

     The total energy is F=E-TS. E is the sum of the following terms:
     one-electron contribution =      -0.35471121 Ry
     hartree contribution      =       6.52318628 Ry
     xc contribution           =     -13.37250150 Ry
     ewald contribution        =     -32.30960906 Ry

     convergence has been achieved in   7 iterations

     Forces acting on atoms (cartesian axes, Ry/au):

     atom    1 type  1   force =     0.00000000   -0.00000000   -0.00055274
     atom    2 type  1   force =     0.00000000   -0.00000000   -0.00055274
     atom    3 type  1   force =    -0.00000000   -0.00000000   -0.00017815
     atom    4 type  2   force =    -0.00000000   -0.00000000    0.00128363
     The non-local contrib.  to forces
     atom    1 type  1   force =    -0.00000000   -0.00000000   -0.05903073
     atom    2 type  1   force =    -0.00000000   -0.00000000   -0.05903073
     atom    3 type  1   force =    -0.00000000    0.00000000    0.12808184
     atom    4 type  2   force =     0.00000000   -0.00000000   -0.01471015
     The ionic contribution  to forces
     atom    1 type  1   force =    -0.00000000   -0.00000000    0.29228321
     atom    2 type  1   force =    -0.00000000   -0.00000000    0.29228321
     atom    3 type  1   force =    -0.00000000   -0.00000000   -2.38012063
     atom    4 type  2   force =    -0.00000000   -0.00000000    1.79555421
     The local contribution  to forces
     atom    1 type  1   force =    -0.00000000   -0.00000000   -0.23438505
     atom    2 type  1   force =     0.00000000   -0.00000000   -0.23438505
     atom    3 type  1   force =    -0.00000000    0.00000000    2.25219162
     atom    4 type  2   force =    -0.00000000   -0.00000000   -1.77956200
     The core correction contribution to forces
     atom    1 type  1   force =    -0.00000000   -0.00000000    0.00057756
     atom    2 type  1   force =     0.00000000    0.00000000    0.00057756
     atom    3 type  1   force =    -0.00000000    0.00000000   -0.00032765
     atom    4 type  2   force =     0.00000000    0.00000000    0.00000000
     The Hubbard contrib.    to forces
     atom    1 type  1   force =     0.00000000    0.00000000    0.00000000
     atom    2 type  1   force =     0.00000000    0.00000000    0.00000000
     atom    3 type  1   force =     0.00000000    0.00000000    0.00000000
     atom    4 type  2   force =     0.00000000    0.00000000    0.00000000
     The SCF correction term to forces
     atom    1 type  1   force =    -0.00000000    0.00000000    0.00000210
     atom    2 type  1   force =     0.00000000    0.00000000    0.00000210
     atom    3 type  1   force =    -0.00000000   -0.00000000   -0.00000350
     atom    4 type  2   force =     0.00000000   -0.00000000    0.00000140

     Total force =     0.001513     Total SCF correction =     0.000005


     Computing stress (Cartesian axis) and pressure

          total   stress  (Ry/bohr**3)                   (kbar)     P=      499.02
   0.00339936  -0.00000000  -0.00000000          500.06       -0.00       -0.00
  -0.00000000   0.00339936   0.00000000           -0.00      500.06        0.00
  -0.00000000   0.00000000   0.00337798           -0.00        0.00      496.92

     Energy error            =      7.9E-05 Ry
     Gradient error          =      1.3E-03 Ry/Bohr
     Cell gradient error     =      3.1E+00 kbar

     number of scf cycles    =   8
     number of bfgs steps    =   7

     enthalpy           old  =     -38.3208806605 Ry
     enthalpy           new  =     -38.3209591859 Ry

     CASE: enthalpy          _new < enthalpy          _old

     new trust radius        =       0.0024185856 bohr
ibrav =      7
 celldm(1) =      5.95123264
 celldm(3) =      3.32991011
Input lattice vectors:
     0.41377826    -0.41377826     1.37784440
     0.41377826     0.41377826     1.37784440
    -0.41377826    -0.41377826     1.37784440
New lattice vectors in INITIAL alat:
     0.41377826    -0.41377826     1.37784440
     0.41377826     0.41377826     1.37784440
    -0.41377826    -0.41377826     1.37784440
New lattice vectors in NEW alat (for information only):
     0.50000000    -0.50000000     1.66495506
     0.50000000     0.50000000     1.66495506
    -0.50000000    -0.50000000     1.66495506
Discrepancy in bohr =     0.000000    0.000000    0.000000
     new conv_thr            =            1.0E-10 Ry

     new unit-cell volume =    350.93226 a.u.^3 (    52.00280 Ang^3 )
     density =      2.91209 g/cm^3

CELL_PARAMETERS (alat=  7.19133082)
   0.413778255  -0.413778255   1.377844397
   0.413778255   0.413778255   1.377844397
  -0.413778255  -0.413778255   1.377844397

ATOMIC_POSITIONS (crystal)
Si           -0.5000000000        0.7529471666        0.2529471666
Si            0.5000000000        0.2529471666       -0.2470528334
Si           -0.0000000000        0.0927042998        0.0927042998
Li           -0.0000000000        0.8996668670        0.8996668670



     Writing config-only to output data dir ./output/SiLi.save/
     NEW-OLD atomic charge density approx. for the potential
     extrapolated charge   14.99353, renormalised to   15.00000

     total cpu time spent up to now is      307.4 secs

     Self-consistent Calculation

     iteration #  1     ecut=    80.00 Ry     beta= 0.70
     Davidson diagonalization with overlap
     ethr =  1.00E-06,  avg # of iterations =  2.0

     Threshold (ethr) on eigenvalues was too large:
     Diagonalizing with lowered threshold

     Davidson diagonalization with overlap
     ethr =  7.96E-09,  avg # of iterations =  2.8

     total cpu time spent up to now is      313.5 secs

     total energy              =     -39.51375620 Ry
     estimated scf accuracy    <       0.00000123 Ry

     iteration #  2     ecut=    80.00 Ry     beta= 0.70
     Davidson diagonalization with overlap
     ethr =  8.23E-09,  avg # of iterations =  3.1

     total cpu time spent up to now is      317.2 secs

     total energy              =     -39.51375756 Ry
     estimated scf accuracy    <       0.00000655 Ry

     iteration #  3     ecut=    80.00 Ry     beta= 0.70
     Davidson diagonalization with overlap
     ethr =  8.23E-09,  avg # of iterations =  2.0

     total cpu time spent up to now is      320.2 secs

     total energy              =     -39.51375784 Ry
     estimated scf accuracy    <       0.00000088 Ry

     iteration #  4     ecut=    80.00 Ry     beta= 0.70
     Davidson diagonalization with overlap
     ethr =  5.87E-09,  avg # of iterations =  1.4

     total cpu time spent up to now is      322.9 secs

     total energy              =     -39.51375785 Ry
     estimated scf accuracy    <       0.00000026 Ry

     iteration #  5     ecut=    80.00 Ry     beta= 0.70
     Davidson diagonalization with overlap
     ethr =  1.71E-09,  avg # of iterations =  1.3

     total cpu time spent up to now is      325.5 secs

     total energy              =     -39.51375784 Ry
     estimated scf accuracy    <       0.00000006 Ry

     iteration #  6     ecut=    80.00 Ry     beta= 0.70
     Davidson diagonalization with overlap
     ethr =  3.92E-10,  avg # of iterations =  2.5

     total cpu time spent up to now is      328.6 secs

     total energy              =     -39.51375786 Ry
     estimated scf accuracy    <          1.3E-09 Ry

     iteration #  7     ecut=    80.00 Ry     beta= 0.70
     Davidson diagonalization with overlap
     ethr =  8.83E-12,  avg # of iterations =  3.8

     total cpu time spent up to now is      332.1 secs

     total energy              =     -39.51375786 Ry
     estimated scf accuracy    <          6.8E-10 Ry

     iteration #  8     ecut=    80.00 Ry     beta= 0.70
     Davidson diagonalization with overlap
     ethr =  4.55E-12,  avg # of iterations =  2.0

     total cpu time spent up to now is      334.9 secs

     End of self-consistent calculation

     Number of k-points >= 100: set verbosity='high' to print the bands.

     the Fermi energy is     9.5456 ev

!    total energy              =     -39.51375786 Ry
     estimated scf accuracy    <          7.9E-12 Ry
     smearing contrib. (-TS)   =      -0.00062993 Ry
     internal energy E=F+TS    =     -39.51312793 Ry

     The total energy is F=E-TS. E is the sum of the following terms:
     one-electron contribution =      -0.33797960 Ry
     hartree contribution      =       6.51747954 Ry
     xc contribution           =     -13.37341432 Ry
     ewald contribution        =     -32.31921354 Ry

     convergence has been achieved in   8 iterations

     Forces acting on atoms (cartesian axes, Ry/au):

     atom    1 type  1   force =    -0.00000000    0.00000000   -0.00000480
     atom    2 type  1   force =     0.00000000    0.00000000   -0.00000480
     atom    3 type  1   force =     0.00000000    0.00000000   -0.00028492
     atom    4 type  2   force =    -0.00000000   -0.00000000    0.00029452
     The non-local contrib.  to forces
     atom    1 type  1   force =    -0.00000000    0.00000000   -0.05851456
     atom    2 type  1   force =    -0.00000000    0.00000000   -0.05851456
     atom    3 type  1   force =     0.00000000    0.00000000    0.12803644
     atom    4 type  2   force =    -0.00000000   -0.00000000   -0.01496886
     The ionic contribution  to forces
     atom    1 type  1   force =    -0.00000000   -0.00000000    0.29412390
     atom    2 type  1   force =    -0.00000000   -0.00000000    0.29412390
     atom    3 type  1   force =    -0.00000000   -0.00000000   -2.37689823
     atom    4 type  2   force =    -0.00000000   -0.00000000    1.78865042
     The local contribution  to forces
     atom    1 type  1   force =    -0.00000000   -0.00000000   -0.23615287
     atom    2 type  1   force =    -0.00000000   -0.00000000   -0.23615287
     atom    3 type  1   force =    -0.00000000   -0.00000000    2.24888165
     atom    4 type  2   force =    -0.00000000   -0.00000000   -1.77338507
     The core correction contribution to forces
     atom    1 type  1   force =    -0.00000000   -0.00000000    0.00053845
     atom    2 type  1   force =    -0.00000000    0.00000000    0.00053845
     atom    3 type  1   force =    -0.00000000    0.00000000   -0.00030812
     atom    4 type  2   force =     0.00000000    0.00000000    0.00000000
     The Hubbard contrib.    to forces
     atom    1 type  1   force =     0.00000000    0.00000000    0.00000000
     atom    2 type  1   force =     0.00000000    0.00000000    0.00000000
     atom    3 type  1   force =     0.00000000    0.00000000    0.00000000
     atom    4 type  2   force =     0.00000000    0.00000000    0.00000000
     The SCF correction term to forces
     atom    1 type  1   force =     0.00000000    0.00000000   -0.00000024
     atom    2 type  1   force =    -0.00000000   -0.00000000   -0.00000024
     atom    3 type  1   force =     0.00000000   -0.00000000    0.00000281
     atom    4 type  2   force =    -0.00000000   -0.00000000   -0.00000249

     Total force =     0.000410     Total SCF correction =     0.000004


     Computing stress (Cartesian axis) and pressure

          total   stress  (Ry/bohr**3)                   (kbar)     P=      499.98
   0.00339994   0.00000000   0.00000000          500.15        0.00        0.00
  -0.00000000   0.00339994  -0.00000000           -0.00      500.15       -0.00
  -0.00000000   0.00000000   0.00339640           -0.00        0.00      499.63

     Energy error            =      4.2E-06 Ry
     Gradient error          =      2.9E-04 Ry/Bohr
     Cell gradient error     =      3.7E-01 kbar
ibrav =      7
 celldm(1) =      5.95123264
 celldm(3) =      3.32991011
Input lattice vectors:
     0.41377826    -0.41377826     1.37784440
     0.41377826     0.41377826     1.37784440
    -0.41377826    -0.41377826     1.37784440
New lattice vectors in INITIAL alat:
     0.41377826    -0.41377826     1.37784440
     0.41377826     0.41377826     1.37784440
    -0.41377826    -0.41377826     1.37784440
New lattice vectors in NEW alat (for information only):
     0.50000000    -0.50000000     1.66495506
     0.50000000     0.50000000     1.66495506
    -0.50000000    -0.50000000     1.66495506
Discrepancy in bohr =     0.000000    0.000000    0.000000

     bfgs converged in   9 scf cycles and   8 bfgs steps
     (criteria: energy <  1.0E-04 Ry, force <  1.0E-03 Ry/Bohr, cell <  1.0E+00 kbar)

     End of BFGS Geometry Optimization

     Final enthalpy           =     -38.3209633365 Ry

     File ./output/SiLi.bfgs deleted, as requested
Begin final coordinates
     new unit-cell volume =    350.93226 a.u.^3 (    52.00280 Ang^3 )
     density =      2.91209 g/cm^3

CELL_PARAMETERS (alat=  7.19133082)
   0.413778255  -0.413778255   1.377844397
   0.413778255   0.413778255   1.377844397
  -0.413778255  -0.413778255   1.377844397

ATOMIC_POSITIONS (crystal)
Si           -0.5000000000        0.7529471666        0.2529471666
Si            0.5000000000        0.2529471666       -0.2470528334
Si           -0.0000000000        0.0927042998        0.0927042998
Li           -0.0000000000        0.8996668670        0.8996668670
End final coordinates



     Writing config-only to output data dir ./output/SiLi.save/

     Final scf calculation at the relaxed structure.
     The G-vectors are recalculated for the final unit cell
     Results may differ from those at the preceding step.

     Parallelization info
     --------------------
     sticks:   dense  smooth     PW     G-vecs:    dense   smooth      PW
     Min         194     194     65                 4232     4232     811
     Max         195     195     66                 4235     4235     812
     Sum        1555    1555    521                33869    33869    6489

     Using Slab Decomposition



     bravais-lattice index     =            7
     lattice parameter (alat)  =       7.1913  a.u.
     unit-cell volume          =     350.9323 (a.u.)^3
     number of atoms/cell      =            4
     number of atomic types    =            2
     number of electrons       =        15.00
     number of Kohn-Sham states=           12
     kinetic-energy cutoff     =      80.0000  Ry
     charge density cutoff     =     320.0000  Ry
     scf convergence threshold =      1.0E-10
     mixing beta               =       0.7000
     number of iterations used =            8  plain     mixing
     press convergence thresh. =      1.0E+00
     Exchange-correlation= PBE
                           (   1   4   3   4   0   0   0)

     celldm(1)=   7.191331  celldm(2)=   0.000000  celldm(3)=   2.700787
     celldm(4)=   0.000000  celldm(5)=   0.000000  celldm(6)=   0.000000

     crystal axes: (cart. coord. in units of alat)
               a(1) = (   0.413778  -0.413778   1.377844 )  
               a(2) = (   0.413778   0.413778   1.377844 )  
               a(3) = (  -0.413778  -0.413778   1.377844 )  

     reciprocal axes: (cart. coord. in units 2 pi/alat)
               b(1) = (  1.208377 -1.208377 -0.000000 )  
               b(2) = (  0.000000  1.208377  0.362886 )  
               b(3) = ( -1.208377 -0.000000  0.362886 )  


     PseudoPot. # 1 for Si read from file:
     ../pseudo/Si_ONCV_PBE_sr.upf
     MD5 check sum: e543d271109d17c80368dfa7c482276d
     Pseudo is Norm-conserving + core correction, Zval =  4.0
     Generated using ONCVPSP code by D. R. Hamann
     Using radial grid of 1510 points,  6 beta functions with: 
                l(1) =   0
                l(2) =   0
                l(3) =   1
                l(4) =   1
                l(5) =   2
                l(6) =   2

     PseudoPot. # 2 for Li read from file:
     ../pseudo/Li_ONCV_PBE_sr.upf
     MD5 check sum: 50ff420e78310ffa21704f3361e624a4
     Pseudo is Norm-conserving, Zval =  3.0
     Generated using ONCVPSP code by D. R. Hamann
     Using radial grid of 1944 points,  4 beta functions with: 
                l(1) =   0
                l(2) =   0
                l(3) =   1
                l(4) =   1

     atomic species   valence    mass     pseudopotential
        Si             4.00    28.08550     Si( 1.00)
        Li             3.00     6.94100     Li( 1.00)

      8 Sym. Ops. (no inversion) found



   Cartesian axes

     site n.     atom                  positions (alat units)
         1           Si  tau(   1) = (  -0.0000000   0.4137783   0.6970437  )
         2           Si  tau(   2) = (   0.4137783   0.0000000   0.6970437  )
         3           Si  tau(   3) = (   0.0000000   0.0000000   0.2554642  )
         4           Li  tau(   4) = (   0.0000000   0.0000000   2.4792019  )

     number of k points=   149  Marzari-Vanderbilt smearing, width (Ry)=  0.0200

     Number of k-points >= 100: set verbosity='high' to print them.

     Dense  grid:    33869 G-vectors     FFT dimensions: (  64,  64,  64)

     Estimated max dynamical RAM per process >      31.21 MB

     Estimated total dynamical RAM >     249.64 MB

     Initial potential from superposition of free atoms

     starting charge      14.9936, renormalised to      15.0000
     Starting wfcs are   14 randomized atomic wfcs

     total cpu time spent up to now is      341.0 secs

     Self-consistent Calculation

     iteration #  1     ecut=    80.00 Ry     beta= 0.70
     Davidson diagonalization with overlap
     c_bands:  2 eigenvalues not converged
     c_bands:  2 eigenvalues not converged
     c_bands:  2 eigenvalues not converged
     c_bands:  1 eigenvalues not converged
     c_bands:  1 eigenvalues not converged
     c_bands:  1 eigenvalues not converged
     c_bands:  2 eigenvalues not converged
     c_bands:  1 eigenvalues not converged
     c_bands:  1 eigenvalues not converged
     c_bands:  1 eigenvalues not converged
     c_bands:  1 eigenvalues not converged
     c_bands:  1 eigenvalues not converged
     c_bands:  2 eigenvalues not converged
     c_bands:  1 eigenvalues not converged
     c_bands:  1 eigenvalues not converged
     c_bands:  1 eigenvalues not converged
     c_bands:  1 eigenvalues not converged
     c_bands:  1 eigenvalues not converged
     c_bands:  2 eigenvalues not converged
     c_bands:  1 eigenvalues not converged
     c_bands:  1 eigenvalues not converged
     c_bands:  1 eigenvalues not converged
     c_bands:  1 eigenvalues not converged
     c_bands:  1 eigenvalues not converged
     c_bands:  1 eigenvalues not converged
     c_bands:  2 eigenvalues not converged
     c_bands:  1 eigenvalues not converged
     c_bands:  1 eigenvalues not converged
     c_bands:  1 eigenvalues not converged
     c_bands:  1 eigenvalues not converged
     c_bands:  1 eigenvalues not converged
     c_bands:  1 eigenvalues not converged
     c_bands:  1 eigenvalues not converged
     c_bands:  2 eigenvalues not converged
     c_bands:  1 eigenvalues not converged
     c_bands:  1 eigenvalues not converged
     c_bands:  1 eigenvalues not converged
     c_bands:  2 eigenvalues not converged
     c_bands:  2 eigenvalues not converged
     c_bands:  1 eigenvalues not converged
     c_bands:  2 eigenvalues not converged
     c_bands:  1 eigenvalues not converged
     c_bands:  1 eigenvalues not converged
     c_bands:  1 eigenvalues not converged
     c_bands:  1 eigenvalues not converged
     c_bands:  1 eigenvalues not converged
     c_bands:  1 eigenvalues not converged
     c_bands:  1 eigenvalues not converged
     c_bands:  1 eigenvalues not converged
     c_bands:  1 eigenvalues not converged
     c_bands:  1 eigenvalues not converged
     c_bands:  1 eigenvalues not converged
     c_bands:  2 eigenvalues not converged
     c_bands:  1 eigenvalues not converged
     c_bands:  1 eigenvalues not converged
     c_bands:  1 eigenvalues not converged
     c_bands:  4 eigenvalues not converged
     c_bands:  3 eigenvalues not converged
     c_bands:  3 eigenvalues not converged
     c_bands:  4 eigenvalues not converged
     c_bands:  2 eigenvalues not converged
     c_bands:  2 eigenvalues not converged
     c_bands:  1 eigenvalues not converged
     c_bands:  1 eigenvalues not converged
     c_bands:  1 eigenvalues not converged
     c_bands:  1 eigenvalues not converged
     c_bands:  1 eigenvalues not converged
     c_bands:  1 eigenvalues not converged
     c_bands:  1 eigenvalues not converged
     c_bands:  1 eigenvalues not converged
     c_bands:  1 eigenvalues not converged
     c_bands:  1 eigenvalues not converged
     c_bands:  1 eigenvalues not converged
     c_bands:  2 eigenvalues not converged
     c_bands:  1 eigenvalues not converged
     c_bands:  1 eigenvalues not converged
     c_bands:  2 eigenvalues not converged
     c_bands:  1 eigenvalues not converged
     c_bands:  1 eigenvalues not converged
     c_bands:  1 eigenvalues not converged
     c_bands:  1 eigenvalues not converged
     c_bands:  1 eigenvalues not converged
     c_bands:  2 eigenvalues not converged
     c_bands:  1 eigenvalues not converged
     c_bands:  2 eigenvalues not converged
     c_bands:  1 eigenvalues not converged
     c_bands:  1 eigenvalues not converged
     c_bands:  1 eigenvalues not converged
     c_bands:  2 eigenvalues not converged
     c_bands:  1 eigenvalues not converged
     ethr =  1.00E-06,  avg # of iterations = 19.1

     total cpu time spent up to now is      353.8 secs

     total energy              =     -39.42048247 Ry
     estimated scf accuracy    <       0.21992347 Ry

     iteration #  2     ecut=    80.00 Ry     beta= 0.70
     Davidson diagonalization with overlap
     ethr =  1.47E-03,  avg # of iterations =  2.5

     total cpu time spent up to now is      357.2 secs

     total energy              =     -39.42241994 Ry
     estimated scf accuracy    <       0.43757514 Ry

     iteration #  3     ecut=    80.00 Ry     beta= 0.70
     Davidson diagonalization with overlap
     ethr =  1.47E-03,  avg # of iterations =  2.0

     total cpu time spent up to now is      359.9 secs

     total energy              =     -39.51244283 Ry
     estimated scf accuracy    <       0.00602754 Ry

     iteration #  4     ecut=    80.00 Ry     beta= 0.70
     Davidson diagonalization with overlap
     ethr =  4.02E-05,  avg # of iterations =  2.9

     total cpu time spent up to now is      363.1 secs

     total energy              =     -39.51349496 Ry
     estimated scf accuracy    <       0.00096786 Ry

     iteration #  5     ecut=    80.00 Ry     beta= 0.70
     Davidson diagonalization with overlap
     ethr =  6.45E-06,  avg # of iterations =  2.9

     total cpu time spent up to now is      366.1 secs

     total energy              =     -39.51371609 Ry
     estimated scf accuracy    <       0.00005935 Ry

     iteration #  6     ecut=    80.00 Ry     beta= 0.70
     Davidson diagonalization with overlap
     ethr =  3.96E-07,  avg # of iterations =  2.2

     total cpu time spent up to now is      368.8 secs

     total energy              =     -39.51372745 Ry
     estimated scf accuracy    <       0.00000125 Ry

     iteration #  7     ecut=    80.00 Ry     beta= 0.70
     Davidson diagonalization with overlap
     ethr =  8.35E-09,  avg # of iterations =  3.6

     total cpu time spent up to now is      372.0 secs

     total energy              =     -39.51372808 Ry
     estimated scf accuracy    <       0.00000007 Ry

     iteration #  8     ecut=    80.00 Ry     beta= 0.70
     Davidson diagonalization with overlap
     ethr =  4.72E-10,  avg # of iterations =  2.4

     total cpu time spent up to now is      374.9 secs

     total energy              =     -39.51372811 Ry
     estimated scf accuracy    <       0.00000001 Ry

     iteration #  9     ecut=    80.00 Ry     beta= 0.70
     Davidson diagonalization with overlap
     ethr =  7.91E-11,  avg # of iterations =  1.8

     total cpu time spent up to now is      377.5 secs

     total energy              =     -39.51372811 Ry
     estimated scf accuracy    <          1.6E-10 Ry

     iteration # 10     ecut=    80.00 Ry     beta= 0.70
     Davidson diagonalization with overlap
     ethr =  1.04E-12,  avg # of iterations =  4.1

     total cpu time spent up to now is      381.1 secs

     End of self-consistent calculation

     Number of k-points >= 100: set verbosity='high' to print the bands.

     the Fermi energy is     9.5456 ev

!    total energy              =     -39.51372811 Ry
     estimated scf accuracy    <          2.6E-12 Ry
     smearing contrib. (-TS)   =      -0.00062992 Ry
     internal energy E=F+TS    =     -39.51309819 Ry

     The total energy is F=E-TS. E is the sum of the following terms:
     one-electron contribution =      -0.33797616 Ry
     hartree contribution      =       6.51749763 Ry
     xc contribution           =     -13.37340612 Ry
     ewald contribution        =     -32.31921354 Ry

     convergence has been achieved in  10 iterations

     Forces acting on atoms (cartesian axes, Ry/au):

     atom    1 type  1   force =     0.00000000    0.00000000   -0.00000142
     atom    2 type  1   force =     0.00000000    0.00000000   -0.00000142
     atom    3 type  1   force =     0.00000000   -0.00000000   -0.00028813
     atom    4 type  2   force =    -0.00000000    0.00000000    0.00029097
     The non-local contrib.  to forces
     atom    1 type  1   force =     0.00000000   -0.00000000   -0.05851176
     atom    2 type  1   force =    -0.00000000   -0.00000000   -0.05851176
     atom    3 type  1   force =    -0.00000000    0.00000000    0.12803219
     atom    4 type  2   force =     0.00000000   -0.00000000   -0.01499130
     The ionic contribution  to forces
     atom    1 type  1   force =    -0.00000000    0.00000000    0.29412390
     atom    2 type  1   force =    -0.00000000   -0.00000000    0.29412390
     atom    3 type  1   force =     0.00000000   -0.00000000   -2.37689823
     atom    4 type  2   force =    -0.00000000    0.00000000    1.78865042
     The local contribution  to forces
     atom    1 type  1   force =    -0.00000000   -0.00000000   -0.23615222
     atom    2 type  1   force =    -0.00000000   -0.00000000   -0.23615222
     atom    3 type  1   force =    -0.00000000    0.00000000    2.24888404
     atom    4 type  2   force =    -0.00000000   -0.00000000   -1.77336758
     The core correction contribution to forces
     atom    1 type  1   force =    -0.00000000   -0.00000000    0.00053815
     atom    2 type  1   force =    -0.00000000   -0.00000000    0.00053815
     atom    3 type  1   force =     0.00000000   -0.00000000   -0.00030755
     atom    4 type  2   force =     0.00000000    0.00000000    0.00000000
     The Hubbard contrib.    to forces
     atom    1 type  1   force =     0.00000000    0.00000000    0.00000000
     atom    2 type  1   force =     0.00000000    0.00000000    0.00000000
     atom    3 type  1   force =     0.00000000    0.00000000    0.00000000
     atom    4 type  2   force =     0.00000000    0.00000000    0.00000000
     The SCF correction term to forces
     atom    1 type  1   force =     0.00000000    0.00000000    0.00000004
     atom    2 type  1   force =     0.00000000   -0.00000000    0.00000004
     atom    3 type  1   force =    -0.00000000   -0.00000000    0.00000095
     atom    4 type  2   force =    -0.00000000   -0.00000000   -0.00000103

     Total force =     0.000409     Total SCF correction =     0.000001


     Computing stress (Cartesian axis) and pressure

          total   stress  (Ry/bohr**3)                   (kbar)     P=      499.97
   0.00339998  -0.00000000  -0.00000000          500.15       -0.00       -0.00
  -0.00000000   0.00339998   0.00000000           -0.00      500.15        0.00
  -0.00000000   0.00000000   0.00339632           -0.00        0.00      499.62


     Writing all to output data dir ./output/SiLi.save/

     init_run     :      4.52s CPU      9.69s WALL (       2 calls)
     electrons    :    295.77s CPU    336.69s WALL (      10 calls)
     update_pot   :      3.84s CPU      3.89s WALL (       8 calls)
     forces       :      4.51s CPU      4.60s WALL (      10 calls)
     stress       :     27.51s CPU     28.19s WALL (      10 calls)

     Called by init_run:
     wfcinit      :      3.64s CPU      8.62s WALL (       2 calls)
     potinit      :      0.41s CPU      0.53s WALL (       2 calls)
     hinit0       :      0.39s CPU      0.43s WALL (       2 calls)

     Called by electrons:
     c_bands      :    257.77s CPU    292.97s WALL (      88 calls)
     sum_band     :     36.43s CPU     41.39s WALL (      88 calls)
     v_of_rho     :      1.61s CPU      2.34s WALL (      96 calls)
     mix_rho      :      0.10s CPU      0.14s WALL (      88 calls)

     Called by c_bands:
     init_us_2    :      5.32s CPU      5.95s WALL (   29502 calls)
     init_us_2:cp :      5.28s CPU      5.92s WALL (   29502 calls)
     cegterg      :    244.45s CPU    275.50s WALL (   13112 calls)

     Called by *egterg:
     cdiaghg      :      8.45s CPU      9.22s WALL (   57090 calls)
     h_psi        :    224.16s CPU    258.46s WALL (   58878 calls)
     g_psi        :      0.76s CPU      0.79s WALL (   45468 calls)

     Called by h_psi:
     h_psi:calbec :      9.57s CPU     10.75s WALL (   58878 calls)
     vloc_psi     :    207.11s CPU    239.43s WALL (   58878 calls)
     add_vuspsi   :      6.92s CPU      7.67s WALL (   58878 calls)

     General routines
     calbec       :     11.49s CPU     12.70s WALL (   66328 calls)
     fft          :      0.97s CPU      1.80s WALL (    1210 calls)
     ffts         :      0.03s CPU      0.06s WALL (      88 calls)
     fftw         :    209.18s CPU    241.80s WALL ( 1117500 calls)

     Parallel routines

     PWSCF        :   5m36.58s CPU   6m24.00s WALL


   This run was terminated on:  11: 5:28  29Dec2024            

=------------------------------------------------------------------------------=
   JOB DONE.
=------------------------------------------------------------------------------=
