
     Program PWSCF v.7.2 starts on 29Dec2024 at 11: 4: 9 

     This program is part of the open-source Quantum ESPRESSO suite
     for quantum simulation of materials; please cite
         "P. Giannozzi et al., J. Phys.:Condens. Matter 21 395502 (2009);
         "P. Giannozzi et al., J. Phys.:Condens. Matter 29 465901 (2017);
         "P. Giannozzi et al., J. Chem. Phys. 152 154105 (2020);
          URL http://www.quantum-espresso.org", 
     in publications or presentations arising from this work. More details at
     http://www.quantum-espresso.org/quote

     Parallel version (MPI & OpenMP), running on       8 processor cores
     Number of MPI processes:                 8
     Threads/MPI process:                     1

     MPI processes distributed on     1 nodes
     482116 MiB available memory on the printing compute node when the environment starts

     Waiting for input...
     Reading input from standard input

     Current dimensions of program PWSCF are:
     Max number of different atomic species (ntypx) = 10
     Max number of k-points (npk) =  40000
     Max angular momentum in pseudopotentials (lmaxx) =  4

     R & G space division:  proc/nbgrp/npool/nimage =       8
     Subspace diagonalization in iterative solution of the eigenvalue problem:
     a serial algorithm will be used


     Parallelization info
     --------------------
     sticks:   dense  smooth     PW     G-vecs:    dense   smooth      PW
     Min          60      60     18                 1718     1718     298
     Max          61      61     19                 1723     1723     303
     Sum         481     481    145                13763    13763    2393

     Using Slab Decomposition



     bravais-lattice index     =            6
     lattice parameter (alat)  =       4.3221  a.u.
     unit-cell volume          =     142.1607 (a.u.)^3
     number of atoms/cell      =            4
     number of atomic types    =            2
     number of electrons       =        15.00
     number of Kohn-Sham states=           12
     kinetic-energy cutoff     =      80.0000  Ry
     charge density cutoff     =     320.0000  Ry
     scf convergence threshold =      1.0E-08
     mixing beta               =       0.7000
     number of iterations used =            8  plain     mixing
     energy convergence thresh.=      1.0E-04
     force convergence thresh. =      1.0E-03
     press convergence thresh. =      1.0E+00
     Exchange-correlation= PBE
                           (   1   4   3   4   0   0   0)
     nstep                     =           50


     celldm(1)=   4.322081  celldm(2)=   0.000000  celldm(3)=   1.760763
     celldm(4)=   0.000000  celldm(5)=   0.000000  celldm(6)=   0.000000

     crystal axes: (cart. coord. in units of alat)
               a(1) = (   1.000000   0.000000   0.000000 )  
               a(2) = (   0.000000   1.000000   0.000000 )  
               a(3) = (   0.000000   0.000000   1.760763 )  

     reciprocal axes: (cart. coord. in units 2 pi/alat)
               b(1) = (  1.000000  0.000000  0.000000 )  
               b(2) = (  0.000000  1.000000  0.000000 )  
               b(3) = (  0.000000  0.000000  0.567936 )  


     PseudoPot. # 1 for Si read from file:
     ../pseudo/Si_ONCV_PBE_sr.upf
     MD5 check sum: e543d271109d17c80368dfa7c482276d
     Pseudo is Norm-conserving + core correction, Zval =  4.0
     Generated using ONCVPSP code by D. R. Hamann
     Using radial grid of 1510 points,  6 beta functions with: 
                l(1) =   0
                l(2) =   0
                l(3) =   1
                l(4) =   1
                l(5) =   2
                l(6) =   2

     PseudoPot. # 2 for Li read from file:
     ../pseudo/Li_ONCV_PBE_sr.upf
     MD5 check sum: 50ff420e78310ffa21704f3361e624a4
     Pseudo is Norm-conserving, Zval =  3.0
     Generated using ONCVPSP code by D. R. Hamann
     Using radial grid of 1944 points,  4 beta functions with: 
                l(1) =   0
                l(2) =   0
                l(3) =   1
                l(4) =   1

     atomic species   valence    mass     pseudopotential
        Si             4.00    28.08550     Si( 1.00)
        Li             3.00     6.94100     Li( 1.00)

     16 Sym. Ops., with inversion, found



   Cartesian axes

     site n.     atom                  positions (alat units)
         1           Si  tau(   1) = (   0.5000000   0.5000000   0.4083668  )
         2           Si  tau(   2) = (   0.5000000   0.5000000   1.3523964  )
         3           Si  tau(   3) = (   0.0000000   0.0000000   0.8803816  )
         4           Li  tau(   4) = (   0.0000000   0.0000000   0.0000000  )

     number of k points=    45  Marzari-Vanderbilt smearing, width (Ry)=  0.0200
                       cart. coord. in units 2pi/alat
        k(    1) = (   0.0000000   0.0000000   0.0000000), wk =   0.0062500
        k(    2) = (   0.0000000   0.0000000   0.1135871), wk =   0.0125000
        k(    3) = (   0.0000000   0.0000000   0.2271742), wk =   0.0125000
        k(    4) = (   0.0000000   0.1250000   0.0000000), wk =   0.0250000
        k(    5) = (   0.0000000   0.1250000   0.1135871), wk =   0.0500000
        k(    6) = (   0.0000000   0.1250000   0.2271742), wk =   0.0500000
        k(    7) = (   0.0000000   0.2500000   0.0000000), wk =   0.0250000
        k(    8) = (   0.0000000   0.2500000   0.1135871), wk =   0.0500000
        k(    9) = (   0.0000000   0.2500000   0.2271742), wk =   0.0500000
        k(   10) = (   0.0000000   0.3750000   0.0000000), wk =   0.0250000
        k(   11) = (   0.0000000   0.3750000   0.1135871), wk =   0.0500000
        k(   12) = (   0.0000000   0.3750000   0.2271742), wk =   0.0500000
        k(   13) = (   0.0000000  -0.5000000   0.0000000), wk =   0.0125000
        k(   14) = (   0.0000000  -0.5000000   0.1135871), wk =   0.0250000
        k(   15) = (   0.0000000  -0.5000000   0.2271742), wk =   0.0250000
        k(   16) = (   0.1250000   0.1250000   0.0000000), wk =   0.0250000
        k(   17) = (   0.1250000   0.1250000   0.1135871), wk =   0.0500000
        k(   18) = (   0.1250000   0.1250000   0.2271742), wk =   0.0500000
        k(   19) = (   0.1250000   0.2500000   0.0000000), wk =   0.0500000
        k(   20) = (   0.1250000   0.2500000   0.1135871), wk =   0.1000000
        k(   21) = (   0.1250000   0.2500000   0.2271742), wk =   0.1000000
        k(   22) = (   0.1250000   0.3750000   0.0000000), wk =   0.0500000
        k(   23) = (   0.1250000   0.3750000   0.1135871), wk =   0.1000000
        k(   24) = (   0.1250000   0.3750000   0.2271742), wk =   0.1000000
        k(   25) = (   0.1250000  -0.5000000   0.0000000), wk =   0.0250000
        k(   26) = (   0.1250000  -0.5000000   0.1135871), wk =   0.0500000
        k(   27) = (   0.1250000  -0.5000000   0.2271742), wk =   0.0500000
        k(   28) = (   0.2500000   0.2500000   0.0000000), wk =   0.0250000
        k(   29) = (   0.2500000   0.2500000   0.1135871), wk =   0.0500000
        k(   30) = (   0.2500000   0.2500000   0.2271742), wk =   0.0500000
        k(   31) = (   0.2500000   0.3750000   0.0000000), wk =   0.0500000
        k(   32) = (   0.2500000   0.3750000   0.1135871), wk =   0.1000000
        k(   33) = (   0.2500000   0.3750000   0.2271742), wk =   0.1000000
        k(   34) = (   0.2500000  -0.5000000   0.0000000), wk =   0.0250000
        k(   35) = (   0.2500000  -0.5000000   0.1135871), wk =   0.0500000
        k(   36) = (   0.2500000  -0.5000000   0.2271742), wk =   0.0500000
        k(   37) = (   0.3750000   0.3750000   0.0000000), wk =   0.0250000
        k(   38) = (   0.3750000   0.3750000   0.1135871), wk =   0.0500000
        k(   39) = (   0.3750000   0.3750000   0.2271742), wk =   0.0500000
        k(   40) = (   0.3750000  -0.5000000   0.0000000), wk =   0.0250000
        k(   41) = (   0.3750000  -0.5000000   0.1135871), wk =   0.0500000
        k(   42) = (   0.3750000  -0.5000000   0.2271742), wk =   0.0500000
        k(   43) = (  -0.5000000  -0.5000000   0.0000000), wk =   0.0062500
        k(   44) = (  -0.5000000  -0.5000000   0.1135871), wk =   0.0125000
        k(   45) = (  -0.5000000  -0.5000000   0.2271742), wk =   0.0125000

     Dense  grid:    13763 G-vectors     FFT dimensions: (  25,  25,  45)

     Estimated max dynamical RAM per process >      14.71 MB

     Estimated total dynamical RAM >     117.71 MB

     Initial potential from superposition of free atoms

     starting charge      14.9936, renormalised to      15.0000
     Starting wfcs are   14 randomized atomic wfcs

     total cpu time spent up to now is        0.5 secs

     Self-consistent Calculation

     iteration #  1     ecut=    80.00 Ry     beta= 0.70
     Davidson diagonalization with overlap
     ethr =  1.00E-02,  avg # of iterations =  6.2

     Threshold (ethr) on eigenvalues was too large:
     Diagonalizing with lowered threshold

     Davidson diagonalization with overlap
     ethr =  5.32E-04,  avg # of iterations =  2.4

     total cpu time spent up to now is        1.1 secs

     total energy              =     -37.78894685 Ry
     estimated scf accuracy    <       0.08060562 Ry

     iteration #  2     ecut=    80.00 Ry     beta= 0.70
     Davidson diagonalization with overlap
     ethr =  5.37E-04,  avg # of iterations =  2.4

     total cpu time spent up to now is        1.3 secs

     total energy              =     -37.79032858 Ry
     estimated scf accuracy    <       0.04322305 Ry

     iteration #  3     ecut=    80.00 Ry     beta= 0.70
     Davidson diagonalization with overlap
     ethr =  2.88E-04,  avg # of iterations =  2.0

     total cpu time spent up to now is        1.5 secs

     total energy              =     -37.80231229 Ry
     estimated scf accuracy    <       0.00638998 Ry

     iteration #  4     ecut=    80.00 Ry     beta= 0.70
     Davidson diagonalization with overlap
     ethr =  4.26E-05,  avg # of iterations =  2.3

     total cpu time spent up to now is        1.7 secs

     total energy              =     -37.80328130 Ry
     estimated scf accuracy    <       0.00003538 Ry

     iteration #  5     ecut=    80.00 Ry     beta= 0.70
     Davidson diagonalization with overlap
     ethr =  2.36E-07,  avg # of iterations =  5.8

     total cpu time spent up to now is        2.0 secs

     total energy              =     -37.80331617 Ry
     estimated scf accuracy    <       0.00000726 Ry

     iteration #  6     ecut=    80.00 Ry     beta= 0.70
     Davidson diagonalization with overlap
     ethr =  4.84E-08,  avg # of iterations =  2.0

     total cpu time spent up to now is        2.3 secs

     total energy              =     -37.80331773 Ry
     estimated scf accuracy    <       0.00000002 Ry

     iteration #  7     ecut=    80.00 Ry     beta= 0.70
     Davidson diagonalization with overlap
     ethr =  1.11E-10,  avg # of iterations =  4.1

     total cpu time spent up to now is        2.6 secs

     End of self-consistent calculation

          k = 0.0000 0.0000 0.0000 (  1749 PWs)   bands (ev):

   -22.7993   2.9482  10.4046  14.0434  24.3679  26.3544  26.3544  27.8476
    32.9563  32.9563  33.8879  33.8881

          k = 0.0000 0.0000 0.1136 (  1730 PWs)   bands (ev):

   -22.7979   2.9772   9.6864  15.4908  24.6171  25.6968  26.5874  26.5874
    30.9779  30.9779  31.1856  36.3760

          k = 0.0000 0.0000 0.2272 (  1710 PWs)   bands (ev):

   -22.7955   3.0270   8.9240  18.4287  22.0303  25.1551  27.1800  27.1800
    29.3073  29.3073  29.3735  39.2833

          k = 0.0000 0.1250 0.0000 (  1717 PWs)   bands (ev):

   -22.7658   3.3298  10.7988  14.1661  20.6687  26.6619  27.1263  28.9257
    29.8465  31.5396  33.2748  34.1586

          k = 0.0000 0.1250 0.1136 (  1716 PWs)   bands (ev):

   -22.7644   3.3695  10.0046  15.6611  20.8376  25.7869  26.8554  26.8930
    30.4838  31.2935  32.6464  35.5229

          k = 0.0000 0.1250 0.2272 (  1712 PWs)   bands (ev):

   -22.7623   3.4381   9.1850  18.5206  20.9385  22.9093  25.2926  27.4764
    29.6370  30.3651  33.8036  36.3943

          k = 0.0000 0.2500 0.0000 (  1714 PWs)   bands (ev):

   -22.6842   4.4592  11.9609  14.4194  16.4262  24.5324  26.1884  27.5877
    28.5178  34.0789  34.9379  36.0667

          k = 0.0000 0.2500 0.1136 (  1716 PWs)   bands (ev):

   -22.6831   4.5308  10.9154  16.0431  16.5206  23.0620  26.8511  27.8122
    28.8150  32.2008  34.3077  37.0701

          k = 0.0000 0.2500 0.2272 (  1723 PWs)   bands (ev):

   -22.6813   4.6585   9.9398  16.6886  18.4003  22.1534  24.2294  28.3667
    30.6107  32.1194  33.7438  36.7647

          k = 0.0000 0.3750 0.0000 (  1714 PWs)   bands (ev):

   -22.6016   6.2701  12.3706  13.7876  15.1398  20.6809  23.7670  29.1356
    30.4848  33.7170  36.0482  37.0322

          k = 0.0000 0.3750 0.1136 (  1716 PWs)   bands (ev):

   -22.6008   6.3999  11.8965  13.1287  16.0605  20.8533  25.1055  29.3221
    29.3441  33.2017  35.2870  35.7869

          k = 0.0000 0.3750 0.2272 (  1710 PWs)   bands (ev):

   -22.5993   6.6446  11.0350  12.8966  16.4509  22.6995  25.5339  28.9936
    29.8355  32.1069  32.4674  35.2795

          k = 0.0000-0.5000 0.0000 (  1728 PWs)   bands (ev):

   -22.5672   8.0261  10.0045  15.3146  15.3477  18.4353  22.8679  31.1277
    31.4538  32.2190  35.4960  36.7384

          k = 0.0000-0.5000 0.1136 (  1718 PWs)   bands (ev):

   -22.5664   8.2985   9.9389  13.7297  15.2798  20.5532  23.6897  31.2010
    31.2709  31.7399  33.2191  35.6685

          k = 0.0000-0.5000 0.2272 (  1702 PWs)   bands (ev):

   -22.5651   8.9406   9.8350  11.9720  15.1858  23.8236  25.7499  28.6650
    29.8205  31.3314  32.5889  33.9650

          k = 0.1250 0.1250 0.0000 (  1713 PWs)   bands (ev):

   -22.7332   3.7111  11.1905  14.3218  19.9021  23.2249  28.0703  28.6231
    31.0593  31.7640  32.4870  33.0049

          k = 0.1250 0.1250 0.1136 (  1712 PWs)   bands (ev):

   -22.7319   3.7607  10.3249  15.8641  20.1541  22.9668  25.6136  28.8857
    30.3289  31.7024  32.7140  34.9438

          k = 0.1250 0.1250 0.2272 (  1710 PWs)   bands (ev):

   -22.7299   3.8472   9.4538  18.7065  20.7453  21.5522  23.7824  26.7149
    29.2791  33.2160  35.1252  37.0611

          k = 0.1250 0.2500 0.0000 (  1705 PWs)   bands (ev):

   -22.6539   4.8396  12.3452  14.6831  16.5512  23.2887  24.6670  25.8364
    31.6315  31.7671  33.3154  35.3103

          k = 0.1250 0.2500 0.1136 (  1718 PWs)   bands (ev):

   -22.6528   4.9189  11.2451  16.3448  16.6939  22.8065  23.2181  28.1849
    29.7921  31.1528  34.0416  35.5423

          k = 0.1250 0.2500 0.2272 (  1714 PWs)   bands (ev):

   -22.6512   5.0617  10.2330  16.9698  18.7152  21.5365  22.6772  27.2633
    29.5209  32.3565  34.4805  36.4764

          k = 0.1250 0.3750 0.0000 (  1720 PWs)   bands (ev):

   -22.5737   6.6501  12.6949  14.1605  15.4380  20.9721  23.4535  24.9569
    30.6353  32.6601  32.7938  35.8538

          k = 0.1250 0.3750 0.1136 (  1720 PWs)   bands (ev):

   -22.5728   6.7838  12.2732  13.4003  16.4231  20.8784  24.8763  25.0562
    30.5112  31.4136  32.5775  34.8975

          k = 0.1250 0.3750 0.2272 (  1714 PWs)   bands (ev):

   -22.5715   7.0380  11.3794  13.2341  16.6960  22.4343  24.2996  27.7185
    29.0821  30.5527  31.6419  34.3243

          k = 0.1250-0.5000 0.0000 (  1716 PWs)   bands (ev):

   -22.5402   8.4213  10.3242  15.6834  15.7116  18.7598  22.5903  26.7377
    28.1948  33.2275  33.3423  37.6928

          k = 0.1250-0.5000 0.1136 (  1720 PWs)   bands (ev):

   -22.5394   8.6907  10.2807  14.1086  15.5591  20.8388  23.4433  26.7765
    28.1335  32.5920  33.0166  35.4811

          k = 0.1250-0.5000 0.2272 (  1708 PWs)   bands (ev):

   -22.5382   9.3233  10.2102  12.3668  15.3526  23.9546  25.3715  26.5242
    27.7849  31.1810  31.9178  32.9876

          k = 0.2500 0.2500 0.0000 (  1713 PWs)   bands (ev):

   -22.5802   5.9649  13.4790  15.3846  16.1559  20.2033  24.2974  24.6081
    28.3755  29.7884  30.5650  37.6993

          k = 0.2500 0.2500 0.1136 (  1717 PWs)   bands (ev):

   -22.5793   6.0678  12.2012  16.4121  17.1323  20.1943  21.7078  27.8626
    28.0786  29.6120  30.7211  33.7798

          k = 0.2500 0.2500 0.2272 (  1721 PWs)   bands (ev):

   -22.5779   6.2585  11.0851  17.0292  19.0537  19.8438  20.4968  27.0612
    29.0908  30.4974  31.6723  32.3908

          k = 0.2500 0.3750 0.0000 (  1720 PWs)   bands (ev):

   -22.5057   7.7724  13.5370  15.2648  16.3063  20.5665  21.7176  22.9676
    26.5204  28.2163  29.1759  37.5889

          k = 0.2500 0.3750 0.1136 (  1715 PWs)   bands (ev):

   -22.5050   7.9190  13.3582  14.1187  17.4831  20.5980  20.7785  25.0317
    26.5273  28.1525  29.4915  34.6268

          k = 0.2500 0.3750 0.2272 (  1724 PWs)   bands (ev):

   -22.5038   8.2046  12.3746  14.1705  17.3075  20.4258  21.9136  26.1327
    27.6200  28.3244  30.6131  31.0805

          k = 0.2500-0.5000 0.0000 (  1710 PWs)   bands (ev):

   -22.4747   9.5906  11.2266  16.7776  16.8072  19.6447  21.8541  22.1689
    24.3366  28.6879  28.8937  36.3030

          k = 0.2500-0.5000 0.1136 (  1722 PWs)   bands (ev):

   -22.4740   9.8518  11.2542  15.2234  16.3579  21.4282  22.4620  22.8041
    24.1550  28.5354  29.1540  36.6791

          k = 0.2500-0.5000 0.2272 (  1720 PWs)   bands (ev):

   -22.4728  10.4597  11.3013  13.5227  15.7985  22.3546  23.4806  24.0630
    24.9326  28.8300  30.2559  32.5369

          k = 0.3750 0.3750 0.0000 (  1726 PWs)   bands (ev):

   -22.4371   9.5682  13.9262  17.0267  17.5917  17.9991  22.0566  22.1665
    22.9652  25.0464  26.0933  34.6566

          k = 0.3750 0.3750 0.1136 (  1718 PWs)   bands (ev):

   -22.4364   9.7413  14.1849  15.2410  17.8344  19.3748  19.6565  22.8410
    25.4538  25.5090  26.1764  35.3230

          k = 0.3750 0.3750 0.2272 (  1724 PWs)   bands (ev):

   -22.4353  10.0950  13.8838  14.8186  17.4974  17.7792  21.1143  22.7048
    25.4701  28.0178  29.2875  31.6184

          k = 0.3750-0.5000 0.0000 (  1710 PWs)   bands (ev):

   -22.4085  11.4576  12.4601  17.7518  18.6444  19.1007  20.5921  20.7490
    21.8783  24.5941  24.8141  33.4378

          k = 0.3750-0.5000 0.1136 (  1724 PWs)   bands (ev):

   -22.4078  11.7092  12.6148  16.8991  17.5079  18.3768  20.8859  22.1131
    22.1489  25.3200  26.0585  34.4423

          k = 0.3750-0.5000 0.2272 (  1736 PWs)   bands (ev):

   -22.4068  12.2939  12.9305  15.2943  16.3490  18.5977  20.2910  22.0957
    23.3606  28.0946  29.0254  33.5394

          k =-0.5000-0.5000 0.0000 (  1720 PWs)   bands (ev):

   -22.3808  13.1877  13.1877  15.6019  19.5142  21.1613  21.3148  21.3148
    21.3517  21.3517  21.5252  32.2683

          k =-0.5000-0.5000 0.1136 (  1728 PWs)   bands (ev):

   -22.3802  13.4472  13.4472  15.7704  18.6001  18.6001  18.9556  21.0555
    21.9122  24.7238  24.7238  33.2220

          k =-0.5000-0.5000 0.2272 (  1740 PWs)   bands (ev):

   -22.3792  14.0867  14.0867  16.0944  16.7188  16.7188  18.4134  20.3041
    22.7887  28.4827  28.4827  34.6362

     the Fermi energy is    25.6479 ev

!    total energy              =     -37.80331775 Ry
     estimated scf accuracy    <          4.2E-09 Ry
     smearing contrib. (-TS)   =       0.00023157 Ry
     internal energy E=F+TS    =     -37.80354932 Ry

     The total energy is F=E-TS. E is the sum of the following terms:
     one-electron contribution =      24.76815971 Ry
     hartree contribution      =       2.74847562 Ry
     xc contribution           =     -15.57810931 Ry
     ewald contribution        =     -49.74207535 Ry

     convergence has been achieved in   7 iterations

     Forces acting on atoms (cartesian axes, Ry/au):

     atom    1 type  1   force =     0.00000000    0.00000000   -0.06548864
     atom    2 type  1   force =     0.00000000    0.00000000    0.06548864
     atom    3 type  1   force =     0.00000000    0.00000000    0.00000000
     atom    4 type  2   force =     0.00000000    0.00000000    0.00000000
     The non-local contrib.  to forces
     atom    1 type  1   force =     0.00000000    0.00000000    0.07629289
     atom    2 type  1   force =     0.00000000    0.00000000   -0.07629289
     atom    3 type  1   force =     0.00000000    0.00000000    0.00000000
     atom    4 type  2   force =     0.00000000    0.00000000    0.00000000
     The ionic contribution  to forces
     atom    1 type  1   force =    -0.00000000   -0.00000000    0.20870012
     atom    2 type  1   force =    -0.00000000   -0.00000000   -0.20870012
     atom    3 type  1   force =    -0.00000000   -0.00000000    0.00000000
     atom    4 type  2   force =    -0.00000000   -0.00000000   -0.00000000
     The local contribution  to forces
     atom    1 type  1   force =    -0.00000000    0.00000000   -0.35315951
     atom    2 type  1   force =    -0.00000000   -0.00000000    0.35315951
     atom    3 type  1   force =     0.00000000   -0.00000000   -0.00000000
     atom    4 type  2   force =     0.00000000    0.00000000    0.00000000
     The core correction contribution to forces
     atom    1 type  1   force =    -0.00000000   -0.00000000    0.00259086
     atom    2 type  1   force =     0.00000000    0.00000000   -0.00259086
     atom    3 type  1   force =     0.00000000    0.00000000   -0.00000000
     atom    4 type  2   force =     0.00000000    0.00000000    0.00000000
     The Hubbard contrib.    to forces
     atom    1 type  1   force =     0.00000000    0.00000000    0.00000000
     atom    2 type  1   force =     0.00000000    0.00000000    0.00000000
     atom    3 type  1   force =     0.00000000    0.00000000    0.00000000
     atom    4 type  2   force =     0.00000000    0.00000000    0.00000000
     The SCF correction term to forces
     atom    1 type  1   force =     0.00000000   -0.00000000    0.00008699
     atom    2 type  1   force =     0.00000000    0.00000000   -0.00008699
     atom    3 type  1   force =    -0.00000000   -0.00000000   -0.00000000
     atom    4 type  2   force =     0.00000000    0.00000000    0.00000000

     Total force =     0.092615     Total SCF correction =     0.000123


     Computing stress (Cartesian axis) and pressure

          total   stress  (Ry/bohr**3)                   (kbar)     P=     5412.65
   0.03382043   0.00000000   0.00000000         4975.16        0.00        0.00
   0.00000000   0.03382043   0.00000000            0.00     4975.16        0.00
   0.00000000   0.00000000   0.04274256            0.00        0.00     6287.65


     BFGS Geometry Optimization
     Energy error            =      0.0E+00 Ry
     Gradient error          =      6.5E-02 Ry/Bohr
     Cell gradient error     =      5.8E+03 kbar

     number of scf cycles    =   1
     number of bfgs steps    =   0

     enthalpy           new  =     -37.3201232122 Ry

     new trust radius        =       0.5000000000 bohr
ibrav =      6
 celldm(1) =      5.02280873
 celldm(3) =      1.83280617
Input lattice vectors:
     1.16212738     0.00000000     0.00000000
     0.00000000     1.16212738     0.00000000
     0.00000000     0.00000000     2.12995423
New lattice vectors in INITIAL alat:
     1.16212738     0.00000000     0.00000000
     0.00000000     1.16212738     0.00000000
     0.00000000     0.00000000     2.12995423
New lattice vectors in NEW alat (for information only):
     1.00000000     0.00000000     0.00000000
     0.00000000     1.00000000     0.00000000
     0.00000000     0.00000000     1.83280617
Discrepancy in bohr =     0.000000    0.000000    0.000000
     new conv_thr            =       0.0000000100 Ry

     new unit-cell volume =    232.25039 a.u.^3 (    34.41596 Ang^3 )
     density =      4.40020 g/cm^3

CELL_PARAMETERS (alat=  4.32208106)
   1.162127377   0.000000000   0.000000000
   0.000000000   1.162127377   0.000000000
   0.000000000   0.000000000   2.129954229

ATOMIC_POSITIONS (crystal)
Si            0.5000000000        0.5000000000        0.2300915414
Si            0.5000000000        0.5000000000        0.7699084586
Si            0.0000000000        0.0000000000        0.5000000000
Li            0.0000000000        0.0000000000        0.0000000000



     Writing config-only to output data dir ./output/SiLi.save/
     NEW-OLD atomic charge density approx. for the potential
     extrapolated charge   20.81600, renormalised to   15.00000

     total cpu time spent up to now is        3.3 secs

     Self-consistent Calculation

     iteration #  1     ecut=    80.00 Ry     beta= 0.70
     Davidson diagonalization with overlap
     c_bands:  1 eigenvalues not converged
     c_bands:  1 eigenvalues not converged
     c_bands:  1 eigenvalues not converged
     c_bands:  1 eigenvalues not converged
     ethr =  1.00E-06,  avg # of iterations = 13.8

     total cpu time spent up to now is        4.1 secs

     total energy              =     -39.22653384 Ry
     estimated scf accuracy    <       0.05032212 Ry

     iteration #  2     ecut=    80.00 Ry     beta= 0.70
     Davidson diagonalization with overlap
     ethr =  3.35E-04,  avg # of iterations =  3.3

     total cpu time spent up to now is        4.4 secs

     total energy              =     -39.34773208 Ry
     estimated scf accuracy    <       0.28867709 Ry

     iteration #  3     ecut=    80.00 Ry     beta= 0.70
     Davidson diagonalization with overlap
     ethr =  3.35E-04,  avg # of iterations =  2.1

     total cpu time spent up to now is        4.7 secs

     total energy              =     -39.36745743 Ry
     estimated scf accuracy    <       0.03117250 Ry

     iteration #  4     ecut=    80.00 Ry     beta= 0.70
     Davidson diagonalization with overlap
     ethr =  2.08E-04,  avg # of iterations =  1.0

     total cpu time spent up to now is        4.9 secs

     total energy              =     -39.35932962 Ry
     estimated scf accuracy    <       0.01554938 Ry

     iteration #  5     ecut=    80.00 Ry     beta= 0.70
     Davidson diagonalization with overlap
     ethr =  1.04E-04,  avg # of iterations =  2.0

     total cpu time spent up to now is        5.1 secs

     total energy              =     -39.36268514 Ry
     estimated scf accuracy    <       0.00039862 Ry

     iteration #  6     ecut=    80.00 Ry     beta= 0.70
     Davidson diagonalization with overlap
     ethr =  2.66E-06,  avg # of iterations =  4.5

     total cpu time spent up to now is        5.4 secs

     total energy              =     -39.36276801 Ry
     estimated scf accuracy    <       0.00004496 Ry

     iteration #  7     ecut=    80.00 Ry     beta= 0.70
     Davidson diagonalization with overlap
     ethr =  3.00E-07,  avg # of iterations =  1.9

     total cpu time spent up to now is        5.6 secs

     total energy              =     -39.36277248 Ry
     estimated scf accuracy    <       0.00000332 Ry

     iteration #  8     ecut=    80.00 Ry     beta= 0.70
     Davidson diagonalization with overlap
     ethr =  2.21E-08,  avg # of iterations =  2.8

     total cpu time spent up to now is        5.9 secs

     total energy              =     -39.36277346 Ry
     estimated scf accuracy    <       0.00000007 Ry

     iteration #  9     ecut=    80.00 Ry     beta= 0.70
     Davidson diagonalization with overlap
     ethr =  4.39E-10,  avg # of iterations =  3.7

     total cpu time spent up to now is        6.1 secs

     total energy              =     -39.36277347 Ry
     estimated scf accuracy    <       0.00000007 Ry

     iteration # 10     ecut=    80.00 Ry     beta= 0.70
     Davidson diagonalization with overlap
     ethr =  4.39E-10,  avg # of iterations =  2.3

     total cpu time spent up to now is        6.4 secs

     End of self-consistent calculation

          k = 0.0000 0.0000 0.0000 (  1749 PWs)   bands (ev):

   -30.4484  -1.7347   3.7039   5.9430  16.0651  16.0651  17.2618  18.7191
    20.4276  21.4067  21.4067  21.9584

          k = 0.0000 0.0000 0.0939 (  1730 PWs)   bands (ev):

   -30.4468  -1.6348   2.8140   7.3486  16.1642  16.2403  16.2403  17.4402
    19.8144  19.8144  21.7179  21.9710

          k = 0.0000 0.0000 0.1878 (  1710 PWs)   bands (ev):

   -30.4455  -1.4430   1.9235   9.8628  12.9320  16.6639  16.6639  17.8365
    18.5559  18.5559  20.4723  22.5085

          k = 0.0000 0.1076 0.0000 (  1717 PWs)   bands (ev):

   -30.4393  -1.4320   4.0146   6.1169  12.7323  16.3403  18.2744  18.4673
    19.5151  20.7050  21.2461  21.6806

          k = 0.0000 0.1076 0.0939 (  1716 PWs)   bands (ev):

   -30.4389  -1.3285   3.0865   7.5478  12.8439  16.4696  16.5151  17.1196
    19.7844  20.0975  21.4223  23.4588

          k = 0.0000 0.1076 0.1878 (  1712 PWs)   bands (ev):

   -30.4386  -1.1278   2.1746  10.0203  12.6501  13.8850  15.9836  16.9363
    18.8417  19.9578  22.8268  24.0189

          k = 0.0000 0.2151 0.0000 (  1714 PWs)   bands (ev):

   -30.4217  -0.5311   4.9414   6.5505   9.2016  14.6362  16.5348  17.1669
    19.4693  21.5304  22.5026  23.1257

          k = 0.0000 0.2151 0.0939 (  1716 PWs)   bands (ev):

   -30.4216  -0.4159   3.8827   8.0292   9.3106  13.6945  17.2399  17.3401
    18.4071  20.9453  21.3955  25.0997

          k = 0.0000 0.2151 0.1878 (  1723 PWs)   bands (ev):

   -30.4220  -0.1869   2.9108   9.4982  10.0932  13.0016  14.6457  17.7544
    19.6983  20.6982  21.4795  23.8946

          k = 0.0000 0.3227 0.0000 (  1714 PWs)   bands (ev):

   -30.4042   0.9371   5.6743   6.4593   7.6422  11.4333  14.3126  18.5446
    20.9567  22.9005  22.9806  23.8726

          k = 0.0000 0.3227 0.0939 (  1716 PWs)   bands (ev):

   -30.4044   1.0749   4.9834   6.2073   8.5328  11.4502  15.3607  18.7151
    19.1583  22.3492  22.9066  23.1494

          k = 0.0000 0.3227 0.1878 (  1710 PWs)   bands (ev):

   -30.4041   1.3623   4.0302   6.3089   8.7158  13.0278  15.7047  18.1394
    19.1179  20.9057  21.1202  23.5243

          k = 0.0000-0.4302 0.0000 (  1728 PWs)   bands (ev):

   -30.3979   2.4827   3.6855   7.9159   8.1144   9.2104  13.4094  20.2873
    20.6955  22.3164  24.3120  24.6730

          k = 0.0000-0.4302 0.0939 (  1718 PWs)   bands (ev):

   -30.3970   2.6965   3.7147   6.4331   7.8621  11.1107  14.1891  20.4476
    20.6280  20.8711  21.9877  24.0307

          k = 0.0000-0.4302 0.1878 (  1702 PWs)   bands (ev):

   -30.3964   3.2486   3.7651   4.9987   7.5124  13.7457  16.0748  17.6245
    19.0485  20.8204  21.2794  22.8421

          k = 0.1076 0.1076 0.0000 (  1713 PWs)   bands (ev):

   -30.4321  -1.1296   4.3246   6.3041  12.4180  13.8326  17.9490  19.0243
    19.4517  20.2313  20.9849  21.8753

          k = 0.1076 0.1076 0.0939 (  1712 PWs)   bands (ev):

   -30.4317  -1.0224   3.3602   7.7605  12.5994  13.7913  16.4578  17.3490
    18.7396  20.9948  22.2822  22.5468

          k = 0.1076 0.1076 0.1878 (  1710 PWs)   bands (ev):

   -30.4316  -0.8132   2.4287  10.2041  12.9036  13.0270  15.1611  15.1937
    17.9027  22.6609  23.7736  25.1310

          k = 0.1076 0.2151 0.0000 (  1705 PWs)   bands (ev):

   -30.4145  -0.2289   5.2490   6.7851   9.4077  14.1393  14.8739  16.5554
    19.7530  20.6574  21.8074  22.7466

          k = 0.1076 0.2151 0.0939 (  1718 PWs)   bands (ev):

   -30.4152  -0.1107   4.1610   8.2918   9.5321  13.7575  14.2454  17.7775
    18.1879  19.5783  22.6589  23.4181

          k = 0.1076 0.2151 0.1878 (  1714 PWs)   bands (ev):

   -30.4148   0.1257   3.1743   9.7631  10.3714  12.9930  13.9175  15.6705
    18.0689  21.0069  23.3942  24.3103

          k = 0.1076 0.3227 0.0000 (  1720 PWs)   bands (ev):

   -30.3983   1.2397   5.9704   6.7627   7.8838  11.7172  14.2475  15.6180
    20.1367  21.1035  21.7903  23.1653

          k = 0.1076 0.3227 0.0939 (  1720 PWs)   bands (ev):

   -30.3984   1.3791   5.2831   6.4754   8.8265  11.6214  15.3699  15.6802
    19.4282  20.3064  20.7019  23.0387

          k = 0.1076 0.3227 0.1878 (  1714 PWs)   bands (ev):

   -30.3979   1.6717   4.3145   6.5992   8.9713  13.1022  15.3035  16.9030
    17.8878  19.4901  20.2311  21.6337

          k = 0.1076-0.4302 0.0000 (  1716 PWs)   bands (ev):

   -30.3909   2.7942   3.9683   8.2096   8.4108   9.5081  13.3717  17.1067
    18.0940  22.3532  22.5897  23.6188

          k = 0.1076-0.4302 0.0939 (  1720 PWs)   bands (ev):

   -30.3913   3.0069   4.0049   6.7370   8.1190  11.3882  14.1823  17.2252
    18.1092  20.9709  21.7811  21.9290

          k = 0.1076-0.4302 0.1878 (  1708 PWs)   bands (ev):

   -30.3905   3.5553   4.0686   5.3101   7.7216  13.9599  16.0953  17.1076
    17.9821  18.8464  19.4090  20.1682

          k = 0.2151 0.2151 0.0000 (  1713 PWs)   bands (ev):

   -30.3990   0.6712   6.1663   7.4289   9.4375  11.3449  15.0104  16.0375
    16.8488  18.5358  20.0377  22.6212

          k = 0.2151 0.2151 0.0939 (  1717 PWs)   bands (ev):

   -30.3990   0.7985   4.9793   9.0142   9.6218  11.3644  13.4785  16.2473
    18.0631  18.8110  19.8560  20.9418

          k = 0.2151 0.2151 0.1878 (  1721 PWs)   bands (ev):

   -30.3993   1.0586   3.9494  10.0606  11.0530  11.4168  12.1594  15.2311
    17.2787  20.1573  20.9405  20.9452

          k = 0.2151 0.3227 0.0000 (  1720 PWs)   bands (ev):

   -30.3832   2.1405   6.8280   7.6673   8.5550  11.9419  12.5278  14.4059
    16.6016  17.5313  18.7149  22.2823

          k = 0.2151 0.3227 0.0939 (  1715 PWs)   bands (ev):

   -30.3828   2.2856   6.1710   7.2374   9.7007  11.7545  12.3230  15.6228
    16.3766  17.2472  19.2604  21.0233

          k = 0.2151 0.3227 0.1878 (  1724 PWs)   bands (ev):

   -30.3834   2.5946   5.1531   7.4432   9.7019  12.3290  12.8011  16.1332
    17.0171  17.4175  18.2762  20.1958

          k = 0.2151-0.4302 0.0000 (  1710 PWs)   bands (ev):

   -30.3762   3.7242   4.7978   9.0841   9.3005  10.3764  13.1078  13.4191
    14.9270  18.7419  18.8281  20.4235

          k = 0.2151-0.4302 0.0939 (  1722 PWs)   bands (ev):

   -30.3766   3.9340   4.8583   7.6423   8.8681  12.1626  13.5956  13.9618
    14.8747  17.6328  18.8438  21.8213

          k = 0.2151-0.4302 0.1878 (  1720 PWs)   bands (ev):

   -30.3765   4.4710   4.9680   6.2389   8.3188  14.0080  14.1958  14.7164
    15.6876  17.0196  18.5764  19.3390

          k = 0.3227 0.3227 0.0000 (  1726 PWs)   bands (ev):

   -30.3682   3.6118   7.6488   9.0009   9.1476  10.1049  13.2399  13.4308
    14.1995  15.0129  16.3550  19.3400

          k = 0.3227 0.3227 0.0939 (  1718 PWs)   bands (ev):

   -30.3675   3.7681   7.5871   7.8348   9.6587  11.0327  11.6762  13.5226
    15.2875  16.0380  16.2579  20.1319

          k = 0.3227 0.3227 0.1878 (  1724 PWs)   bands (ev):

   -30.3682   4.1121   6.4804   8.2809   9.7802  10.3452  11.6589  13.9153
    15.7273  16.5827  18.9111  19.1485

          k = 0.3227-0.4302 0.0000 (  1710 PWs)   bands (ev):

   -30.3608   5.2559   6.0713  10.0819  10.6174  10.7825  11.4149  11.6870
    13.7010  15.5706  15.5767  17.5896

          k = 0.3227-0.4302 0.0939 (  1724 PWs)   bands (ev):

   -30.3618   5.4602   6.1818   9.1133   9.9615  10.3848  11.7163  12.8096
    13.9192  15.2248  16.4607  19.0547

          k = 0.3227-0.4302 0.1878 (  1736 PWs)   bands (ev):

   -30.3626   5.9773   6.4020   7.7649   9.1554  10.8595  11.6655  12.3713
    14.3771  17.0962  18.5513  21.2509

          k =-0.4302-0.4302 0.0000 (  1720 PWs)   bands (ev):

   -30.3546   7.0532   7.0532   7.7919   9.9894  11.9456  12.6497  12.6497
    13.1074  13.5834  13.5834  16.1079

          k =-0.4302-0.4302 0.0939 (  1728 PWs)   bands (ev):

   -30.3558   7.2398   7.2398   8.0043   9.8909  11.0747  11.0747  11.1762
    13.2995  15.6528  15.6528  17.2368

          k =-0.4302-0.4302 0.1878 (  1740 PWs)   bands (ev):

   -30.3566   7.6884   7.6884   8.5695   9.7398   9.7398   9.7490   9.9947
    13.6003  18.5431  18.5431  19.3690

     the Fermi energy is    15.8984 ev

!    total energy              =     -39.36277348 Ry
     estimated scf accuracy    <          1.6E-10 Ry
     smearing contrib. (-TS)   =       0.00069156 Ry
     internal energy E=F+TS    =     -39.36346504 Ry

     The total energy is F=E-TS. E is the sum of the following terms:
     one-electron contribution =      13.92824061 Ry
     hartree contribution      =       2.87713935 Ry
     xc contribution           =     -13.92136248 Ry
     ewald contribution        =     -42.24748251 Ry

     convergence has been achieved in  10 iterations

     Forces acting on atoms (cartesian axes, Ry/au):

     atom    1 type  1   force =     0.00000000    0.00000000    0.01468156
     atom    2 type  1   force =     0.00000000    0.00000000   -0.01468156
     atom    3 type  1   force =     0.00000000    0.00000000    0.00000000
     atom    4 type  2   force =     0.00000000    0.00000000    0.00000000
     The non-local contrib.  to forces
     atom    1 type  1   force =     0.00000000    0.00000000    0.05104185
     atom    2 type  1   force =     0.00000000    0.00000000   -0.05104185
     atom    3 type  1   force =     0.00000000    0.00000000    0.00000000
     atom    4 type  2   force =     0.00000000    0.00000000    0.00000000
     The ionic contribution  to forces
     atom    1 type  1   force =     0.00000000    0.00000000    0.20234243
     atom    2 type  1   force =     0.00000000    0.00000000   -0.20234243
     atom    3 type  1   force =    -0.00000000   -0.00000000    0.00000000
     atom    4 type  2   force =    -0.00000000   -0.00000000   -0.00000000
     The local contribution  to forces
     atom    1 type  1   force =     0.00000000    0.00000000   -0.23755349
     atom    2 type  1   force =    -0.00000000   -0.00000000    0.23755349
     atom    3 type  1   force =     0.00000000   -0.00000000    0.00000000
     atom    4 type  2   force =    -0.00000000    0.00000000    0.00000000
     The core correction contribution to forces
     atom    1 type  1   force =     0.00000000    0.00000000   -0.00115174
     atom    2 type  1   force =    -0.00000000    0.00000000    0.00115174
     atom    3 type  1   force =    -0.00000000    0.00000000    0.00000000
     atom    4 type  2   force =     0.00000000    0.00000000    0.00000000
     The Hubbard contrib.    to forces
     atom    1 type  1   force =     0.00000000    0.00000000    0.00000000
     atom    2 type  1   force =     0.00000000    0.00000000    0.00000000
     atom    3 type  1   force =     0.00000000    0.00000000    0.00000000
     atom    4 type  2   force =     0.00000000    0.00000000    0.00000000
     The SCF correction term to forces
     atom    1 type  1   force =    -0.00000000    0.00000000    0.00000251
     atom    2 type  1   force =     0.00000000   -0.00000000   -0.00000251
     atom    3 type  1   force =    -0.00000000    0.00000000   -0.00000000
     atom    4 type  2   force =    -0.00000000    0.00000000    0.00000000

     Total force =     0.020763     Total SCF correction =     0.000004


     Computing stress (Cartesian axis) and pressure

          total   stress  (Ry/bohr**3)                   (kbar)     P=      972.60
   0.00651805   0.00000000   0.00000000          958.84        0.00        0.00
   0.00000000   0.00651805   0.00000000            0.00      958.84        0.00
   0.00000000   0.00000000   0.00679879            0.00        0.00     1000.14

     Energy error            =      1.3E+00 Ry
     Gradient error          =      1.5E-02 Ry/Bohr
     Cell gradient error     =      5.0E+02 kbar

     number of scf cycles    =   2
     number of bfgs steps    =   1

     enthalpy           old  =     -37.3201232122 Ry
     enthalpy           new  =     -38.5733704378 Ry

     CASE: enthalpy          _new < enthalpy          _old

     new trust radius        =       0.0944428919 bohr
ibrav =      6
 celldm(1) =      5.17844388
 celldm(3) =      1.80051531
Input lattice vectors:
     1.19813669     0.00000000     0.00000000
     0.00000000     1.19813669     0.00000000
     0.00000000     0.00000000     2.15726345
New lattice vectors in INITIAL alat:
     1.19813669     0.00000000     0.00000000
     0.00000000     1.19813669     0.00000000
     0.00000000     0.00000000     2.15726345
New lattice vectors in NEW alat (for information only):
     1.00000000     0.00000000     0.00000000
     0.00000000     1.00000000     0.00000000
     0.00000000     0.00000000     1.80051531
Discrepancy in bohr =     0.000000    0.000000    0.000000
     new conv_thr            =       0.0000000015 Ry

     new unit-cell volume =    250.03145 a.u.^3 (    37.05084 Ang^3 )
     density =      4.08728 g/cm^3

CELL_PARAMETERS (alat=  4.32208106)
   1.198136686   0.000000000   0.000000000
   0.000000000   1.198136686   0.000000000
   0.000000000   0.000000000   2.157263449

ATOMIC_POSITIONS (crystal)
Si            0.5000000000        0.5000000000        0.2337986495
Si            0.5000000000        0.5000000000        0.7662013505
Si            0.0000000000        0.0000000000        0.5000000000
Li            0.0000000000        0.0000000000        0.0000000000



     Writing config-only to output data dir ./output/SiLi.save/
     NEW-OLD atomic charge density approx. for the potential
     extrapolated charge   16.06627, renormalised to   15.00000

     total cpu time spent up to now is        7.1 secs

     Self-consistent Calculation

     iteration #  1     ecut=    80.00 Ry     beta= 0.70
     Davidson diagonalization with overlap
     c_bands:  1 eigenvalues not converged
     c_bands:  1 eigenvalues not converged
     ethr =  1.00E-06,  avg # of iterations =  9.8

     total cpu time spent up to now is        7.7 secs

     total energy              =     -39.45873324 Ry
     estimated scf accuracy    <       0.00319087 Ry

     iteration #  2     ecut=    80.00 Ry     beta= 0.70
     Davidson diagonalization with overlap
     ethr =  2.13E-05,  avg # of iterations =  3.0

     total cpu time spent up to now is        8.0 secs

     total energy              =     -39.46309746 Ry
     estimated scf accuracy    <       0.01232298 Ry

     iteration #  3     ecut=    80.00 Ry     beta= 0.70
     Davidson diagonalization with overlap
     ethr =  2.13E-05,  avg # of iterations =  2.0

     total cpu time spent up to now is        8.2 secs

     total energy              =     -39.46442353 Ry
     estimated scf accuracy    <       0.00070051 Ry

     iteration #  4     ecut=    80.00 Ry     beta= 0.70
     Davidson diagonalization with overlap
     ethr =  4.67E-06,  avg # of iterations =  1.6

     total cpu time spent up to now is        8.4 secs

     total energy              =     -39.46429740 Ry
     estimated scf accuracy    <       0.00031408 Ry

     iteration #  5     ecut=    80.00 Ry     beta= 0.70
     Davidson diagonalization with overlap
     ethr =  2.09E-06,  avg # of iterations =  2.1

     total cpu time spent up to now is        8.6 secs

     total energy              =     -39.46433106 Ry
     estimated scf accuracy    <       0.00001093 Ry

     iteration #  6     ecut=    80.00 Ry     beta= 0.70
     Davidson diagonalization with overlap
     c_bands:  1 eigenvalues not converged
     ethr =  7.29E-08,  avg # of iterations =  3.9

     total cpu time spent up to now is        8.9 secs

     total energy              =     -39.46433624 Ry
     estimated scf accuracy    <       0.00000199 Ry

     iteration #  7     ecut=    80.00 Ry     beta= 0.70
     Davidson diagonalization with overlap
     ethr =  1.33E-08,  avg # of iterations =  1.7

     total cpu time spent up to now is        9.2 secs

     total energy              =     -39.46433643 Ry
     estimated scf accuracy    <       0.00000010 Ry

     iteration #  8     ecut=    80.00 Ry     beta= 0.70
     Davidson diagonalization with overlap
     ethr =  6.52E-10,  avg # of iterations =  3.0

     total cpu time spent up to now is        9.4 secs

     total energy              =     -39.46433647 Ry
     estimated scf accuracy    <       0.00000002 Ry

     iteration #  9     ecut=    80.00 Ry     beta= 0.70
     Davidson diagonalization with overlap
     ethr =  1.59E-10,  avg # of iterations =  1.8

     total cpu time spent up to now is        9.7 secs

     End of self-consistent calculation

          k = 0.0000 0.0000 0.0000 (  1749 PWs)   bands (ev):

   -31.4993  -2.2810   3.1270   5.2178  14.4831  14.4831  16.1393  17.5614
    19.4216  19.7464  19.7464  20.5051

          k = 0.0000 0.0000 0.0927 (  1730 PWs)   bands (ev):

   -31.4968  -2.1783   2.2085   6.6415  14.6481  14.6481  15.3033  16.3089
    18.2750  18.2750  20.0831  20.5334

          k = 0.0000 0.0000 0.1854 (  1710 PWs)   bands (ev):

   -31.4946  -1.9796   1.3059   9.1380  12.1626  15.0328  15.0328  16.6808
    17.0741  17.0741  19.3370  20.1946

          k = 0.0000 0.1043 0.0000 (  1717 PWs)   bands (ev):

   -31.4908  -1.9944   3.4209   5.3869  11.4802  14.7455  16.9016  17.2499
    18.2260  19.6821  19.9137  20.0071

          k = 0.0000 0.1043 0.0927 (  1716 PWs)   bands (ev):

   -31.4904  -1.8886   2.4673   6.8335  11.5959  14.9101  15.4182  15.9786
    18.3106  18.5434  20.0540  21.6753

          k = 0.0000 0.1043 0.1854 (  1712 PWs)   bands (ev):

   -31.4899  -1.6822   1.5465   9.2864  11.6427  12.7615  14.7920  15.2930
    17.3451  18.3965  21.3808  22.2331

          k = 0.0000 0.2087 0.0000 (  1714 PWs)   bands (ev):

   -31.4781  -1.1409   4.2983   5.7945   8.1437  13.4488  15.4243  15.5330
    18.1746  20.4597  20.7887  21.5934

          k = 0.0000 0.2087 0.0927 (  1716 PWs)   bands (ev):

   -31.4782  -1.0250   3.2229   7.2655   8.2643  12.5638  15.6963  16.2957
    17.1971  19.3460  19.7681  23.4037

          k = 0.0000 0.2087 0.1854 (  1723 PWs)   bands (ev):

   -31.4789  -0.7941   2.2512   8.4045   9.3120  11.9832  13.7512  16.0740
    18.1559  19.3355  19.8008  22.4766

          k = 0.0000 0.3130 0.0000 (  1714 PWs)   bands (ev):

   -31.4657   0.2512   4.7672   5.7416   6.8742  10.4035  13.2974  16.8434
    19.5717  21.0515  21.7458  22.0869

          k = 0.0000 0.3130 0.0927 (  1716 PWs)   bands (ev):

   -31.4659   0.3869   4.2314   5.3029   7.7830  10.4415  14.3396  17.0046
    18.0822  20.6521  21.1614  21.2468

          k = 0.0000 0.3130 0.1854 (  1710 PWs)   bands (ev):

   -31.4653   0.6696   3.3187   5.3621   7.8991  12.1001  14.7804  16.9968
    17.3747  19.4920  19.7232  21.5673

          k = 0.0000-0.4173 0.0000 (  1728 PWs)   bands (ev):

   -31.4622   1.7171   2.8645   7.1605   7.3899   8.2154  12.4279  18.4654
    18.9312  20.8540  22.6757  23.3236

          k = 0.0000-0.4173 0.0927 (  1718 PWs)   bands (ev):

   -31.4608   1.9236   2.8980   5.6316   7.1162  10.1642  13.2202  18.6267
    19.0854  19.4284  20.8823  22.1448

          k = 0.0000-0.4173 0.1854 (  1702 PWs)   bands (ev):

   -31.4594   2.4498   2.9557   4.2302   6.7411  12.8061  15.1157  16.4600
    18.0309  19.0049  19.4209  20.9642

          k = 0.1043 0.1043 0.0000 (  1713 PWs)   bands (ev):

   -31.4855  -1.7080   3.7142   5.5678  11.2535  12.3869  16.6844  17.8326
    17.8582  18.9683  19.9449  20.4043

          k = 0.1043 0.1043 0.0927 (  1712 PWs)   bands (ev):

   -31.4851  -1.5991   2.7271   7.0378  11.4245  12.4052  15.2781  16.1284
    17.3799  19.7427  20.6617  20.9527

          k = 0.1043 0.1043 0.1854 (  1710 PWs)   bands (ev):

   -31.4848  -1.3854   1.7897   9.4595  11.8180  11.9622  13.6818  14.0408
    16.4650  21.0146  22.4813  22.9625

          k = 0.1043 0.2087 0.0000 (  1705 PWs)   bands (ev):

   -31.4725  -0.8546   4.5897   6.0202   8.3510  12.7319  13.6911  15.4817
    18.1968  19.2866  20.7228  21.2272

          k = 0.1043 0.2087 0.0927 (  1718 PWs)   bands (ev):

   -31.4738  -0.7362   3.4872   7.5200   8.4817  12.5994  12.9220  16.6879
    16.7856  18.3407  21.0430  21.6559

          k = 0.1043 0.2087 0.1854 (  1714 PWs)   bands (ev):

   -31.4731  -0.4989   2.5029   8.6642   9.5754  11.9966  12.8161  14.2920
    16.6572  19.7482  21.6828  22.6344

          k = 0.1043 0.3130 0.0000 (  1720 PWs)   bands (ev):

   -31.4619   0.5379   5.0493   6.0295   7.1043  10.6775  13.2015  14.1968
    18.4218  19.5045  20.4110  21.9989

          k = 0.1043 0.3130 0.0927 (  1720 PWs)   bands (ev):

   -31.4620   0.6752   4.5164   5.5606   8.0599  10.6145  14.0817  14.5047
    17.9372  18.6758  19.4132  21.5326

          k = 0.1043 0.3130 0.1854 (  1714 PWs)   bands (ev):

   -31.4612   0.9623   3.5888   5.6400   8.1420  12.1823  14.1504  15.5182
    16.6679  18.0510  18.7180  20.0606

          k = 0.1043-0.4173 0.0000 (  1716 PWs)   bands (ev):

   -31.4564   2.0114   3.1357   7.4357   7.6708   8.5011  12.4004  15.5386
    16.5171  20.9347  21.0774  21.6622

          k = 0.1043-0.4173 0.0927 (  1720 PWs)   bands (ev):

   -31.4570   2.2171   3.1751   5.9187   7.3613  10.4286  13.2211  15.6776
    16.5457  19.3940  20.3272  20.5560

          k = 0.1043-0.4173 0.1854 (  1708 PWs)   bands (ev):

   -31.4556   2.7402   3.2439   4.5239   6.9448  13.0068  15.1406  15.7751
    16.5864  17.2861  18.0124  18.5619

          k = 0.2087 0.2087 0.0000 (  1713 PWs)   bands (ev):

   -31.4622  -0.0015   5.4594   6.6327   8.4491  10.0110  13.9244  15.0626
    15.3541  17.0528  18.4854  21.4879

          k = 0.2087 0.2087 0.0927 (  1717 PWs)   bands (ev):

   -31.4623   0.1248   4.2640   8.2180   8.6232  10.0376  12.4822  14.7750
    16.9964  17.5761  18.2610  19.5665

          k = 0.2087 0.2087 0.1854 (  1721 PWs)   bands (ev):

   -31.4627   0.3828   3.2426   9.0267  10.0778  10.2457  11.2233  13.9710
    16.0443  18.4614  19.4996  19.8281

          k = 0.2087 0.3130 0.0000 (  1720 PWs)   bands (ev):

   -31.4514   1.3924   5.8749   6.8887   7.7364  10.6480  11.4716  13.4280
    15.0945  16.1232  17.4362  20.5226

          k = 0.2087 0.3130 0.0927 (  1715 PWs)   bands (ev):

   -31.4507   1.5345   5.3623   6.3013   8.8811  10.5861  11.2114  14.5532
    14.8796  15.8473  17.9943  19.7498

          k = 0.2087 0.3130 0.1854 (  1724 PWs)   bands (ev):

   -31.4517   1.8361   4.3863   6.4553   8.8409  11.0360  11.8629  14.7832
    15.5372  16.3009  16.9945  18.9280

          k = 0.2087-0.4173 0.0000 (  1710 PWs)   bands (ev):

   -31.4458   2.8911   3.9345   8.2507   8.5137   9.3408  12.0475  12.0610
    13.6326  17.4874  17.5215  18.5990

          k = 0.2087-0.4173 0.0927 (  1722 PWs)   bands (ev):

   -31.4469   3.0942   3.9936   6.7735   8.0765  11.1643  12.2268  12.8168
    13.6724  16.2012  17.5266  20.2753

          k = 0.2087-0.4173 0.1854 (  1720 PWs)   bands (ev):

   -31.4466   3.6083   4.1002   5.4001   7.5285  12.6358  13.1516  13.3087
    14.6801  15.6250  17.3461  18.0203

          k = 0.3130 0.3130 0.0000 (  1726 PWs)   bands (ev):

   -31.4412   2.7904   6.7588   7.8195   8.3000   9.1264  12.0299  12.2531
    13.3333  13.6720  15.1970  17.6780

          k = 0.3130 0.3130 0.0927 (  1718 PWs)   bands (ev):

   -31.4401   2.9426   6.7101   6.9346   8.3998  10.1133  10.7826  12.1403
    13.9298  14.8752  15.2969  18.5489

          k = 0.3130 0.3130 0.1854 (  1724 PWs)   bands (ev):

   -31.4409   3.2754   5.6466   7.3447   8.5044   9.5121  10.5718  12.5288
    14.5525  15.3526  17.7245  18.1415

          k = 0.3130-0.4173 0.0000 (  1710 PWs)   bands (ev):

   -31.4349   4.3454   5.1802   8.8691   9.6816   9.9174  10.1121  10.6437
    12.8184  14.4434  14.5185  15.8468

          k = 0.3130-0.4173 0.0927 (  1724 PWs)   bands (ev):

   -31.4364   4.5441   5.2815   8.1473   9.0933   9.1824  10.4207  11.7659
    12.9760  13.9919  15.3724  17.5147

          k = 0.3130-0.4173 0.1854 (  1736 PWs)   bands (ev):

   -31.4376   5.0424   5.4786   6.8401   8.3524   9.6259  10.3703  11.2297
    13.3114  15.9232  17.4761  19.1977

          k =-0.4173-0.4173 0.0000 (  1720 PWs)   bands (ev):

   -31.4309   6.1953   6.1953   6.5450   8.6501  10.8238  11.6952  11.6952
    12.1036  12.7528  12.7528  14.3015

          k =-0.4173-0.4173 0.0927 (  1728 PWs)   bands (ev):

   -31.4323   6.3717   6.3717   6.7561   8.5756   9.9660  10.2146  10.2146
    12.2590  14.7265  14.7265  15.5303

          k =-0.4173-0.4173 0.1854 (  1740 PWs)   bands (ev):

   -31.4337   6.7840   6.7840   7.3227   8.4649   8.7345   8.9403   8.9403
    12.5061  17.5729  17.5729  17.7977

     the Fermi energy is    14.7216 ev

!    total energy              =     -39.46433647 Ry
     estimated scf accuracy    <          7.0E-10 Ry
     smearing contrib. (-TS)   =      -0.00061306 Ry
     internal energy E=F+TS    =     -39.46372342 Ry

     The total energy is F=E-TS. E is the sum of the following terms:
     one-electron contribution =      12.58267102 Ry
     hartree contribution      =       2.89327804 Ry
     xc contribution           =     -13.71714932 Ry
     ewald contribution        =     -41.22252315 Ry

     convergence has been achieved in   9 iterations

     Forces acting on atoms (cartesian axes, Ry/au):

     atom    1 type  1   force =     0.00000000    0.00000000    0.00478094
     atom    2 type  1   force =     0.00000000    0.00000000   -0.00478094
     atom    3 type  1   force =     0.00000000    0.00000000    0.00000000
     atom    4 type  2   force =     0.00000000    0.00000000    0.00000000
     The non-local contrib.  to forces
     atom    1 type  1   force =     0.00000000    0.00000000    0.03749346
     atom    2 type  1   force =     0.00000000    0.00000000   -0.03749346
     atom    3 type  1   force =     0.00000000    0.00000000    0.00000000
     atom    4 type  2   force =     0.00000000    0.00000000    0.00000000
     The ionic contribution  to forces
     atom    1 type  1   force =     0.00000000    0.00000000    0.04677912
     atom    2 type  1   force =     0.00000000    0.00000000   -0.04677912
     atom    3 type  1   force =    -0.00000000   -0.00000000    0.00000000
     atom    4 type  2   force =    -0.00000000   -0.00000000   -0.00000000
     The local contribution  to forces
     atom    1 type  1   force =    -0.00000000   -0.00000000   -0.07905094
     atom    2 type  1   force =    -0.00000000   -0.00000000    0.07905094
     atom    3 type  1   force =     0.00000000   -0.00000000    0.00000000
     atom    4 type  2   force =    -0.00000000   -0.00000000   -0.00000000
     The core correction contribution to forces
     atom    1 type  1   force =    -0.00000000   -0.00000000   -0.00047554
     atom    2 type  1   force =    -0.00000000   -0.00000000    0.00047554
     atom    3 type  1   force =    -0.00000000    0.00000000    0.00000000
     atom    4 type  2   force =     0.00000000    0.00000000    0.00000000
     The Hubbard contrib.    to forces
     atom    1 type  1   force =     0.00000000    0.00000000    0.00000000
     atom    2 type  1   force =     0.00000000    0.00000000    0.00000000
     atom    3 type  1   force =     0.00000000    0.00000000    0.00000000
     atom    4 type  2   force =     0.00000000    0.00000000    0.00000000
     The SCF correction term to forces
     atom    1 type  1   force =    -0.00000000   -0.00000000    0.00003483
     atom    2 type  1   force =    -0.00000000    0.00000000   -0.00003483
     atom    3 type  1   force =     0.00000000   -0.00000000   -0.00000000
     atom    4 type  2   force =     0.00000000    0.00000000    0.00000000

     Total force =     0.006761     Total SCF correction =     0.000049


     Computing stress (Cartesian axis) and pressure

          total   stress  (Ry/bohr**3)                   (kbar)     P=      716.44
   0.00489558   0.00000000   0.00000000          720.17        0.00        0.00
   0.00000000   0.00489558   0.00000000            0.00      720.17        0.00
   0.00000000   0.00000000   0.00481961            0.00        0.00      708.99

     Energy error            =      4.1E-02 Ry
     Gradient error          =      4.8E-03 Ry/Bohr
     Cell gradient error     =      2.2E+02 kbar

     number of scf cycles    =   3
     number of bfgs steps    =   2

     enthalpy           old  =     -38.5733704378 Ry
     enthalpy           new  =     -38.6144968442 Ry

     CASE: enthalpy          _new < enthalpy          _old

     new trust radius        =       0.1028360527 bohr
ibrav =      6
 celldm(1) =      5.34683429
 celldm(3) =      1.75390462
Input lattice vectors:
     1.23709718     0.00000000     0.00000000
     0.00000000     1.23709718     0.00000000
     0.00000000     0.00000000     2.16975045
New lattice vectors in INITIAL alat:
     1.23709718     0.00000000     0.00000000
     0.00000000     1.23709718     0.00000000
     0.00000000     0.00000000     2.16975045
New lattice vectors in NEW alat (for information only):
     1.00000000     0.00000000     0.00000000
     0.00000000     1.00000000     0.00000000
     0.00000000     0.00000000     1.75390462
Discrepancy in bohr =     0.000000    0.000000    0.000000
     new conv_thr            =       0.0000000005 Ry

     new unit-cell volume =    268.09959 a.u.^3 (    39.72826 Ang^3 )
     density =      3.81182 g/cm^3

CELL_PARAMETERS (alat=  4.32208106)
   1.237097179   0.000000000   0.000000000
   0.000000000   1.237097179   0.000000000
   0.000000000   0.000000000   2.169750454

ATOMIC_POSITIONS (crystal)
Si            0.5000000000        0.5000000000        0.2366246873
Si            0.5000000000        0.5000000000        0.7633753127
Si            0.0000000000        0.0000000000        0.5000000000
Li            0.0000000000        0.0000000000        0.0000000000



     Writing config-only to output data dir ./output/SiLi.save/
     NEW-OLD atomic charge density approx. for the potential
     extrapolated charge   16.01047, renormalised to   15.00000

     total cpu time spent up to now is       10.3 secs

     Self-consistent Calculation

     iteration #  1     ecut=    80.00 Ry     beta= 0.70
     Davidson diagonalization with overlap
     ethr =  1.00E-06,  avg # of iterations =  9.8

     total cpu time spent up to now is       11.0 secs

     total energy              =     -39.53697349 Ry
     estimated scf accuracy    <       0.00275406 Ry

     iteration #  2     ecut=    80.00 Ry     beta= 0.70
     Davidson diagonalization with overlap
     ethr =  1.84E-05,  avg # of iterations =  2.8

     total cpu time spent up to now is       11.3 secs

     total energy              =     -39.54048813 Ry
     estimated scf accuracy    <       0.00891671 Ry

     iteration #  3     ecut=    80.00 Ry     beta= 0.70
     Davidson diagonalization with overlap
     ethr =  1.84E-05,  avg # of iterations =  2.0

     total cpu time spent up to now is       11.5 secs

     total energy              =     -39.54161480 Ry
     estimated scf accuracy    <       0.00036122 Ry

     iteration #  4     ecut=    80.00 Ry     beta= 0.70
     Davidson diagonalization with overlap
     ethr =  2.41E-06,  avg # of iterations =  1.6

     total cpu time spent up to now is       11.7 secs

     total energy              =     -39.54153399 Ry
     estimated scf accuracy    <       0.00016120 Ry

     iteration #  5     ecut=    80.00 Ry     beta= 0.70
     Davidson diagonalization with overlap
     ethr =  1.07E-06,  avg # of iterations =  2.0

     total cpu time spent up to now is       11.9 secs

     total energy              =     -39.54155776 Ry
     estimated scf accuracy    <       0.00000082 Ry

     iteration #  6     ecut=    80.00 Ry     beta= 0.70
     Davidson diagonalization with overlap
     ethr =  5.49E-09,  avg # of iterations =  4.3

     total cpu time spent up to now is       12.2 secs

     total energy              =     -39.54155890 Ry
     estimated scf accuracy    <       0.00000132 Ry

     iteration #  7     ecut=    80.00 Ry     beta= 0.70
     Davidson diagonalization with overlap
     ethr =  5.49E-09,  avg # of iterations =  1.9

     total cpu time spent up to now is       12.4 secs

     total energy              =     -39.54155900 Ry
     estimated scf accuracy    <       0.00000006 Ry

     iteration #  8     ecut=    80.00 Ry     beta= 0.70
     Davidson diagonalization with overlap
     ethr =  4.05E-10,  avg # of iterations =  2.3

     total cpu time spent up to now is       12.7 secs

     total energy              =     -39.54155902 Ry
     estimated scf accuracy    <          6.6E-09 Ry

     iteration #  9     ecut=    80.00 Ry     beta= 0.70
     Davidson diagonalization with overlap
     ethr =  4.38E-11,  avg # of iterations =  1.5

     total cpu time spent up to now is       12.9 secs

     total energy              =     -39.54155903 Ry
     estimated scf accuracy    <          8.1E-10 Ry

     iteration # 10     ecut=    80.00 Ry     beta= 0.70
     Davidson diagonalization with overlap
     ethr =  5.42E-12,  avg # of iterations =  2.1

     total cpu time spent up to now is       13.1 secs

     End of self-consistent calculation

          k = 0.0000 0.0000 0.0000 (  1749 PWs)   bands (ev):

   -32.5547  -2.7151   2.7090   4.5812  13.0127  13.0127  15.1160  16.3328
    18.2623  18.2623  18.7706  19.1253

          k = 0.0000 0.0000 0.0922 (  1730 PWs)   bands (ev):

   -32.5514  -2.6052   1.7183   6.0687  13.1745  13.1745  14.6196  15.2849
    16.8383  16.8383  18.2351  19.4641

          k = 0.0000 0.0000 0.1844 (  1710 PWs)   bands (ev):

   -32.5479  -2.3894   0.7767   8.5796  11.6042  13.5469  13.5469  15.6553
    15.6553  15.6560  18.0224  18.2699

          k = 0.0000 0.1010 0.0000 (  1717 PWs)   bands (ev):

   -32.5456  -2.4455   2.9858   4.7410  10.3140  13.2618  15.6761  16.0356
    17.0530  18.5082  18.6431  19.0229

          k = 0.0000 0.1010 0.0922 (  1716 PWs)   bands (ev):

   -32.5455  -2.3328   1.9612   6.2501  10.4350  13.4233  14.3748  15.1007
    17.0179  17.0909  18.8001  19.8692

          k = 0.0000 0.1010 0.1844 (  1712 PWs)   bands (ev):

   -32.5447  -2.1100   1.0038   8.7106  10.6271  11.9613  13.6777  13.7942
    15.9104  16.9626  19.9122  20.2994

          k = 0.0000 0.2021 0.0000 (  1714 PWs)   bands (ev):

   -32.5366  -1.6426   3.8128   5.1009   7.1992  12.4186  14.0088  14.3947
    16.9012  19.2439  19.7494  20.1067

          k = 0.0000 0.2021 0.0922 (  1716 PWs)   bands (ev):

   -32.5371  -1.5210   2.6677   6.5795   7.3694  11.5549  14.1693  15.5205
    16.1054  17.8439  18.3399  21.7084

          k = 0.0000 0.2021 0.1844 (  1723 PWs)   bands (ev):

   -32.5380  -1.2753   1.6678   7.4193   8.6379  11.1253  13.0647  14.5364
    16.6717  17.8767  18.5124  21.2211

          k = 0.0000 0.3031 0.0000 (  1714 PWs)   bands (ev):

   -32.5280  -0.3340   3.9472   5.1776   6.1950   9.5385  12.3817  15.2494
    18.1881  19.2250  20.4530  20.9445

          k = 0.0000 0.3031 0.0922 (  1716 PWs)   bands (ev):

   -32.5282  -0.1941   3.5463   4.5344   7.1440   9.5894  13.4513  15.4085
    17.1713  19.0056  19.4963  19.5952

          k = 0.0000 0.3031 0.1844 (  1710 PWs)   bands (ev):

   -32.5274   0.1009   2.6629   4.5385   7.1706  11.3556  14.0808  15.7713
    16.0248  17.9113  18.7569  19.7481

          k = 0.0000-0.4042 0.0000 (  1728 PWs)   bands (ev):

   -32.5273   1.0259   2.1695   6.4734   6.8115   7.3942  11.5566  16.7495
    17.2701  19.3636  21.0798  22.3528

          k = 0.0000-0.4042 0.0922 (  1718 PWs)   bands (ev):

   -32.5251   1.2319   2.2083   4.9046   6.5017   9.3834  12.3850  16.9167
    17.4113  18.4044  19.9482  20.3571

          k = 0.0000-0.4042 0.1844 (  1702 PWs)   bands (ev):

   -32.5225   1.7601   2.2756   3.5018   6.0854  12.0450  14.3413  15.5486
    17.1966  17.3181  17.7069  19.1634

          k = 0.1010 0.1010 0.0000 (  1713 PWs)   bands (ev):

   -32.5418  -2.1760   3.2620   4.9119  10.1790  11.0323  15.5793  16.3690
    16.7658  17.7798  18.9609  19.2890

          k = 0.1010 0.1010 0.0922 (  1712 PWs)   bands (ev):

   -32.5414  -2.0606   2.2051   6.4433  10.3472  11.0857  14.1936  15.0267
    16.3180  18.6279  19.1736  19.4461

          k = 0.1010 0.1010 0.1844 (  1710 PWs)   bands (ev):

   -32.5409  -1.8310   1.2335   8.8674  10.7316  11.0133  12.5258  12.9731
    15.1410  19.5243  20.8008  21.3493

          k = 0.1010 0.2021 0.0000 (  1705 PWs)   bands (ev):

   -32.5320  -1.3730   4.0875   5.3163   7.4024  11.4195  12.6621  14.4919
    16.8072  17.9685  19.6880  19.8916

          k = 0.1010 0.2021 0.0922 (  1718 PWs)   bands (ev):

   -32.5342  -1.2492   2.9164   6.8290   7.5746  11.4274  11.8120  15.4825
    15.7908  17.3475  19.4475  20.0693

          k = 0.1010 0.2021 0.1844 (  1714 PWs)   bands (ev):

   -32.5332  -0.9976   1.9054   7.6733   8.8863  11.1342  11.7016  13.2663
    15.3729  18.6367  19.9714  20.9126

          k = 0.1010 0.3031 0.0000 (  1720 PWs)   bands (ev):

   -32.5262  -0.0639   4.2148   5.4497   6.4104   9.8011  12.1706  12.9456
    16.8020  18.0588  19.1149  21.1803

          k = 0.1010 0.3031 0.0922 (  1720 PWs)   bands (ev):

   -32.5262   0.0774   3.8160   4.7793   7.4033   9.7559  12.7505  13.5877
    16.5084  17.1797  18.4168  20.1373

          k = 0.1010 0.3031 0.1844 (  1714 PWs)   bands (ev):

   -32.5252   0.3765   2.9177   4.8031   7.3980  11.4300  12.9824  14.4740
    15.5783  16.7645  17.2158  18.7969

          k = 0.1010-0.4042 0.0000 (  1716 PWs)   bands (ev):

   -32.5222   1.3026   2.4275   6.7286   7.0767   7.6665  11.5229  14.0513
    15.0576  19.5821  19.7094  19.8930

          k = 0.1010-0.4042 0.0922 (  1720 PWs)   bands (ev):

   -32.5228   1.5080   2.4713   5.1737   6.7329   9.6323  12.3761  14.2082
    15.0916  17.8918  19.0301  19.4892

          k = 0.1010-0.4042 0.1844 (  1708 PWs)   bands (ev):

   -32.5208   2.0339   2.5482   3.7767   6.2796  12.2248  14.3472  14.4873
    15.1721  16.0358  16.9465  17.0646

          k = 0.2021 0.2021 0.0000 (  1713 PWs)   bands (ev):

   -32.5260  -0.5698   4.9084   5.8884   7.5576   8.7959  13.0057  14.0142
    14.1684  15.5991  17.1030  20.7149

          k = 0.2021 0.2021 0.0922 (  1717 PWs)   bands (ev):

   -32.5264  -0.4389   3.6449   7.5153   7.7288   8.8378  11.5873  13.4517
    16.0768  16.2610  17.0031  18.4326

          k = 0.2021 0.2021 0.1844 (  1721 PWs)   bands (ev):

   -32.5269  -0.1681   2.6024   8.1229   8.8670   9.4905  10.3455  12.9403
    15.0467  16.8690  18.1367  18.8942

          k = 0.2021 0.3031 0.0000 (  1720 PWs)   bands (ev):

   -32.5195   0.7417   5.0050   6.2623   6.9890   9.4588  10.5725  12.4945
    13.7305  14.8722  16.2540  18.9645

          k = 0.2021 0.3031 0.0922 (  1715 PWs)   bands (ev):

   -32.5184   0.8874   4.6170   5.4893   8.1683   9.4415  10.3135  13.4714
    13.5580  14.6454  16.8379  18.6886

          k = 0.2021 0.3031 0.1844 (  1724 PWs)   bands (ev):

   -32.5198   1.2000   3.6694   5.5860   8.0543   9.8500  11.0154  13.6071
    14.1672  15.3561  15.8902  17.8594

          k = 0.2021-0.4042 0.0000 (  1710 PWs)   bands (ev):

   -32.5146   2.1302   3.1903   7.4775   7.8723   8.4718  10.7661  11.0075
    12.5560  16.3104  16.3544  16.9987

          k = 0.2021-0.4042 0.0922 (  1722 PWs)   bands (ev):

   -32.5164   2.3337   3.2508   5.9736   7.4063  10.3062  10.9650  11.6281
    12.7397  14.8556  16.3650  18.9039

          k = 0.2021-0.4042 0.1844 (  1720 PWs)   bands (ev):

   -32.5158   2.8531   3.3601   4.5960   6.8372  11.3663  12.0034  12.2011
    13.7654  14.3907  16.3623  16.9776

          k = 0.3031 0.3031 0.0000 (  1726 PWs)   bands (ev):

   -32.5133   2.0598   5.9682   6.6726   7.6016   8.2710  10.7283  11.4366
    12.4605  12.5502  14.1388  16.2473

          k = 0.3031 0.3031 0.0922 (  1718 PWs)   bands (ev):

   -32.5117   2.2151   5.8813   6.1411   7.2724   9.2868   9.9926  10.8723
    12.7271  13.8033  14.4865  17.1898

          k = 0.3031 0.3031 0.1844 (  1724 PWs)   bands (ev):

   -32.5122   2.5580   4.8499   6.5412   7.3332   8.7394   9.5546  11.2652
    13.4749  14.3179  16.7891  17.3201

          k = 0.3031-0.4042 0.0000 (  1710 PWs)   bands (ev):

   -32.5075   3.5005   4.3963   7.7423   8.8101   8.9150   9.1976   9.7533
    12.0420  13.4549  13.5493  14.3491

          k = 0.3031-0.4042 0.0922 (  1724 PWs)   bands (ev):

   -32.5095   3.7009   4.4931   7.2279   8.0923   8.2924   9.2978  10.8391
    12.1178  12.8650  14.4579  16.2294

          k = 0.3031-0.4042 0.1844 (  1736 PWs)   bands (ev):

   -32.5111   4.2100   4.6794   5.9356   7.6222   8.5113   9.2048  10.1597
    12.3446  14.9160  16.6130  18.1165

          k =-0.4042-0.4042 0.0000 (  1720 PWs)   bands (ev):

   -32.5059   5.3588   5.4375   5.4375   7.4403   9.7636  10.9119  10.9119
    11.2125  12.0061  12.0061  12.7237

          k =-0.4042-0.4042 0.0922 (  1728 PWs)   bands (ev):

   -32.5070   5.5732   5.6109   5.6109   7.3820   8.8092   9.4588   9.4588
    11.3389  13.9517  13.9517  14.0559

          k =-0.4042-0.4042 0.1844 (  1740 PWs)   bands (ev):

   -32.5091   6.0131   6.0131   6.1614   7.2936   7.5118   8.2019   8.2019
    11.5409  16.4399  16.7886  16.7886

     the Fermi energy is    13.5863 ev

!    total energy              =     -39.54155903 Ry
     estimated scf accuracy    <          3.9E-11 Ry
     smearing contrib. (-TS)   =      -0.00129763 Ry
     internal energy E=F+TS    =     -39.54026140 Ry

     The total energy is F=E-TS. E is the sum of the following terms:
     one-electron contribution =      11.33348943 Ry
     hartree contribution      =       2.92341177 Ry
     xc contribution           =     -13.53427499 Ry
     ewald contribution        =     -40.26288761 Ry

     convergence has been achieved in  10 iterations

     Forces acting on atoms (cartesian axes, Ry/au):

     atom    1 type  1   force =     0.00000000    0.00000000    0.01224729
     atom    2 type  1   force =     0.00000000    0.00000000   -0.01224729
     atom    3 type  1   force =     0.00000000    0.00000000    0.00000000
     atom    4 type  2   force =     0.00000000    0.00000000    0.00000000
     The non-local contrib.  to forces
     atom    1 type  1   force =     0.00000000    0.00000000    0.03859105
     atom    2 type  1   force =     0.00000000    0.00000000   -0.03859105
     atom    3 type  1   force =     0.00000000    0.00000000    0.00000000
     atom    4 type  2   force =     0.00000000    0.00000000    0.00000000
     The ionic contribution  to forces
     atom    1 type  1   force =    -0.00000000   -0.00000000   -0.04839894
     atom    2 type  1   force =    -0.00000000   -0.00000000    0.04839894
     atom    3 type  1   force =    -0.00000000   -0.00000000    0.00000000
     atom    4 type  2   force =    -0.00000000   -0.00000000    0.00000000
     The local contribution  to forces
     atom    1 type  1   force =    -0.00000000   -0.00000000    0.02279861
     atom    2 type  1   force =    -0.00000000   -0.00000000   -0.02279861
     atom    3 type  1   force =     0.00000000   -0.00000000    0.00000000
     atom    4 type  2   force =     0.00000000   -0.00000000   -0.00000000
     The core correction contribution to forces
     atom    1 type  1   force =     0.00000000    0.00000000   -0.00075138
     atom    2 type  1   force =     0.00000000    0.00000000    0.00075138
     atom    3 type  1   force =     0.00000000   -0.00000000    0.00000000
     atom    4 type  2   force =     0.00000000    0.00000000    0.00000000
     The Hubbard contrib.    to forces
     atom    1 type  1   force =     0.00000000    0.00000000    0.00000000
     atom    2 type  1   force =     0.00000000    0.00000000    0.00000000
     atom    3 type  1   force =     0.00000000    0.00000000    0.00000000
     atom    4 type  2   force =     0.00000000    0.00000000    0.00000000
     The SCF correction term to forces
     atom    1 type  1   force =    -0.00000000   -0.00000000    0.00000794
     atom    2 type  1   force =    -0.00000000   -0.00000000   -0.00000794
     atom    3 type  1   force =    -0.00000000    0.00000000   -0.00000000
     atom    4 type  2   force =     0.00000000   -0.00000000   -0.00000000

     Total force =     0.017320     Total SCF correction =     0.000011


     Computing stress (Cartesian axis) and pressure

          total   stress  (Ry/bohr**3)                   (kbar)     P=      523.11
   0.00367496   0.00000000   0.00000000          540.61        0.00        0.00
   0.00000000   0.00367496   0.00000000            0.00      540.61        0.00
   0.00000000   0.00000000   0.00331809            0.00        0.00      488.11

     Energy error            =      1.6E-02 Ry
     Gradient error          =      1.2E-02 Ry/Bohr
     Cell gradient error     =      4.1E+01 kbar

     number of scf cycles    =   4
     number of bfgs steps    =   3

     enthalpy           old  =     -38.6144968442 Ry
     enthalpy           new  =     -38.6303070497 Ry

     CASE: enthalpy          _new < enthalpy          _old

     new trust radius        =       0.0420630147 bohr
ibrav =      6
 celldm(1) =      5.41551251
 celldm(3) =      1.72064150
Input lattice vectors:
     1.25298726     0.00000000     0.00000000
     0.00000000     1.25298726     0.00000000
     0.00000000     0.00000000     2.15594188
New lattice vectors in INITIAL alat:
     1.25298726     0.00000000     0.00000000
     0.00000000     1.25298726     0.00000000
     0.00000000     0.00000000     2.15594188
New lattice vectors in NEW alat (for information only):
     1.00000000     0.00000000     0.00000000
     0.00000000     1.00000000     0.00000000
     0.00000000     0.00000000     1.72064150
Discrepancy in bohr =     0.000000    0.000000    0.000000
     new conv_thr            =       0.0000000012 Ry

     new unit-cell volume =    273.28078 a.u.^3 (    40.49603 Ang^3 )
     density =      3.73955 g/cm^3

CELL_PARAMETERS (alat=  4.32208106)
   1.252987262   0.000000000   0.000000000
   0.000000000   1.252987262   0.000000000
   0.000000000   0.000000000   2.155941883

ATOMIC_POSITIONS (crystal)
Si            0.5000000000        0.5000000000        0.2396648143
Si            0.5000000000        0.5000000000        0.7603351857
Si            0.0000000000        0.0000000000        0.5000000000
Li            0.0000000000        0.0000000000        0.0000000000



     Writing config-only to output data dir ./output/SiLi.save/
     NEW-OLD atomic charge density approx. for the potential
     extrapolated charge   15.28427, renormalised to   15.00000

     total cpu time spent up to now is       13.8 secs

     Self-consistent Calculation

     iteration #  1     ecut=    80.00 Ry     beta= 0.70
     Davidson diagonalization with overlap
     ethr =  1.00E-06,  avg # of iterations =  8.2

     total cpu time spent up to now is       14.3 secs

     total energy              =     -39.56027293 Ry
     estimated scf accuracy    <       0.00109202 Ry

     iteration #  2     ecut=    80.00 Ry     beta= 0.70
     Davidson diagonalization with overlap
     ethr =  7.28E-06,  avg # of iterations =  2.5

     total cpu time spent up to now is       14.6 secs

     total energy              =     -39.56059915 Ry
     estimated scf accuracy    <       0.00343942 Ry

     iteration #  3     ecut=    80.00 Ry     beta= 0.70
     Davidson diagonalization with overlap
     ethr =  7.28E-06,  avg # of iterations =  2.0

     total cpu time spent up to now is       14.8 secs

     total energy              =     -39.56113415 Ry
     estimated scf accuracy    <       0.00002681 Ry

     iteration #  4     ecut=    80.00 Ry     beta= 0.70
     Davidson diagonalization with overlap
     ethr =  1.79E-07,  avg # of iterations =  2.4

     total cpu time spent up to now is       15.1 secs

     total energy              =     -39.56113450 Ry
     estimated scf accuracy    <       0.00000554 Ry

     iteration #  5     ecut=    80.00 Ry     beta= 0.70
     Davidson diagonalization with overlap
     ethr =  3.69E-08,  avg # of iterations =  2.0

     total cpu time spent up to now is       15.3 secs

     total energy              =     -39.56113529 Ry
     estimated scf accuracy    <       0.00000019 Ry

     iteration #  6     ecut=    80.00 Ry     beta= 0.70
     Davidson diagonalization with overlap
     ethr =  1.28E-09,  avg # of iterations =  3.8

     total cpu time spent up to now is       15.6 secs

     total energy              =     -39.56113540 Ry
     estimated scf accuracy    <       0.00000005 Ry

     iteration #  7     ecut=    80.00 Ry     beta= 0.70
     Davidson diagonalization with overlap
     ethr =  3.25E-10,  avg # of iterations =  1.4

     total cpu time spent up to now is       15.8 secs

     total energy              =     -39.56113540 Ry
     estimated scf accuracy    <          2.5E-09 Ry

     iteration #  8     ecut=    80.00 Ry     beta= 0.70
     Davidson diagonalization with overlap
     ethr =  1.66E-11,  avg # of iterations =  2.4

     total cpu time spent up to now is       16.0 secs

     End of self-consistent calculation

          k = 0.0000 0.0000 0.0000 (  1749 PWs)   bands (ev):

   -32.8597  -2.8526   2.7000   4.4950  12.4697  12.4697  14.7513  15.8219
    17.8311  17.8311  18.7451  18.9253

          k = 0.0000 0.0000 0.0928 (  1730 PWs)   bands (ev):

   -32.8562  -2.7403   1.6639   6.0328  12.6305  12.6305  14.5148  14.9207
    16.4037  16.4037  17.7028  19.1857

          k = 0.0000 0.0000 0.1855 (  1710 PWs)   bands (ev):

   -32.8523  -2.5195   0.6979   8.5828  11.6196  12.9954  12.9954  15.2171
    15.2171  15.2911  17.2825  17.9792

          k = 0.0000 0.0998 0.0000 (  1717 PWs)   bands (ev):

   -32.8502  -2.5896   2.9699   4.6496   9.8818  12.7132  15.3457  15.5659
    16.7814  18.0711  18.1694  19.1790

          k = 0.0000 0.0998 0.0928 (  1716 PWs)   bands (ev):

   -32.8504  -2.4747   1.8999   6.2083  10.0038  12.8737  14.0804  14.9213
    16.6501  16.6875  18.4901  19.2527

          k = 0.0000 0.0998 0.1855 (  1712 PWs)   bands (ev):

   -32.8495  -2.2472   0.9193   8.7002  10.2292  11.8947  13.2373  13.3919
    15.4660  16.4588  19.3099  19.8016

          k = 0.0000 0.1995 0.0000 (  1714 PWs)   bands (ev):

   -32.8425  -1.8066   3.7766   4.9780   6.8631  12.1700  13.4434  14.1730
    16.4177  18.7881  19.6783  19.8831

          k = 0.0000 0.1995 0.0928 (  1716 PWs)   bands (ev):

   -32.8432  -1.6831   2.5852   6.4313   7.1023  11.3105  13.6029  15.4275
    15.8068  17.3837  18.0062  21.1229

          k = 0.0000 0.1995 0.1855 (  1723 PWs)   bands (ev):

   -32.8442  -1.4336   1.5656   7.0591   8.5347  10.9822  13.0458  13.9630
    16.2083  17.3428  18.2810  20.9406

          k = 0.0000 0.2993 0.0000 (  1714 PWs)   bands (ev):

   -32.8350  -0.5316   3.6797   5.1086   6.0505   9.3589  12.2176  14.6549
    17.6534  18.5532  19.9621  21.0365

          k = 0.0000 0.2993 0.0928 (  1716 PWs)   bands (ev):

   -32.8352  -0.3901   3.3780   4.3024   7.0310   9.4387  13.3135  14.8132
    16.9485  18.4636  18.8684  19.2140

          k = 0.0000 0.2993 0.1855 (  1710 PWs)   bands (ev):

   -32.8343  -0.0925   2.5289   4.2467   7.0100  11.2961  14.0638  15.1697
    15.8725  17.4117  18.6390  18.7426

          k = 0.0000-0.3990 0.0000 (  1728 PWs)   bands (ev):

   -32.8354   0.7797   1.9474   6.3295   6.7156   7.2535  11.4173  16.0995
    16.6604  18.7742  20.4983  22.3896

          k = 0.0000-0.3990 0.0928 (  1718 PWs)   bands (ev):

   -32.8331   0.9857   1.9879   4.7402   6.3880   9.2728  12.2721  16.2669
    16.7991  18.1319  19.7473  19.7954

          k = 0.0000-0.3990 0.1855 (  1702 PWs)   bands (ev):

   -32.8297   1.5072   2.0584   3.3328   5.9516  11.9853  14.2796  15.4324
    16.6639  17.0857  17.1380  18.5964

          k = 0.0998 0.0998 0.0000 (  1713 PWs)   bands (ev):

   -32.8469  -2.3268   3.2393   4.8152   9.7872  10.5247  15.2934  15.9576
    16.5029  17.4957  18.4336  19.4596

          k = 0.0998 0.0998 0.0928 (  1712 PWs)   bands (ev):

   -32.8466  -2.2093   2.1371   6.3956   9.9548  10.5867  13.8955  14.7421
    16.1981  18.3837  18.6361  19.0245

          k = 0.0998 0.0998 0.1855 (  1710 PWs)   bands (ev):

   -32.8459  -1.9752   1.1431   8.8459  10.3337  10.6215  12.3637  12.6699
    14.8035  18.9815  20.0188  21.1289

          k = 0.0998 0.1995 0.0000 (  1705 PWs)   bands (ev):

   -32.8382  -1.5437   4.0446   5.1897   7.0633  10.9347  12.4119  14.2810
    16.4226  17.6183  19.0695  19.3442

          k = 0.0998 0.1995 0.0928 (  1718 PWs)   bands (ev):

[...]
        k(   15) = (   0.0000000  -0.3901947   0.1950413), wk =   0.0250000
        k(   16) = (   0.0975487   0.0975487   0.0000000), wk =   0.0250000
        k(   17) = (   0.0975487   0.0975487   0.0975207), wk =   0.0500000
        k(   18) = (   0.0975487   0.0975487   0.1950413), wk =   0.0500000
        k(   19) = (   0.0975487   0.1950974   0.0000000), wk =   0.0500000
        k(   20) = (   0.0975487   0.1950974   0.0975207), wk =   0.1000000
        k(   21) = (   0.0975487   0.1950974   0.1950413), wk =   0.1000000
        k(   22) = (   0.0975487   0.2926461   0.0000000), wk =   0.0500000
        k(   23) = (   0.0975487   0.2926461   0.0975207), wk =   0.1000000
        k(   24) = (   0.0975487   0.2926461   0.1950413), wk =   0.1000000
        k(   25) = (   0.0975487  -0.3901947   0.0000000), wk =   0.0250000
        k(   26) = (   0.0975487  -0.3901947   0.0975207), wk =   0.0500000
        k(   27) = (   0.0975487  -0.3901947   0.1950413), wk =   0.0500000
        k(   28) = (   0.1950974   0.1950974   0.0000000), wk =   0.0250000
        k(   29) = (   0.1950974   0.1950974   0.0975207), wk =   0.0500000
        k(   30) = (   0.1950974   0.1950974   0.1950413), wk =   0.0500000
        k(   31) = (   0.1950974   0.2926461   0.0000000), wk =   0.0500000
        k(   32) = (   0.1950974   0.2926461   0.0975207), wk =   0.1000000
        k(   33) = (   0.1950974   0.2926461   0.1950413), wk =   0.1000000
        k(   34) = (   0.1950974  -0.3901947   0.0000000), wk =   0.0250000
        k(   35) = (   0.1950974  -0.3901947   0.0975207), wk =   0.0500000
        k(   36) = (   0.1950974  -0.3901947   0.1950413), wk =   0.0500000
        k(   37) = (   0.2926461   0.2926461   0.0000000), wk =   0.0250000
        k(   38) = (   0.2926461   0.2926461   0.0975207), wk =   0.0500000
        k(   39) = (   0.2926461   0.2926461   0.1950413), wk =   0.0500000
        k(   40) = (   0.2926461  -0.3901947   0.0000000), wk =   0.0250000
        k(   41) = (   0.2926461  -0.3901947   0.0975207), wk =   0.0500000
        k(   42) = (   0.2926461  -0.3901947   0.1950413), wk =   0.0500000
        k(   43) = (  -0.3901947  -0.3901947   0.0000000), wk =   0.0062500
        k(   44) = (  -0.3901947  -0.3901947   0.0975207), wk =   0.0125000
        k(   45) = (  -0.3901947  -0.3901947   0.1950413), wk =   0.0125000

     Dense  grid:    26299 G-vectors     FFT dimensions: (  32,  32,  54)

     Estimated max dynamical RAM per process >      17.65 MB

     Estimated total dynamical RAM >     141.23 MB

     Initial potential from superposition of free atoms

     starting charge      14.9936, renormalised to      15.0000
     Starting wfcs are   14 randomized atomic wfcs

     total cpu time spent up to now is       36.2 secs

     Self-consistent Calculation

     iteration #  1     ecut=    80.00 Ry     beta= 0.70
     Davidson diagonalization with overlap
     c_bands:  1 eigenvalues not converged
     c_bands:  1 eigenvalues not converged
     c_bands:  3 eigenvalues not converged
     c_bands:  2 eigenvalues not converged
     c_bands:  1 eigenvalues not converged
     c_bands:  1 eigenvalues not converged
     c_bands:  1 eigenvalues not converged
     c_bands:  1 eigenvalues not converged
     c_bands:  1 eigenvalues not converged
     c_bands:  1 eigenvalues not converged
     c_bands:  1 eigenvalues not converged
     c_bands:  1 eigenvalues not converged
     c_bands:  1 eigenvalues not converged
     c_bands:  1 eigenvalues not converged
     ethr =  1.00E-06,  avg # of iterations = 17.3

     total cpu time spent up to now is       37.5 secs

     total energy              =     -39.56742366 Ry
     estimated scf accuracy    <       0.02722680 Ry

     iteration #  2     ecut=    80.00 Ry     beta= 0.70
     Davidson diagonalization with overlap
     ethr =  1.82E-04,  avg # of iterations =  2.0

     total cpu time spent up to now is       37.9 secs

     total energy              =     -39.56712126 Ry
     estimated scf accuracy    <       0.01682516 Ry

     iteration #  3     ecut=    80.00 Ry     beta= 0.70
     Davidson diagonalization with overlap
     ethr =  1.12E-04,  avg # of iterations =  2.0

     total cpu time spent up to now is       38.2 secs

     total energy              =     -39.57143739 Ry
     estimated scf accuracy    <       0.00263187 Ry

     iteration #  4     ecut=    80.00 Ry     beta= 0.70
     Davidson diagonalization with overlap
     ethr =  1.75E-05,  avg # of iterations =  1.5

     total cpu time spent up to now is       38.5 secs

     total energy              =     -39.57182344 Ry
     estimated scf accuracy    <       0.00001785 Ry

     iteration #  5     ecut=    80.00 Ry     beta= 0.70
     Davidson diagonalization with overlap
     ethr =  1.19E-07,  avg # of iterations =  4.2

     total cpu time spent up to now is       38.9 secs

     total energy              =     -39.57184689 Ry
     estimated scf accuracy    <       0.00001232 Ry

     iteration #  6     ecut=    80.00 Ry     beta= 0.70
     Davidson diagonalization with overlap
     ethr =  8.21E-08,  avg # of iterations =  2.0

     total cpu time spent up to now is       39.3 secs

     total energy              =     -39.57184925 Ry
     estimated scf accuracy    <       0.00000002 Ry

     iteration #  7     ecut=    80.00 Ry     beta= 0.70
     Davidson diagonalization with overlap
     ethr =  1.39E-10,  avg # of iterations =  4.2

     total cpu time spent up to now is       39.7 secs

     total energy              =     -39.57184929 Ry
     estimated scf accuracy    <          6.3E-09 Ry

     iteration #  8     ecut=    80.00 Ry     beta= 0.70
     Davidson diagonalization with overlap
     ethr =  4.20E-11,  avg # of iterations =  1.9

     total cpu time spent up to now is       40.0 secs

     total energy              =     -39.57184929 Ry
     estimated scf accuracy    <          1.7E-10 Ry

     iteration #  9     ecut=    80.00 Ry     beta= 0.70
     Davidson diagonalization with overlap
     ethr =  1.11E-12,  avg # of iterations =  3.8

     total cpu time spent up to now is       40.3 secs

     End of self-consistent calculation

          k = 0.0000 0.0000 0.0000 (  3281 PWs)   bands (ev):

   -32.8077  -2.8483   3.4030   4.8568  11.7211  11.7211  14.3605  15.0527
    17.7864  17.7864  18.6031  18.6031

          k = 0.0000 0.0000 0.0975 (  3269 PWs)   bands (ev):

   -32.8076  -2.7175   2.0930   6.6960  11.8988  11.8988  14.5514  14.5845
    16.1206  16.1206  18.2699  19.2808

          k = 0.0000 0.0000 0.1950 (  3286 PWs)   bands (ev):

   -32.8075  -2.4562   0.9737   9.4681  12.3007  12.3007  12.5558  14.7970
    14.7970  14.9723  16.7137  17.9096

          k = 0.0000 0.0975 0.0000 (  3258 PWs)   bands (ev):

   -32.8053  -2.5988   3.6603   4.9938   9.3393  11.9545  14.9480  15.4875
    16.8837  17.4890  18.0164  18.8373

          k = 0.0000 0.0975 0.0975 (  3263 PWs)   bands (ev):

   -32.8053  -2.4651   2.3118   6.8526   9.4768  12.1318  14.0879  14.8189
    16.3567  17.0102  18.6569  19.1279

          k = 0.0000 0.0975 0.1950 (  3278 PWs)   bands (ev):

   -32.8052  -2.1968   1.1803   9.4960   9.7750  12.5323  12.6086  13.5267
    15.0357  16.0910  18.5569  19.6116

          k = 0.0000 0.1951 0.0000 (  3280 PWs)   bands (ev):

   -32.7996  -1.8563   4.4289   5.1888   6.5681  12.4638  12.6537  14.3689
    15.8052  18.7042  19.4054  20.3889

          k = 0.0000 0.1951 0.0975 (  3273 PWs)   bands (ev):

   -32.7995  -1.7138   2.9397   6.3623   7.3742  11.5080  12.8300  15.5366
    16.0441  17.0584  18.8295  20.2749

          k = 0.0000 0.1951 0.1950 (  3285 PWs)   bands (ev):

   -32.7994  -1.4223   1.7808   6.7059   8.8750  11.5878  13.2268  13.9716
    15.7470  16.9661  18.8706  20.6475

          k = 0.0000 0.2926 0.0000 (  3296 PWs)   bands (ev):

   -32.7938  -0.6545   3.4705   5.6947   6.2488   9.7848  12.5806  13.8112
    16.8920  17.6022  19.8318  20.7912

          k = 0.0000 0.2926 0.0975 (  3278 PWs)   bands (ev):

   -32.7938  -0.4927   3.3773   4.3523   7.3760   9.9706  13.8582  13.9863
    16.7260  17.7264  18.2753  20.0431

          k = 0.0000 0.2926 0.1950 (  3286 PWs)   bands (ev):

   -32.7937  -0.1487   2.6529   4.0343   7.1714  12.1587  14.3795  15.0541
    16.5261  16.8945  18.1479  18.2739

          k = 0.0000-0.3902 0.0000 (  3288 PWs)   bands (ev):

   -32.7914   0.5200   1.8680   6.5111   7.1501   7.8529  11.8505  15.1364
    15.8291  17.8484  19.7874  21.0008

          k = 0.0000-0.3902 0.0975 (  3308 PWs)   bands (ev):

   -32.7914   0.7445   1.9182   4.8928   6.7290   9.9362  12.8521  15.3179
    15.9871  17.7626  19.3228  19.5341

          k = 0.0000-0.3902 0.1950 (  3278 PWs)   bands (ev):

   -32.7913   1.3054   2.0067   3.3740   6.1868  12.8729  15.1412  15.7413
    16.2465  16.3169  17.9933  18.0063

          k = 0.0975 0.0975 0.0000 (  3275 PWs)   bands (ev):

   -32.8030  -2.3492   3.9171   5.1436   9.3101   9.8601  15.5079  15.9740
    16.6089  17.4785  17.7473  17.7678

          k = 0.0975 0.0975 0.0975 (  3266 PWs)   bands (ev):

   -32.8029  -2.2129   2.5323   7.0236   9.4958   9.9405  13.8728  14.8175
    16.8083  17.9464  18.7851  18.9988

          k = 0.0975 0.0975 0.1950 (  3275 PWs)   bands (ev):

   -32.8028  -1.9378   1.3896   9.5893   9.9160  10.1078  12.5040  13.1687
    14.9286  18.3470  19.1638  21.1352

          k = 0.0975 0.1951 0.0000 (  3279 PWs)   bands (ev):

   -32.7973  -1.6065   4.6844   5.3989   6.7485  10.3044  12.7003  14.5156
    16.4806  17.4185  18.2243  18.6897

          k = 0.0975 0.1951 0.0975 (  3280 PWs)   bands (ev):

   -32.7973  -1.4618   3.1668   6.6022   7.5624  10.4129  11.6674  15.0884
    16.2088  17.7868  18.1832  19.4731

          k = 0.0975 0.1951 0.1950 (  3285 PWs)   bands (ev):

   -32.7972  -1.1644   1.9986   6.9489   9.1041  10.7339  11.3976  13.7687
    15.4732  18.4112  18.8790  19.5424

          k = 0.0975 0.2926 0.0000 (  3289 PWs)   bands (ev):

   -32.7916  -0.4036   3.7176   5.9477   6.4447  10.0316  11.3567  12.7312
    15.4382  17.6530  18.6204  19.6014

          k = 0.0975 0.2926 0.0975 (  3287 PWs)   bands (ev):

   -32.7916  -0.2405   3.6309   4.5742   7.6123  10.0981  11.6175  13.9111
    15.4572  16.3845  19.0082  19.5881

          k = 0.0975 0.2926 0.1950 (  3280 PWs)   bands (ev):

   -32.7915   0.1074   2.8892   4.2811   7.3724  11.9070  12.0974  14.8537
    15.8597  15.9614  16.8837  18.9215

          k = 0.0975-0.3902 0.0000 (  3286 PWs)   bands (ev):

   -32.7893   0.7766   2.1076   6.7392   7.3971   8.1073  11.7342  12.6657
    13.9345  18.9938  19.1753  19.3814

          k = 0.0975-0.3902 0.0975 (  3296 PWs)   bands (ev):

   -32.7892   1.0005   2.1629   5.1391   6.9390  10.1546  12.7325  12.8460
    13.9864  17.1709  18.6256  20.0705

          k = 0.0975-0.3902 0.1950 (  3282 PWs)   bands (ev):

   -32.7891   1.5595   2.2611   3.6269   6.3613  12.9095  13.2616  14.0310
    14.9296  15.9027  17.2951  17.3977

          k = 0.1951 0.1951 0.0000 (  3287 PWs)   bands (ev):

   -32.7919  -0.8628   5.4475   5.9246   6.8990   7.8411  13.1470  13.7633
    14.2454  14.6784  16.3817  20.9704

          k = 0.1951 0.1951 0.0975 (  3294 PWs)   bands (ev):

   -32.7918  -0.7111   3.8253   7.0884   7.5611   8.1919  11.4813  13.2082
    15.1793  16.4642  16.8204  19.4030

          k = 0.1951 0.1951 0.1950 (  3290 PWs)   bands (ev):

   -32.7917  -0.3944   2.6348   7.5198   7.8529   9.6913  10.0885  13.4440
    15.5037  16.0217  17.5079  19.6346

          k = 0.1951 0.2926 0.0000 (  3302 PWs)   bands (ev):

   -32.7864   0.3438   4.4498   6.7036   6.9442   8.4977  10.7626  12.1068
    13.1430  14.6823  15.9066  18.5223

          k = 0.1951 0.2926 0.0975 (  3295 PWs)   bands (ev):

   -32.7863   0.5111   4.3860   5.2150   8.3060   8.5608  10.4601  12.4682
    13.5286  14.4871  16.6300  19.1155

          k = 0.1951 0.2926 0.1950 (  3288 PWs)   bands (ev):

   -32.7862   0.8722   3.5841   5.0160   7.9438   8.9262  10.9521  12.8583
    14.1908  15.1702  16.8593  18.4000

          k = 0.1951-0.3902 0.0000 (  3296 PWs)   bands (ev):

   -32.7841   1.5433   2.8170   7.3977   8.1380   8.8611   9.6121  10.4432
    12.4191  15.9493  16.0308  16.7340

          k = 0.1951-0.3902 0.0975 (  3296 PWs)   bands (ev):

   -32.7841   1.7655   2.8888   5.8679   7.5430   9.7840  10.7399  10.8440
    12.8528  14.4121  16.2081  18.9134

          k = 0.1951-0.3902 0.1950 (  3278 PWs)   bands (ev):

   -32.7840   2.3195   3.0192   4.3784   6.8612  10.2529  11.0570  11.9600
    13.6997  14.7830  17.0532  17.9875

          k = 0.2926 0.2926 0.0000 (  3299 PWs)   bands (ev):

   -32.7811   1.5607   5.4237   5.8839   7.9480   7.9996   9.7756  11.6926
    12.3135  12.7504  13.9459  16.0032

          k = 0.2926 0.2926 0.0975 (  3296 PWs)   bands (ev):

   -32.7811   1.7380   5.6145   5.6149   6.5858   9.1867  10.0014  10.0322
    12.8273  13.4464  14.9979  17.2548

          k = 0.2926 0.2926 0.1950 (  3286 PWs)   bands (ev):

   -32.7810   2.1309   4.6570   6.0528   6.4141   8.5966   9.1953  10.3153
    13.1543  14.9425  17.9531  18.1907

          k = 0.2926-0.3902 0.0000 (  3292 PWs)   bands (ev):

   -32.7789   2.8068   3.9433   6.8573   8.1554   8.4844   9.3726  10.0687
    12.2610  13.3292  13.4729  14.2671

          k = 0.2926-0.3902 0.0975 (  3292 PWs)   bands (ev):

   -32.7789   3.0270   4.0513   6.8719   7.2796   7.9560   8.9383  10.7006
    12.0302  13.0855  14.8106  16.4037

          k = 0.2926-0.3902 0.1950 (  3294 PWs)   bands (ev):

   -32.7788   3.5758   4.2574   5.5900   7.5316   7.5959   8.4714   9.7065
    12.1056  15.6439  17.4612  19.1133

          k =-0.3902-0.3902 0.0000 (  3304 PWs)   bands (ev):

   -32.7768   4.2758   4.9300   4.9300   6.7396   9.2023  11.0054  11.2050
    11.2050  12.2458  12.2458  12.6993

          k =-0.3902-0.3902 0.0975 (  3268 PWs)   bands (ev):

   -32.7768   4.5069   5.1218   5.1218   6.6779   8.1860   9.5047   9.5047
    11.1269  14.1530  14.5030  14.5030

          k =-0.3902-0.3902 0.1950 (  3272 PWs)   bands (ev):

   -32.7767   5.1128   5.5620   5.5620   6.5837   6.8082   8.0961   8.0961
    11.3198  16.8900  17.7007  17.7007

     the Fermi energy is    13.2498 ev

!    total energy              =     -39.57184929 Ry
     estimated scf accuracy    <          8.0E-11 Ry
     smearing contrib. (-TS)   =       0.00058763 Ry
     internal energy E=F+TS    =     -39.57243691 Ry

     The total energy is F=E-TS. E is the sum of the following terms:
     one-electron contribution =      10.95811545 Ry
     hartree contribution      =       2.97572072 Ry
     xc contribution           =     -13.52950352 Ry
     ewald contribution        =     -39.97676956 Ry

     convergence has been achieved in   9 iterations

     Forces acting on atoms (cartesian axes, Ry/au):

     atom    1 type  1   force =     0.00000000    0.00000000   -0.00006302
     atom    2 type  1   force =     0.00000000    0.00000000    0.00006302
     atom    3 type  1   force =     0.00000000    0.00000000    0.00000000
     atom    4 type  2   force =     0.00000000    0.00000000    0.00000000
     The non-local contrib.  to forces
     atom    1 type  1   force =     0.00000000    0.00000000    0.00430925
     atom    2 type  1   force =     0.00000000    0.00000000   -0.00430925
     atom    3 type  1   force =     0.00000000    0.00000000    0.00000000
     atom    4 type  2   force =     0.00000000    0.00000000    0.00000000
     The ionic contribution  to forces
     atom    1 type  1   force =    -0.00000000    0.00000000   -0.32899561
     atom    2 type  1   force =    -0.00000000   -0.00000000    0.32899561
     atom    3 type  1   force =    -0.00000000   -0.00000000    0.00000000
     atom    4 type  2   force =    -0.00000000   -0.00000000   -0.00000000
     The local contribution  to forces
     atom    1 type  1   force =    -0.00000000   -0.00000000    0.32270329
     atom    2 type  1   force =    -0.00000000   -0.00000000   -0.32270329
     atom    3 type  1   force =    -0.00000000   -0.00000000   -0.00000000
     atom    4 type  2   force =     0.00000000   -0.00000000    0.00000000
     The core correction contribution to forces
     atom    1 type  1   force =    -0.00000000   -0.00000000    0.00190955
     atom    2 type  1   force =    -0.00000000   -0.00000000   -0.00190955
     atom    3 type  1   force =     0.00000000    0.00000000   -0.00000000
     atom    4 type  2   force =     0.00000000    0.00000000    0.00000000
     The Hubbard contrib.    to forces
     atom    1 type  1   force =     0.00000000    0.00000000    0.00000000
     atom    2 type  1   force =     0.00000000    0.00000000    0.00000000
     atom    3 type  1   force =     0.00000000    0.00000000    0.00000000
     atom    4 type  2   force =     0.00000000    0.00000000    0.00000000
     The SCF correction term to forces
     atom    1 type  1   force =    -0.00000000   -0.00000000    0.00001051
     atom    2 type  1   force =    -0.00000000   -0.00000000   -0.00001051
     atom    3 type  1   force =     0.00000000    0.00000000    0.00000000
     atom    4 type  2   force =     0.00000000    0.00000000   -0.00000000

     Total force =     0.000089     Total SCF correction =     0.000015
     SCF correction compared to forces is large: reduce conv_thr to get better values


     Computing stress (Cartesian axis) and pressure

          total   stress  (Ry/bohr**3)                   (kbar)     P=      531.54
   0.00365905   0.00000000   0.00000000          538.27        0.00        0.00
   0.00000000   0.00365905   0.00000000            0.00      538.27        0.00
   0.00000000   0.00000000   0.00352185            0.00        0.00      518.08


     Writing all to output data dir ./output/SiLi.save/

     init_run     :      0.75s CPU      0.84s WALL (       2 calls)
     electrons    :     27.22s CPU     30.71s WALL (      14 calls)
     update_pot   :      1.76s CPU      1.78s WALL (      12 calls)
     forces       :      1.46s CPU      1.53s WALL (      14 calls)
     stress       :      5.87s CPU      6.04s WALL (      14 calls)

     Called by init_run:
     wfcinit      :      0.21s CPU      0.22s WALL (       2 calls)
     potinit      :      0.19s CPU      0.22s WALL (       2 calls)
     hinit0       :      0.33s CPU      0.37s WALL (       2 calls)

     Called by electrons:
     c_bands      :     24.07s CPU     27.11s WALL (     110 calls)
     sum_band     :      2.83s CPU      2.99s WALL (     110 calls)
     v_of_rho     :      0.29s CPU      0.48s WALL (     122 calls)
     mix_rho      :      0.03s CPU      0.04s WALL (     110 calls)

     Called by c_bands:
     init_us_2    :      0.73s CPU      0.80s WALL (   11250 calls)
     init_us_2:cp :      0.72s CPU      0.79s WALL (   11250 calls)
     cegterg      :     22.07s CPU     23.27s WALL (    4950 calls)

     Called by *egterg:
     cdiaghg      :      3.20s CPU      3.33s WALL (   19926 calls)
     h_psi        :     16.42s CPU     17.38s WALL (   20646 calls)
     g_psi        :      0.10s CPU      0.11s WALL (   15606 calls)

     Called by h_psi:
     h_psi:calbec :      1.56s CPU      1.63s WALL (   20646 calls)
     vloc_psi     :     13.69s CPU     14.52s WALL (   20646 calls)
     add_vuspsi   :      1.06s CPU      1.11s WALL (   20646 calls)

     General routines
     calbec       :      1.89s CPU      1.98s WALL (   23796 calls)
     fft          :      0.36s CPU      0.63s WALL (    1570 calls)
     ffts         :      0.01s CPU      0.01s WALL (     110 calls)
     fftw         :     13.90s CPU     14.71s WALL (  401586 calls)

     Parallel routines

     PWSCF        :     37.37s CPU     41.51s WALL


   This run was terminated on:  11: 4:51  29Dec2024            

=------------------------------------------------------------------------------=
   JOB DONE.
=------------------------------------------------------------------------------=
