
     Program PWSCF v.7.2 starts on 29Dec2024 at 11:40:20 

     This program is part of the open-source Quantum ESPRESSO suite
     for quantum simulation of materials; please cite
         "P. Giannozzi et al., J. Phys.:Condens. Matter 21 395502 (2009);
         "P. Giannozzi et al., J. Phys.:Condens. Matter 29 465901 (2017);
         "P. Giannozzi et al., J. Chem. Phys. 152 154105 (2020);
          URL http://www.quantum-espresso.org", 
     in publications or presentations arising from this work. More details at
     http://www.quantum-espresso.org/quote

     Parallel version (MPI & OpenMP), running on       8 processor cores
     Number of MPI processes:                 8
     Threads/MPI process:                     1

     MPI processes distributed on     1 nodes
     480781 MiB available memory on the printing compute node when the environment starts

     Waiting for input...
     Reading input from standard input

     Current dimensions of program PWSCF are:
     Max number of different atomic species (ntypx) = 10
     Max number of k-points (npk) =  40000
     Max angular momentum in pseudopotentials (lmaxx) =  4

     R & G space division:  proc/nbgrp/npool/nimage =       8
     Subspace diagonalization in iterative solution of the eigenvalue problem:
     a serial algorithm will be used


     Parallelization info
     --------------------
     sticks:   dense  smooth     PW     G-vecs:    dense   smooth      PW
     Min         182     182     58                 2885     2885     517
     Max         183     183     59                 2887     2887     518
     Sum        1463    1463    469                23089    23089    4143

     Using Slab Decomposition



     bravais-lattice index     =            5
     lattice parameter (alat)  =      12.1805  a.u.
     unit-cell volume          =     238.5708 (a.u.)^3
     number of atoms/cell      =            4
     number of atomic types    =            2
     number of electrons       =        15.00
     number of Kohn-Sham states=           12
     kinetic-energy cutoff     =      80.0000  Ry
     charge density cutoff     =     320.0000  Ry
     scf convergence threshold =      1.0E-08
     mixing beta               =       0.7000
     number of iterations used =            8  plain     mixing
     energy convergence thresh.=      1.0E-04
     force convergence thresh. =      1.0E-03
     press convergence thresh. =      1.0E+00
     Exchange-correlation= PBE
                           (   1   4   3   4   0   0   0)
     nstep                     =           50


     celldm(1)=  12.180496  celldm(2)=   0.000000  celldm(3)=   0.000000
     celldm(4)=   0.921711  celldm(5)=   0.000000  celldm(6)=   0.000000

     crystal axes: (cart. coord. in units of alat)
               a(1) = (   0.197850  -0.114229   0.973554 )  
               a(2) = (   0.000000   0.228457   0.973554 )  
               a(3) = (  -0.197850  -0.114229   0.973554 )  

     reciprocal axes: (cart. coord. in units 2 pi/alat)
               b(1) = (  2.527168 -1.459061  0.342388 )  
               b(2) = (  0.000000  2.918123  0.342388 )  
               b(3) = ( -2.527168 -1.459061  0.342388 )  


     PseudoPot. # 1 for Si read from file:
     ../pseudo/Si_ONCV_PBE_sr.upf
     MD5 check sum: e543d271109d17c80368dfa7c482276d
     Pseudo is Norm-conserving + core correction, Zval =  4.0
     Generated using ONCVPSP code by D. R. Hamann
     Using radial grid of 1510 points,  6 beta functions with: 
                l(1) =   0
                l(2) =   0
                l(3) =   1
                l(4) =   1
                l(5) =   2
                l(6) =   2

     PseudoPot. # 2 for Li read from file:
     ../pseudo/Li_ONCV_PBE_sr.upf
     MD5 check sum: 50ff420e78310ffa21704f3361e624a4
     Pseudo is Norm-conserving, Zval =  3.0
     Generated using ONCVPSP code by D. R. Hamann
     Using radial grid of 1944 points,  4 beta functions with: 
                l(1) =   0
                l(2) =   0
                l(3) =   1
                l(4) =   1

     atomic species   valence    mass     pseudopotential
        Si             4.00    28.08550     Si( 1.00)
        Li             3.00     6.94100     Li( 1.00)

     12 Sym. Ops., with inversion, found



   Cartesian axes

     site n.     atom                  positions (alat units)
         1           Si  tau(   1) = (  -0.0000000  -0.0000000   0.8012874  )
         2           Si  tau(   2) = (   0.0000000  -0.0000000   2.1193743  )
         3           Si  tau(   3) = (   0.0000000  -0.0000000   1.4603309  )
         4           Li  tau(   4) = (   0.0000000   0.0000000   0.0000000  )

     number of k points=    13  Marzari-Vanderbilt smearing, width (Ry)=  0.0200
                       cart. coord. in units 2pi/alat
        k(    1) = (   0.0000000   0.0000000   0.0000000), wk =   0.0312500
        k(    2) = (  -0.6317921  -0.3647653   0.0855970), wk =   0.1875000
        k(    3) = (   1.2635842   0.7295307  -0.1711941), wk =   0.0937500
        k(    4) = (  -0.6317921   0.3647653   0.1711941), wk =   0.1875000
        k(    5) = (   1.2635842   1.4590613  -0.0855970), wk =   0.3750000
        k(    6) = (   0.6317921   1.0942960   0.0000000), wk =   0.1875000
        k(    7) = (   1.2635842  -0.7295307  -0.3423882), wk =   0.0937500
        k(    8) = (   0.0000000   0.0000000   0.2567911), wk =   0.0625000
        k(    9) = (   1.8953763   1.0942960   0.0000000), wk =   0.1875000
        k(   10) = (   1.2635842   0.7295307   0.0855970), wk =   0.1875000
        k(   11) = (   1.8953763  -1.0942960  -0.2567911), wk =   0.1875000
        k(   12) = (   1.2635842  -1.4590613  -0.1711941), wk =   0.1875000
        k(   13) = (   0.0000000   0.0000000  -0.5135822), wk =   0.0312500

     Dense  grid:    23089 G-vectors     FFT dimensions: (  72,  72,  72)

     Estimated max dynamical RAM per process >      17.55 MB

     Estimated total dynamical RAM >     140.37 MB

     Initial potential from superposition of free atoms

     starting charge      14.9936, renormalised to      15.0000
     Starting wfcs are   14 randomized atomic wfcs

     total cpu time spent up to now is        1.3 secs

     Self-consistent Calculation

     iteration #  1     ecut=    80.00 Ry     beta= 0.70
     Davidson diagonalization with overlap
     ethr =  1.00E-02,  avg # of iterations =  5.5

     total cpu time spent up to now is        2.1 secs

     total energy              =     -38.01884745 Ry
     estimated scf accuracy    <       1.54046193 Ry

     iteration #  2     ecut=    80.00 Ry     beta= 0.70
     Davidson diagonalization with overlap
     ethr =  1.00E-02,  avg # of iterations =  5.1

     total cpu time spent up to now is        2.9 secs

     total energy              =     -36.76926975 Ry
     estimated scf accuracy    <      19.28059619 Ry

     iteration #  3     ecut=    80.00 Ry     beta= 0.70
     Davidson diagonalization with overlap
     ethr =  1.00E-02,  avg # of iterations =  3.3

     total cpu time spent up to now is        3.6 secs

     total energy              =     -39.11408858 Ry
     estimated scf accuracy    <       0.03042997 Ry

     iteration #  4     ecut=    80.00 Ry     beta= 0.70
     Davidson diagonalization with overlap
     ethr =  2.03E-04,  avg # of iterations =  7.1

     total cpu time spent up to now is        4.3 secs

     total energy              =     -39.13075584 Ry
     estimated scf accuracy    <       0.00222032 Ry

     iteration #  5     ecut=    80.00 Ry     beta= 0.70
     Davidson diagonalization with overlap
     ethr =  1.48E-05,  avg # of iterations =  4.4

     total cpu time spent up to now is        4.9 secs

     total energy              =     -39.13111668 Ry
     estimated scf accuracy    <       0.00009016 Ry

     iteration #  6     ecut=    80.00 Ry     beta= 0.70
     Davidson diagonalization with overlap
     ethr =  6.01E-07,  avg # of iterations =  3.6

     total cpu time spent up to now is        5.4 secs

     total energy              =     -39.13113932 Ry
     estimated scf accuracy    <       0.00001180 Ry

     iteration #  7     ecut=    80.00 Ry     beta= 0.70
     Davidson diagonalization with overlap
     ethr =  7.86E-08,  avg # of iterations =  1.4

     total cpu time spent up to now is        5.8 secs

     total energy              =     -39.13114032 Ry
     estimated scf accuracy    <       0.00000118 Ry

     iteration #  8     ecut=    80.00 Ry     beta= 0.70
     Davidson diagonalization with overlap
     ethr =  7.84E-09,  avg # of iterations =  1.9

     total cpu time spent up to now is        6.3 secs

     total energy              =     -39.13114061 Ry
     estimated scf accuracy    <       0.00000004 Ry

     iteration #  9     ecut=    80.00 Ry     beta= 0.70
     Davidson diagonalization with overlap
     ethr =  2.62E-10,  avg # of iterations =  3.3

     total cpu time spent up to now is        6.7 secs

     End of self-consistent calculation

          k = 0.0000 0.0000 0.0000 (  2865 PWs)   bands (ev):

   -32.6410  -0.9714   1.5820   3.5250  11.3772  13.2691  23.2227  23.2228
    24.6214  24.6215  25.9010  25.9020

          k =-0.6318-0.3648 0.0856 (  2894 PWs)   bands (ev):

   -32.5670   0.7394   3.2554   4.9202  12.3271  13.8184  15.4408  16.6949
    18.9946  19.4826  21.2305  23.0319

          k = 1.2636 0.7295-0.1712 (  2896 PWs)   bands (ev):

   -32.4926   4.6569   6.4814   7.7713   8.2254   9.4936  11.9146  16.2551
    17.3653  17.4584  19.5920  19.6901

          k =-0.6318 0.3648 0.1712 (  2889 PWs)   bands (ev):

   -32.5670   0.7929   2.9330   5.3927  11.4110  14.2680  15.4235  17.0982
    18.8676  21.1991  21.5415  21.9737

          k = 1.2636 1.4591-0.0856 (  2887 PWs)   bands (ev):

   -32.4928   4.1291   5.6997   8.7060  10.2255  11.6788  12.3487  12.7236
    14.5979  15.6607  17.7498  19.6577

          k = 0.6318 1.0943 0.0000 (  2887 PWs)   bands (ev):

   -32.4928   3.9317   6.9292   7.1816  10.2718  11.7528  12.0963  12.9991
    15.3192  17.0480  17.3593  19.2016

          k = 1.2636-0.7295-0.3424 (  2890 PWs)   bands (ev):

   -32.4926   4.8516   6.5200   6.6413   8.6751  10.3535  12.9463  14.0773
    16.1356  17.1937  20.8150  20.9793

          k = 0.0000 0.0000 0.2568 (  2851 PWs)   bands (ev):

   -32.6410  -0.8645   1.0357   4.4874   9.2980  15.7831  23.1948  23.1948
    23.3375  24.5459  24.5459  25.9294

          k = 1.8954 1.0943 0.0000 (  2887 PWs)   bands (ev):

   -32.5670   0.9760   2.3281   6.5226   9.8076  14.2072  17.1810  17.6098
    18.7570  18.9608  21.3805  22.8996

          k = 1.2636 0.7295 0.0856 (  2896 PWs)   bands (ev):

   -32.4926   4.7450   6.5048   7.0276   8.8035   9.6111  12.6880  14.4655
    17.2725  17.6078  19.7676  20.0523

          k = 1.8954-1.0943-0.2568 (  2876 PWs)   bands (ev):

   -32.5670   1.0786   2.1043   7.1881   8.9941  14.3295  16.2588  18.8409
    19.0942  20.2336  21.1787  22.3236

          k = 1.2636-1.4591-0.1712 (  2882 PWs)   bands (ev):

   -32.4928   4.6926   4.7495   9.7868  10.6484  11.1232  11.7909  13.1223
    13.8408  15.2904  17.1523  21.3013

          k = 0.0000 0.0000-0.5136 (  2866 PWs)   bands (ev):

   -32.6410  -0.7208   0.6095   5.7747   7.5501  18.9421  19.9196  23.1712
    23.1713  24.4430  24.4430  26.4970

     the Fermi energy is    15.3965 ev

!    total energy              =     -39.13114062 Ry
     estimated scf accuracy    <          2.6E-09 Ry
     smearing contrib. (-TS)   =      -0.00246111 Ry
     internal energy E=F+TS    =     -39.12867951 Ry

     The total energy is F=E-TS. E is the sum of the following terms:
     one-electron contribution =       8.87015917 Ry
     hartree contribution      =       5.14822081 Ry
     xc contribution           =     -13.83941752 Ry
     ewald contribution        =     -39.30764198 Ry

     convergence has been achieved in   9 iterations

     Forces acting on atoms (cartesian axes, Ry/au):

     atom    1 type  1   force =     0.00000000    0.00000000   -0.32642314
     atom    2 type  1   force =     0.00000000    0.00000000    0.32642314
     atom    3 type  1   force =    -0.00000000   -0.00000000   -0.00000000
     atom    4 type  2   force =     0.00000000   -0.00000000    0.00000000
     The non-local contrib.  to forces
     atom    1 type  1   force =     0.00000000   -0.00000000   -0.26763609
     atom    2 type  1   force =     0.00000000   -0.00000000    0.26763609
     atom    3 type  1   force =     0.00000000    0.00000000   -0.00000000
     atom    4 type  2   force =    -0.00000000   -0.00000000    0.00000000
     The ionic contribution  to forces
     atom    1 type  1   force =     0.00000000   -0.00000000   -3.45169928
     atom    2 type  1   force =    -0.00000000    0.00000000    3.45169928
     atom    3 type  1   force =     0.00000000    0.00000000    0.00000000
     atom    4 type  2   force =     0.00000000   -0.00000000    0.00000000
     The local contribution  to forces
     atom    1 type  1   force =    -0.00000000    0.00000000    3.37636680
     atom    2 type  1   force =    -0.00000000   -0.00000000   -3.37636680
     atom    3 type  1   force =    -0.00000000   -0.00000000    0.00000000
     atom    4 type  2   force =     0.00000000   -0.00000000    0.00000000
     The core correction contribution to forces
     atom    1 type  1   force =     0.00000000    0.00000000    0.01646370
     atom    2 type  1   force =     0.00000000   -0.00000000   -0.01646370
     atom    3 type  1   force =    -0.00000000   -0.00000000   -0.00000000
     atom    4 type  2   force =     0.00000000    0.00000000    0.00000000
     The Hubbard contrib.    to forces
     atom    1 type  1   force =     0.00000000    0.00000000    0.00000000
     atom    2 type  1   force =     0.00000000    0.00000000    0.00000000
     atom    3 type  1   force =     0.00000000    0.00000000    0.00000000
     atom    4 type  2   force =     0.00000000    0.00000000    0.00000000
     The SCF correction term to forces
     atom    1 type  1   force =     0.00000000    0.00000000    0.00008174
     atom    2 type  1   force =    -0.00000000   -0.00000000   -0.00008174
     atom    3 type  1   force =    -0.00000000   -0.00000000    0.00000000
     atom    4 type  2   force =    -0.00000000   -0.00000000   -0.00000000

     Total force =     0.461632     Total SCF correction =     0.000116


     Computing stress (Cartesian axis) and pressure

          total   stress  (Ry/bohr**3)                   (kbar)     P=     1032.24
   0.00694011  -0.00000000  -0.00000000         1020.93       -0.00       -0.00
  -0.00000000   0.00694011   0.00000000           -0.00     1020.93        0.00
   0.00000000   0.00000000   0.00717093            0.00        0.00     1054.88


     BFGS Geometry Optimization
     Energy error            =      0.0E+00 Ry
     Gradient error          =      3.3E-01 Ry/Bohr
     Cell gradient error     =      5.5E+02 kbar

     number of scf cycles    =   1
     number of bfgs steps    =   0

     enthalpy           new  =     -38.3202550854 Ry

     new trust radius        =       0.3264231359 bohr
ibrav =      5
 celldm(1) =     13.32545724
 celldm(4) =      0.92249177
Input lattice vectors:
     0.21536546    -0.12434131     1.06536002
    -0.00000000     0.24868262     1.06536002
    -0.21536546    -0.12434131     1.06536002
New lattice vectors in INITIAL alat:
     0.21536546    -0.12434131     1.06536002
     0.00000000     0.24868262     1.06536002
    -0.21536546    -0.12434131     1.06536002
New lattice vectors in NEW alat (for information only):
     0.19686065    -0.11365755     0.97382126
     0.00000000     0.22731510     0.97382126
    -0.19686065    -0.11365755     0.97382126
Discrepancy in bohr =     0.000000    0.000000    0.000000
     new conv_thr            =       0.0000000100 Ry

     new unit-cell volume =    309.33857 a.u.^3 (    45.83925 Ang^3 )
     density =      3.30365 g/cm^3

CELL_PARAMETERS (alat= 12.18049612)
   0.215365464  -0.124341309   1.065360016
   0.000000000   0.248682617   1.065360016
  -0.215365464  -0.124341309   1.065360016

ATOMIC_POSITIONS (crystal)
Si            0.2651757254        0.2651757254        0.2651757254
Si            0.7348242746        0.7348242746        0.7348242746
Si            0.5000000000        0.5000000000        0.5000000000
Li            0.0000000000       -0.0000000000       -0.0000000000



     Writing config-only to output data dir ./output/SiLi.save/
     NEW-OLD atomic charge density approx. for the potential
     extrapolated charge   18.43011, renormalised to   15.00000

     total cpu time spent up to now is        7.7 secs

     Self-consistent Calculation

     iteration #  1     ecut=    80.00 Ry     beta= 0.70
     Davidson diagonalization with overlap
     c_bands:  1 eigenvalues not converged
     c_bands:  1 eigenvalues not converged
     c_bands:  1 eigenvalues not converged
     ethr =  1.00E-06,  avg # of iterations = 15.8

     total cpu time spent up to now is        9.3 secs

     total energy              =     -36.21470378 Ry
     estimated scf accuracy    <       3.70836903 Ry

     iteration #  2     ecut=    80.00 Ry     beta= 0.70
     Davidson diagonalization with overlap
     ethr =  1.00E-02,  avg # of iterations =  5.8

     total cpu time spent up to now is       10.1 secs

     total energy              =     -36.58611773 Ry
     estimated scf accuracy    <      41.80846151 Ry

     iteration #  3     ecut=    80.00 Ry     beta= 0.70
     Davidson diagonalization with overlap
     ethr =  1.00E-02,  avg # of iterations =  3.5

     total cpu time spent up to now is       10.7 secs

     total energy              =     -39.65390202 Ry
     estimated scf accuracy    <       2.22328420 Ry

     iteration #  4     ecut=    80.00 Ry     beta= 0.70
     Davidson diagonalization with overlap
     ethr =  1.00E-02,  avg # of iterations =  1.1

     total cpu time spent up to now is       11.1 secs

     total energy              =     -39.51825367 Ry
     estimated scf accuracy    <       1.23307279 Ry

     iteration #  5     ecut=    80.00 Ry     beta= 0.70
     Davidson diagonalization with overlap
     ethr =  8.22E-03,  avg # of iterations =  1.2

     total cpu time spent up to now is       11.5 secs

     total energy              =     -39.53549471 Ry
     estimated scf accuracy    <       0.26147749 Ry

     iteration #  6     ecut=    80.00 Ry     beta= 0.70
     Davidson diagonalization with overlap
     ethr =  1.74E-03,  avg # of iterations =  2.2

     total cpu time spent up to now is       11.9 secs

     total energy              =     -39.55884298 Ry
     estimated scf accuracy    <       0.02013596 Ry

     iteration #  7     ecut=    80.00 Ry     beta= 0.70
     Davidson diagonalization with overlap
     ethr =  1.34E-04,  avg # of iterations =  4.7

     total cpu time spent up to now is       12.5 secs

     total energy              =     -39.56469517 Ry
     estimated scf accuracy    <       0.00031301 Ry

     iteration #  8     ecut=    80.00 Ry     beta= 0.70
     Davidson diagonalization with overlap
     ethr =  2.09E-06,  avg # of iterations =  6.2

     total cpu time spent up to now is       13.1 secs

     total energy              =     -39.56485758 Ry
     estimated scf accuracy    <       0.00026455 Ry

     iteration #  9     ecut=    80.00 Ry     beta= 0.70
     Davidson diagonalization with overlap
     ethr =  1.76E-06,  avg # of iterations =  1.0

     total cpu time spent up to now is       13.6 secs

     total energy              =     -39.56486195 Ry
     estimated scf accuracy    <       0.00004358 Ry

     iteration # 10     ecut=    80.00 Ry     beta= 0.70
     Davidson diagonalization with overlap
     ethr =  2.91E-07,  avg # of iterations =  1.8

     total cpu time spent up to now is       14.0 secs

     total energy              =     -39.56486976 Ry
     estimated scf accuracy    <       0.00000414 Ry

     iteration # 11     ecut=    80.00 Ry     beta= 0.70
     Davidson diagonalization with overlap
     ethr =  2.76E-08,  avg # of iterations =  1.4

     total cpu time spent up to now is       14.4 secs

     total energy              =     -39.56487007 Ry
     estimated scf accuracy    <       0.00000042 Ry

     iteration # 12     ecut=    80.00 Ry     beta= 0.70
     Davidson diagonalization with overlap
     ethr =  2.79E-09,  avg # of iterations =  2.0

     total cpu time spent up to now is       14.8 secs

     total energy              =     -39.56487010 Ry
     estimated scf accuracy    <       0.00000006 Ry

     iteration # 13     ecut=    80.00 Ry     beta= 0.70
     Davidson diagonalization with overlap
     ethr =  4.20E-10,  avg # of iterations =  1.8

     total cpu time spent up to now is       15.2 secs

     End of self-consistent calculation

          k = 0.0000 0.0000 0.0000 (  2865 PWs)   bands (ev):

   -34.7539  -3.1591  -0.8441   1.3951   7.6054  10.2118  18.8509  18.8509
    19.0338  19.0338  19.4977  19.4977

          k =-0.5804-0.3351 0.0782 (  2894 PWs)   bands (ev):

   -34.7270  -1.6337   0.6326   2.7527   8.6078  10.3236  11.3028  12.5049
    14.7722  15.2227  15.6865  17.6517

          k = 1.1608 0.6702-0.1564 (  2896 PWs)   bands (ev):

   -34.6999   2.4544   3.2262   4.6621   5.1466   6.5216   8.0228  11.9463
    13.4419  13.9809  14.1340  15.6442

          k =-0.5804 0.3351 0.1564 (  2889 PWs)   bands (ev):

   -34.7269  -1.6063   0.4801   3.0169   8.1292  10.4545  11.0594  12.9585
    14.8360  16.0493  16.5960  17.2272

          k = 1.1608 1.3404-0.0782 (  2887 PWs)   bands (ev):

   -34.6999   1.4449   3.1212   6.0178   7.1238   7.6807   8.7449   9.0897
    10.3665  11.5597  13.2079  14.8167

          k = 0.5804 1.0053 0.0000 (  2887 PWs)   bands (ev):

   -34.6999   1.3288   3.7346   5.0531   7.3454   7.5220   8.4227   9.3572
    11.5484  12.3170  13.0814  13.8581

          k = 1.1608-0.6702-0.3129 (  2890 PWs)   bands (ev):

   -34.6999   2.7892   2.9825   4.1074   5.1091   7.1386   9.1899  10.5538
    11.7365  13.3722  15.8936  15.9803

          k =-0.0000-0.0000 0.2347 (  2851 PWs)   bands (ev):

   -34.7538  -3.0957  -1.1667   2.0473   6.2259  11.9659  18.4129  18.6562
    18.6564  19.0342  19.0346  19.8629

          k = 1.7412 1.0053 0.0000 (  2887 PWs)   bands (ev):

   -34.7269  -1.5156   0.1185   3.8425   6.8002  10.2135  12.6549  13.5927
    14.1787  15.0459  15.9913  17.8797

          k = 1.1608 0.6702 0.0782 (  2896 PWs)   bands (ev):

   -34.6999   2.5680   3.1716   4.2762   5.2668   6.6743   8.7068  10.9109
    12.9079  13.5416  14.9079  15.8246

          k = 1.7412-1.0053-0.2347 (  2876 PWs)   bands (ev):

   -34.7269  -1.4786   0.0061   4.2218   6.3302  10.2900  11.9164  14.3491
    14.7746  15.7888  16.7098  17.0149

          k = 1.1608-1.3404-0.1564 (  2882 PWs)   bands (ev):

   -34.6999   1.6125   2.6687   6.9880   7.3988   7.7197   8.0818   9.2094
     9.5588  11.1218  12.9505  16.1786

          k = 0.0000 0.0000-0.4693 (  2866 PWs)   bands (ev):

   -34.7539  -3.0209  -1.4338   2.8891   5.0119  14.1507  15.9662  18.5652
    18.5652  18.9503  18.9505  20.9548

     the Fermi energy is    11.2424 ev

!    total energy              =     -39.56487011 Ry
     estimated scf accuracy    <          4.8E-10 Ry
     smearing contrib. (-TS)   =      -0.00058941 Ry
     internal energy E=F+TS    =     -39.56428070 Ry

     The total energy is F=E-TS. E is the sum of the following terms:
     one-electron contribution =       7.44921398 Ry
     hartree contribution      =       3.74588532 Ry
     xc contribution           =     -13.14151996 Ry
     ewald contribution        =     -37.61786003 Ry

     convergence has been achieved in  13 iterations

     Forces acting on atoms (cartesian axes, Ry/au):

     atom    1 type  1   force =     0.00000000   -0.00000000   -0.14955017
     atom    2 type  1   force =     0.00000000   -0.00000000    0.14955017
     atom    3 type  1   force =     0.00000000   -0.00000000   -0.00000000
     atom    4 type  2   force =    -0.00000000    0.00000000    0.00000000
     The non-local contrib.  to forces
     atom    1 type  1   force =    -0.00000000    0.00000000   -0.18684058
     atom    2 type  1   force =    -0.00000000    0.00000000    0.18684058
     atom    3 type  1   force =    -0.00000000    0.00000000   -0.00000000
     atom    4 type  2   force =    -0.00000000    0.00000000   -0.00000000
     The ionic contribution  to forces
     atom    1 type  1   force =    -0.00000000   -0.00000000   -1.49962252
     atom    2 type  1   force =    -0.00000000    0.00000000    1.49962252
     atom    3 type  1   force =    -0.00000000    0.00000000   -0.00000000
     atom    4 type  2   force =    -0.00000000   -0.00000000    0.00000000
     The local contribution  to forces
     atom    1 type  1   force =    -0.00000000    0.00000000    1.52654430
     atom    2 type  1   force =    -0.00000000   -0.00000000   -1.52654430
     atom    3 type  1   force =    -0.00000000    0.00000000    0.00000000
     atom    4 type  2   force =     0.00000000    0.00000000   -0.00000000
     The core correction contribution to forces
     atom    1 type  1   force =     0.00000000   -0.00000000    0.01033887
     atom    2 type  1   force =    -0.00000000    0.00000000   -0.01033887
     atom    3 type  1   force =     0.00000000   -0.00000000    0.00000000
     atom    4 type  2   force =     0.00000000    0.00000000    0.00000000
     The Hubbard contrib.    to forces
     atom    1 type  1   force =     0.00000000    0.00000000    0.00000000
     atom    2 type  1   force =     0.00000000    0.00000000    0.00000000
     atom    3 type  1   force =     0.00000000    0.00000000    0.00000000
     atom    4 type  2   force =     0.00000000    0.00000000    0.00000000
     The SCF correction term to forces
     atom    1 type  1   force =    -0.00000000    0.00000000    0.00002976
     atom    2 type  1   force =    -0.00000000   -0.00000000   -0.00002976
     atom    3 type  1   force =     0.00000000   -0.00000000   -0.00000000
     atom    4 type  2   force =     0.00000000    0.00000000    0.00000000

     Total force =     0.211496     Total SCF correction =     0.000042


     Computing stress (Cartesian axis) and pressure

          total   stress  (Ry/bohr**3)                   (kbar)     P=      280.90
   0.00194174   0.00000000  -0.00000000          285.64        0.00       -0.00
  -0.00000000   0.00194174   0.00000000           -0.00      285.64        0.00
  -0.00000000   0.00000000   0.00184511           -0.00        0.00      271.43

     Energy error            =      1.9E-01 Ry
     Gradient error          =      1.5E-01 Ry/Bohr
     Cell gradient error     =      2.3E+02 kbar

     number of scf cycles    =   2
     number of bfgs steps    =   1

     enthalpy           old  =     -38.3202550854 Ry
     enthalpy           new  =     -38.5134496843 Ry

     CASE: enthalpy          _new < enthalpy          _old

     new trust radius        =       0.2604317245 bohr
ibrav =      5
 celldm(1) =     13.04688059
 celldm(4) =      0.92233960
Input lattice vectors:
     0.21107001    -0.12186133     1.04303223
    -0.00000000     0.24372266     1.04303223
    -0.21107001    -0.12186133     1.04303223
New lattice vectors in INITIAL alat:
     0.21107001    -0.12186133     1.04303223
     0.00000000     0.24372266     1.04303223
    -0.21107001    -0.12186133     1.04303223
New lattice vectors in NEW alat (for information only):
     0.19705381    -0.11376907     0.97376917
     0.00000000     0.22753814     0.97376917
    -0.19705381    -0.11376907     0.97376917
Discrepancy in bohr =     0.000000    0.000000    0.000000
     new conv_thr            =       0.0000000100 Ry

     new unit-cell volume =    290.89507 a.u.^3 (    43.10620 Ang^3 )
     density =      3.51311 g/cm^3

CELL_PARAMETERS (alat= 12.18049612)
   0.211070012  -0.121861329   1.043032235
   0.000000000   0.243722657   1.043032235
  -0.211070012  -0.121861329   1.043032235

ATOMIC_POSITIONS (crystal)
Si            0.2584859542        0.2584859542        0.2584859542
Si            0.7415140458        0.7415140458        0.7415140458
Si            0.5000000000        0.5000000000        0.5000000000
Li            0.0000000000       -0.0000000000       -0.0000000000



     Writing config-only to output data dir ./output/SiLi.save/
     NEW-OLD atomic charge density approx. for the potential
     extrapolated charge   14.04937, renormalised to   15.00000

     total cpu time spent up to now is       16.1 secs

     Self-consistent Calculation

     iteration #  1     ecut=    80.00 Ry     beta= 0.70
     Davidson diagonalization with overlap
     ethr =  1.00E-06,  avg # of iterations = 12.5

     total cpu time spent up to now is       17.4 secs

     total energy              =     -39.57078710 Ry
     estimated scf accuracy    <       0.01231621 Ry

     iteration #  2     ecut=    80.00 Ry     beta= 0.70
     Davidson diagonalization with overlap
     ethr =  8.21E-05,  avg # of iterations =  3.4

     total cpu time spent up to now is       17.9 secs

     total energy              =     -39.57024938 Ry
     estimated scf accuracy    <       0.18010905 Ry

     iteration #  3     ecut=    80.00 Ry     beta= 0.70
     Davidson diagonalization with overlap
     ethr =  8.21E-05,  avg # of iterations =  3.2

     total cpu time spent up to now is       18.4 secs

     total energy              =     -39.58411729 Ry
     estimated scf accuracy    <       0.00718197 Ry

     iteration #  4     ecut=    80.00 Ry     beta= 0.70
     Davidson diagonalization with overlap
     ethr =  4.79E-05,  avg # of iterations =  1.9

     total cpu time spent up to now is       18.8 secs

     total energy              =     -39.58457971 Ry
     estimated scf accuracy    <       0.00050936 Ry

     iteration #  5     ecut=    80.00 Ry     beta= 0.70
     Davidson diagonalization with overlap
     ethr =  3.40E-06,  avg # of iterations =  3.8

     total cpu time spent up to now is       19.3 secs

     total energy              =     -39.58465098 Ry
     estimated scf accuracy    <       0.00001446 Ry

     iteration #  6     ecut=    80.00 Ry     beta= 0.70
     Davidson diagonalization with overlap
     ethr =  9.64E-08,  avg # of iterations =  3.3

     total cpu time spent up to now is       19.7 secs

     total energy              =     -39.58465776 Ry
     estimated scf accuracy    <       0.00000170 Ry

     iteration #  7     ecut=    80.00 Ry     beta= 0.70
     Davidson diagonalization with overlap
     ethr =  1.13E-08,  avg # of iterations =  1.8

     total cpu time spent up to now is       20.1 secs

     End of self-consistent calculation

          k = 0.0000 0.0000 0.0000 (  2865 PWs)   bands (ev):

   -33.7089  -3.3803  -0.7013   2.4184   8.1361  11.6521  19.5034  19.5034
    19.9865  19.9865  21.2785  21.2785

          k =-0.5922-0.3419 0.0799 (  2894 PWs)   bands (ev):

   -33.6781  -1.7781   0.8652   3.8144   9.2274  10.8091  12.2484  13.7175
    15.7231  16.1388  17.0658  18.2499

          k = 1.1844 0.6838-0.1598 (  2896 PWs)   bands (ev):

   -33.6473   2.7155   3.1563   5.4067   5.4112   7.5023   9.1353  12.9727
    14.3314  14.3825  15.5707  15.9085

          k =-0.5922 0.3419 0.1598 (  2889 PWs)   bands (ev):

   -33.6781  -1.7644   0.7798   4.0207   8.8605  10.7145  12.1001  14.3455
    15.5434  17.3536  17.7021  17.9056

          k = 1.1844 1.3677-0.0799 (  2887 PWs)   bands (ev):

   -33.6473   1.4244   3.6837   6.9664   7.5876   7.7696   9.4972   9.8691
    11.1842  12.7516  14.4483  16.0666

          k = 0.5922 1.0258 0.0000 (  2887 PWs)   bands (ev):

   -33.6473   1.3634   4.0450   6.2411   7.6729   7.7143   9.1779  10.1381
    12.4356  13.1014  14.5344  15.2256

          k = 1.1844-0.6838-0.3196 (  2890 PWs)   bands (ev):

   -33.6473   2.9689   3.0123   4.6283   5.7639   7.9378  10.3297  11.5652
    12.6443  14.0680  16.5044  16.6816

          k = 0.0000-0.0000 0.2397 (  2851 PWs)   bands (ev):

   -33.7088  -3.3514  -0.8785   2.9349   6.9658  13.2323  19.4329  19.4329
    19.7719  19.9952  19.9954  21.4411

          k = 1.7767 1.0258 0.0000 (  2887 PWs)   bands (ev):

   -33.6781  -1.7226   0.5625   4.7226   7.6246  10.6213  13.3350  14.8235
    15.6126  15.6645  17.2339  18.5051

          k = 1.1844 0.6838 0.0799 (  2896 PWs)   bands (ev):

   -33.6473   2.8019   3.1225   4.8765   5.7440   7.6518   9.7144  12.0659
    13.6645  14.1788  16.0255  16.4982

          k = 1.7767-1.0258-0.2397 (  2876 PWs)   bands (ev):

   -33.6781  -1.7072   0.4935   5.0565   7.1975  10.6232  12.8208  15.5047
    15.7126  16.9577  17.7260  17.9706

          k = 1.1844-1.3677-0.1598 (  2882 PWs)   bands (ev):

   -33.6473   1.4946   3.3975   7.3877   7.8106   8.3058   8.9997  10.0228
    10.1499  12.4032  14.2273  17.4499

          k =-0.0000 0.0000-0.4794 (  2866 PWs)   bands (ev):

   -33.7089  -3.3206  -1.0351   3.6421   5.8684  15.3521  17.3276  19.3826
    19.3827  19.9640  19.9642  22.0472

     the Fermi energy is    12.3253 ev

!    total energy              =     -39.58465805 Ry
     estimated scf accuracy    <          5.3E-09 Ry
     smearing contrib. (-TS)   =      -0.00108990 Ry
     internal energy E=F+TS    =     -39.58356815 Ry

     The total energy is F=E-TS. E is the sum of the following terms:
     one-electron contribution =       9.44699509 Ry
     hartree contribution      =       3.20103878 Ry
     xc contribution           =     -13.32664680 Ry
     ewald contribution        =     -38.90495522 Ry

     convergence has been achieved in   7 iterations

     Forces acting on atoms (cartesian axes, Ry/au):

     atom    1 type  1   force =    -0.00000000   -0.00000000   -0.08190739
     atom    2 type  1   force =     0.00000000    0.00000000    0.08190739
     atom    3 type  1   force =     0.00000000    0.00000000    0.00000000
     atom    4 type  2   force =    -0.00000000    0.00000000    0.00000000
     The non-local contrib.  to forces
     atom    1 type  1   force =    -0.00000000    0.00000000   -0.14042689
     atom    2 type  1   force =     0.00000000   -0.00000000    0.14042689
     atom    3 type  1   force =    -0.00000000    0.00000000    0.00000000
     atom    4 type  2   force =     0.00000000    0.00000000    0.00000000
     The ionic contribution  to forces
     atom    1 type  1   force =     0.00000000   -0.00000000   -0.42939574
     atom    2 type  1   force =     0.00000000    0.00000000    0.42939574
     atom    3 type  1   force =     0.00000000    0.00000000    0.00000000
     atom    4 type  2   force =    -0.00000000    0.00000000    0.00000000
     The local contribution  to forces
     atom    1 type  1   force =    -0.00000000    0.00000000    0.48220038
     atom    2 type  1   force =    -0.00000000   -0.00000000   -0.48220038
     atom    3 type  1   force =    -0.00000000   -0.00000000    0.00000000
     atom    4 type  2   force =     0.00000000    0.00000000   -0.00000000
     The core correction contribution to forces
     atom    1 type  1   force =    -0.00000000   -0.00000000    0.00564704
     atom    2 type  1   force =    -0.00000000    0.00000000   -0.00564704
     atom    3 type  1   force =    -0.00000000   -0.00000000    0.00000000
     atom    4 type  2   force =     0.00000000    0.00000000    0.00000000
     The Hubbard contrib.    to forces
     atom    1 type  1   force =     0.00000000    0.00000000    0.00000000
     atom    2 type  1   force =     0.00000000    0.00000000    0.00000000
     atom    3 type  1   force =     0.00000000    0.00000000    0.00000000
     atom    4 type  2   force =     0.00000000    0.00000000    0.00000000
     The SCF correction term to forces
     atom    1 type  1   force =     0.00000000   -0.00000000    0.00006783
     atom    2 type  1   force =    -0.00000000    0.00000000   -0.00006783
     atom    3 type  1   force =    -0.00000000   -0.00000000    0.00000000
     atom    4 type  2   force =    -0.00000000    0.00000000    0.00000000

     Total force =     0.115835     Total SCF correction =     0.000096


     Computing stress (Cartesian axis) and pressure

          total   stress  (Ry/bohr**3)                   (kbar)     P=      398.76
   0.00234455  -0.00000000   0.00000000          344.90       -0.00        0.00
   0.00000000   0.00234455   0.00000000            0.00      344.90        0.00
   0.00000000   0.00000000   0.00344306            0.00        0.00      506.49

     Energy error            =      8.2E-02 Ry
     Gradient error          =      8.2E-02 Ry/Bohr
     Cell gradient error     =      1.6E+02 kbar

     number of scf cycles    =   3
     number of bfgs steps    =   2

     enthalpy           old  =     -38.5134496843 Ry
     enthalpy           new  =     -38.5959258090 Ry

     CASE: enthalpy          _new < enthalpy          _old

     new trust radius        =       0.3540051756 bohr
ibrav =      5
 celldm(1) =     13.22534473
 celldm(4) =      0.93093955
Input lattice vectors:
     0.20176309    -0.11648797     1.06049112
    -0.00000000     0.23297595     1.06049112
    -0.20176309    -0.11648797     1.06049112
New lattice vectors in INITIAL alat:
     0.20176309    -0.11648797     1.06049112
     0.00000000     0.23297595     1.06049112
    -0.20176309    -0.11648797     1.06049112
New lattice vectors in NEW alat (for information only):
     0.18582310    -0.10728502     0.97670861
     0.00000000     0.21457003     0.97670861
    -0.18582310    -0.10728502     0.97670861
Discrepancy in bohr =     0.000000    0.000000    0.000000
     new conv_thr            =       0.0000000082 Ry

     new unit-cell volume =    270.25643 a.u.^3 (    40.04787 Ang^3 )
     density =      3.78140 g/cm^3

CELL_PARAMETERS (alat= 12.18049612)
   0.201763089  -0.116487974   1.060491123
   0.000000000   0.232975948   1.060491123
  -0.201763089  -0.116487974   1.060491123

ATOMIC_POSITIONS (crystal)
Si            0.2491978806        0.2491978806        0.2491978806
Si            0.7508021194        0.7508021194        0.7508021194
Si            0.5000000000        0.5000000000        0.5000000000
Li           -0.0000000000        0.0000000000       -0.0000000000



     Writing config-only to output data dir ./output/SiLi.save/
     NEW-OLD atomic charge density approx. for the potential
     extrapolated charge   13.85499, renormalised to   15.00000

     total cpu time spent up to now is       21.0 secs

     Self-consistent Calculation

     iteration #  1     ecut=    80.00 Ry     beta= 0.70
     Davidson diagonalization with overlap
     ethr =  1.00E-06,  avg # of iterations = 12.4

     total cpu time spent up to now is       22.3 secs

     total energy              =     -39.51538714 Ry
     estimated scf accuracy    <       0.02898092 Ry

     iteration #  2     ecut=    80.00 Ry     beta= 0.70
     Davidson diagonalization with overlap
     ethr =  1.93E-04,  avg # of iterations =  3.4

     total cpu time spent up to now is       22.8 secs

     total energy              =     -39.50697801 Ry
     estimated scf accuracy    <       0.44269073 Ry

     iteration #  3     ecut=    80.00 Ry     beta= 0.70
     Davidson diagonalization with overlap
     ethr =  1.93E-04,  avg # of iterations =  3.2

     total cpu time spent up to now is       23.3 secs

     total energy              =     -39.54432121 Ry
     estimated scf accuracy    <       0.01388810 Ry

     iteration #  4     ecut=    80.00 Ry     beta= 0.70
     Davidson diagonalization with overlap
     ethr =  9.26E-05,  avg # of iterations =  1.9

     total cpu time spent up to now is       23.7 secs

     total energy              =     -39.54553544 Ry
     estimated scf accuracy    <       0.00071846 Ry

     iteration #  5     ecut=    80.00 Ry     beta= 0.70
     Davidson diagonalization with overlap
     ethr =  4.79E-06,  avg # of iterations =  4.8

     total cpu time spent up to now is       24.2 secs

     total energy              =     -39.54570697 Ry
     estimated scf accuracy    <       0.00000290 Ry

     iteration #  6     ecut=    80.00 Ry     beta= 0.70
     Davidson diagonalization with overlap
     ethr =  1.94E-08,  avg # of iterations =  3.5

     total cpu time spent up to now is       24.6 secs

     total energy              =     -39.54571033 Ry
     estimated scf accuracy    <       0.00000036 Ry

     iteration #  7     ecut=    80.00 Ry     beta= 0.70
     Davidson diagonalization with overlap
     ethr =  2.39E-09,  avg # of iterations =  1.8

     total cpu time spent up to now is       25.0 secs

     total energy              =     -39.54571040 Ry
     estimated scf accuracy    <       0.00000021 Ry

     iteration #  8     ecut=    80.00 Ry     beta= 0.70
     Davidson diagonalization with overlap
     ethr =  1.40E-09,  avg # of iterations =  1.4

     total cpu time spent up to now is       25.3 secs

     End of self-consistent calculation

          k = 0.0000 0.0000 0.0000 (  2865 PWs)   bands (ev):

   -32.4961  -3.9822  -0.8387   3.3060   8.1482  12.5898  21.1000  21.1000
    21.4723  21.4723  24.2618  24.2620

          k =-0.6195-0.3577 0.0786 (  2894 PWs)   bands (ev):

   -32.4538  -2.2246   0.8919   4.8661   9.5111  11.4210  13.2331  14.9730
    16.8043  17.9962  19.2463  19.5685

          k = 1.2391 0.7154-0.1572 (  2896 PWs)   bands (ev):

   -32.4113   2.8946   2.9766   5.6183   6.2857   8.9927  10.3743  13.8675
    15.1097  15.2906  16.2890  17.6874

          k =-0.6195 0.3577 0.1572 (  2889 PWs)   bands (ev):

   -32.4538  -2.2215   0.8648   4.9865   9.2756  11.2165  13.4235  15.4540
    16.7587  18.4617  19.3427  19.5110

          k = 1.2391 1.4308-0.0786 (  2887 PWs)   bands (ev):

   -32.4114   1.2494   4.1842   7.6006   7.9662   8.7124  10.4514  10.9353
    12.2340  14.4779  15.8939  17.4313

          k = 0.6195 1.0731 0.0000 (  2887 PWs)   bands (ev):

   -32.4114   1.2327   4.3087   7.3840   7.9445   8.5199  10.2952  11.1706
    13.1949  14.4341  16.1288  16.6262

          k = 1.2391-0.7154-0.3143 (  2890 PWs)   bands (ev):

   -32.4114   2.9427   2.9772   5.2789   6.4807   9.1932  11.2415  12.5832
    13.8354  15.2219  17.4314  18.1121

          k =-0.0000-0.0000 0.2357 (  2851 PWs)   bands (ev):

   -32.4961  -3.9776  -0.8878   3.5841   7.4087  13.7981  19.9831  21.0869
    21.0869  21.4684  21.4684  23.7827

          k = 1.8586 1.0731 0.0000 (  2887 PWs)   bands (ev):

   -32.4538  -2.2123   0.7919   5.3909   8.3905  11.3096  14.3265  15.6254
    16.7928  17.5323  19.3085  19.7050

          k = 1.2391 0.7154 0.0786 (  2896 PWs)   bands (ev):

   -32.4114   2.9230   2.9715   5.4318   6.3988   9.0945  10.7151  13.2575
    14.3622  15.2550  17.1535  17.8812

          k = 1.8586-1.0731-0.2357 (  2876 PWs)   bands (ev):

   -32.4538  -2.2091   0.7670   5.5684   8.1278  11.2257  14.1258  16.7482
    16.8344  17.7648  18.8620  19.5889

          k = 1.2391-1.4308-0.1572 (  2882 PWs)   bands (ev):

   -32.4114   1.2666   4.0714   7.7441   7.9806   9.2196  10.3496  10.7172
    11.5395  14.3968  15.6718  18.7827

          k = 0.0000 0.0000-0.4715 (  2866 PWs)   bands (ev):

   -32.4961  -3.9729  -0.9349   3.9330   6.7260  15.5179  17.8046  21.0759
    21.0759  21.4606  21.4606  23.7847

     the Fermi energy is    13.4112 ev

!    total energy              =     -39.54571043 Ry
     estimated scf accuracy    <          1.1E-09 Ry
     smearing contrib. (-TS)   =      -0.00081290 Ry
     internal energy E=F+TS    =     -39.54489753 Ry

     The total energy is F=E-TS. E is the sum of the following terms:
     one-electron contribution =      10.52200991 Ry
     hartree contribution      =       3.20200481 Ry
     xc contribution           =     -13.61212809 Ry
     ewald contribution        =     -39.65678416 Ry

     convergence has been achieved in   8 iterations

     Forces acting on atoms (cartesian axes, Ry/au):

     atom    1 type  1   force =     0.00000000    0.00000000    0.06677760
     atom    2 type  1   force =    -0.00000000   -0.00000000   -0.06677760
     atom    3 type  1   force =     0.00000000   -0.00000000   -0.00000000
     atom    4 type  2   force =     0.00000000    0.00000000    0.00000000
     The non-local contrib.  to forces
     atom    1 type  1   force =     0.00000000   -0.00000000   -0.00873142
     atom    2 type  1   force =     0.00000000    0.00000000    0.00873142
     atom    3 type  1   force =    -0.00000000    0.00000000   -0.00000000
     atom    4 type  2   force =     0.00000000    0.00000000    0.00000000
     The ionic contribution  to forces
     atom    1 type  1   force =     0.00000000    0.00000000    1.29812938
     atom    2 type  1   force =     0.00000000   -0.00000000   -1.29812938
     atom    3 type  1   force =    -0.00000000    0.00000000   -0.00000000
     atom    4 type  2   force =    -0.00000000    0.00000000    0.00000000
     The local contribution  to forces
     atom    1 type  1   force =     0.00000000    0.00000000   -1.21773072
     atom    2 type  1   force =    -0.00000000   -0.00000000    1.21773072
     atom    3 type  1   force =    -0.00000000   -0.00000000   -0.00000000
     atom    4 type  2   force =    -0.00000000    0.00000000   -0.00000000
     The core correction contribution to forces
     atom    1 type  1   force =     0.00000000   -0.00000000   -0.00483889
     atom    2 type  1   force =    -0.00000000    0.00000000    0.00483889
     atom    3 type  1   force =     0.00000000   -0.00000000    0.00000000
     atom    4 type  2   force =     0.00000000    0.00000000    0.00000000
     The Hubbard contrib.    to forces
     atom    1 type  1   force =     0.00000000    0.00000000    0.00000000
     atom    2 type  1   force =     0.00000000    0.00000000    0.00000000
     atom    3 type  1   force =     0.00000000    0.00000000    0.00000000
     atom    4 type  2   force =     0.00000000    0.00000000    0.00000000
     The SCF correction term to forces
     atom    1 type  1   force =     0.00000000   -0.00000000   -0.00005074
     atom    2 type  1   force =     0.00000000    0.00000000    0.00005074
     atom    3 type  1   force =     0.00000000   -0.00000000    0.00000000
     atom    4 type  2   force =     0.00000000    0.00000000    0.00000000

     Total force =     0.094438     Total SCF correction =     0.000072


     Computing stress (Cartesian axis) and pressure

          total   stress  (Ry/bohr**3)                   (kbar)     P=      640.21
   0.00350901   0.00000000   0.00000000          516.19        0.00        0.00
   0.00000000   0.00350901   0.00000000            0.00      516.19        0.00
  -0.00000000   0.00000000   0.00603812           -0.00        0.00      888.24

     Energy error            =      3.1E-02 Ry
     Gradient error          =      6.7E-02 Ry/Bohr
     Cell gradient error     =      3.9E+02 kbar

     number of scf cycles    =   4
     number of bfgs steps    =   3

     enthalpy           old  =     -38.5959258090 Ry
     enthalpy           new  =     -38.6271275010 Ry

     CASE: enthalpy          _new < enthalpy          _old

     new trust radius        =       0.0971194471 bohr
ibrav =      5
 celldm(1) =     13.59568091
 celldm(4) =      0.93522018
Input lattice vectors:
     0.20088192    -0.11597923     1.09181642
     0.00000000     0.23195846     1.09181642
    -0.20088192    -0.11597923     1.09181642
New lattice vectors in INITIAL alat:
     0.20088192    -0.11597923     1.09181642
     0.00000000     0.23195846     1.09181642
    -0.20088192    -0.11597923     1.09181642
New lattice vectors in NEW alat (for information only):
     0.17997196    -0.10390686     0.97816842
     0.00000000     0.20781372     0.97816842
    -0.17997196    -0.10390686     0.97816842
Discrepancy in bohr =     0.000000    0.000000    0.000000
     new conv_thr            =       0.0000000067 Ry

     new unit-cell volume =    275.81435 a.u.^3 (    40.87147 Ang^3 )
     density =      3.70520 g/cm^3

CELL_PARAMETERS (alat= 12.18049612)
   0.200881916  -0.115979228   1.091816422
   0.000000000   0.231958456   1.091816422
  -0.200881916  -0.115979228   1.091816422

ATOMIC_POSITIONS (crystal)
Si            0.2510553304        0.2510553304        0.2510553304
Si            0.7489446696        0.7489446696        0.7489446696
Si            0.5000000000        0.5000000000        0.5000000000
Li           -0.0000000000        0.0000000000       -0.0000000000



     Writing config-only to output data dir ./output/SiLi.save/
     NEW-OLD atomic charge density approx. for the potential
     extrapolated charge   15.30214, renormalised to   15.00000

     total cpu time spent up to now is       26.2 secs

     Self-consistent Calculation

     iteration #  1     ecut=    80.00 Ry     beta= 0.70
     Davidson diagonalization with overlap
     ethr =  1.00E-06,  avg # of iterations =  9.9

     total cpu time spent up to now is       27.2 secs

     total energy              =     -39.57905134 Ry
     estimated scf accuracy    <       0.00642859 Ry

     iteration #  2     ecut=    80.00 Ry     beta= 0.70
     Davidson diagonalization with overlap
     ethr =  4.29E-05,  avg # of iterations =  3.5

     total cpu time spent up to now is       27.7 secs

     total energy              =     -39.57542744 Ry
     estimated scf accuracy    <       0.08882383 Ry

     iteration #  3     ecut=    80.00 Ry     beta= 0.70
     Davidson diagonalization with overlap
     ethr =  4.29E-05,  avg # of iterations =  2.8

     total cpu time spent up to now is       28.1 secs

     total energy              =     -39.58431510 Ry
     estimated scf accuracy    <       0.00094606 Ry

     iteration #  4     ecut=    80.00 Ry     beta= 0.70
     Davidson diagonalization with overlap
     ethr =  6.31E-06,  avg # of iterations =  3.3

     total cpu time spent up to now is       28.5 secs

     total energy              =     -39.58445441 Ry
     estimated scf accuracy    <       0.00000446 Ry

     iteration #  5     ecut=    80.00 Ry     beta= 0.70
     Davidson diagonalization with overlap
     ethr =  2.97E-08,  avg # of iterations =  3.8

     total cpu time spent up to now is       29.0 secs

     total energy              =     -39.58445782 Ry
     estimated scf accuracy    <       0.00000012 Ry

     iteration #  6     ecut=    80.00 Ry     beta= 0.70
     Davidson diagonalization with overlap
     ethr =  7.75E-10,  avg # of iterations =  2.6

     total cpu time spent up to now is       29.4 secs

     total energy              =     -39.58445786 Ry
     estimated scf accuracy    <       0.00000003 Ry

     iteration #  7     ecut=    80.00 Ry     beta= 0.70
     Davidson diagonalization with overlap
     ethr =  2.04E-10,  avg # of iterations =  1.1

     total cpu time spent up to now is       29.7 secs

     End of self-consistent calculation

          k = 0.0000 0.0000 0.0000 (  2865 PWs)   bands (ev):

   -32.8636  -3.8546  -1.0443   2.7745   7.4754  11.7452  21.3226  21.5736
    21.5736  21.9285  21.9285  23.0201

          k =-0.6223-0.3593 0.0763 (  2894 PWs)   bands (ev):

   -32.8197  -2.0783   0.7088   4.3687   8.9243  11.6532  12.7027  14.6957
    17.2175  17.7022  19.3163  19.6352

          k = 1.2445 0.7185-0.1527 (  2896 PWs)   bands (ev):

   -32.7756   3.0863   3.1900   5.5447   6.1072   8.6127   9.8940  13.2822
    14.4866  15.6872  16.2306  17.7377

          k =-0.6223 0.3593 0.1527 (  2889 PWs)   bands (ev):

   -32.8197  -2.0748   0.6814   4.4793   8.6784  11.4163  13.1294  14.9406
    17.1629  18.3706  19.0040  19.6030

          k = 1.2445 1.4370-0.0763 (  2887 PWs)   bands (ev):

   -32.7757   1.4350   4.0478   7.5127   8.2264   8.5894  10.3727  10.6882
    11.9032  14.0538  15.3547  16.8028

          k = 0.6223 1.0778 0.0000 (  2887 PWs)   bands (ev):

   -32.7757   1.4162   4.1759   7.1727   8.2023   8.5521  10.2342  11.0048
    12.6713  14.0151  15.5158  16.0053

          k = 1.2445-0.7185-0.3053 (  2890 PWs)   bands (ev):

   -32.7757   3.1515   3.1796   5.1881   6.3087   8.7924  10.7121  12.0718
    13.3913  15.6050  17.5877  18.2005

          k =-0.0000-0.0000 0.2290 (  2851 PWs)   bands (ev):

   -32.8636  -3.8492  -1.0937   3.0249   6.8060  12.8649  18.8781  21.5576
    21.5576  21.9231  21.9232  23.9567

          k = 1.8668 1.0778 0.0000 (  2887 PWs)   bands (ev):

   -32.8197  -2.0643   0.6073   4.8468   7.8708  11.5767  14.2078  14.9181
    17.1129  17.2032  19.3850  19.5092

          k = 1.2445 0.7185 0.0763 (  2896 PWs)   bands (ev):

   -32.7756   3.1201   3.1823   5.3470   6.2259   8.7078  10.2133  12.7153
    13.8712  15.6443  17.1349  17.9466

          k = 1.8668-1.0778-0.2290 (  2876 PWs)   bands (ev):

   -32.8197  -2.0607   0.5821   5.0026   7.6283  11.4781  14.0734  16.0058
    17.1502  17.2220  18.5094  19.6915

          k = 1.2445-1.4370-0.1527 (  2882 PWs)   bands (ev):

   -32.7757   1.4546   3.9322   7.8377   8.2438   8.8477   9.9818  10.6632
    11.3934  14.0183  15.1125  18.2063

          k = 0.0000 0.0000-0.4580 (  2866 PWs)   bands (ev):

   -32.8636  -3.8437  -1.1408   3.3296   6.1955  14.4296  16.8309  21.5447
    21.5447  21.9120  21.9120  23.9815

     the Fermi energy is    12.9032 ev

!    total energy              =     -39.58445786 Ry
     estimated scf accuracy    <          3.3E-09 Ry
     smearing contrib. (-TS)   =      -0.00020352 Ry
     internal energy E=F+TS    =     -39.58425434 Ry

     The total energy is F=E-TS. E is the sum of the following terms:
     one-electron contribution =      10.41417543 Ry
     hartree contribution      =       3.11295373 Ry
     xc contribution           =     -13.53167102 Ry
     ewald contribution        =     -39.57971249 Ry

     convergence has been achieved in   7 iterations

     Forces acting on atoms (cartesian axes, Ry/au):

     atom    1 type  1   force =    -0.00000000   -0.00000000    0.00635682
     atom    2 type  1   force =     0.00000000    0.00000000   -0.00635682
     atom    3 type  1   force =    -0.00000000   -0.00000000   -0.00000000
     atom    4 type  2   force =     0.00000000    0.00000000    0.00000000
     The non-local contrib.  to forces
     atom    1 type  1   force =    -0.00000000   -0.00000000   -0.04780333
     atom    2 type  1   force =     0.00000000   -0.00000000    0.04780333
     atom    3 type  1   force =     0.00000000    0.00000000   -0.00000000
     atom    4 type  2   force =     0.00000000   -0.00000000    0.00000000
     The ionic contribution  to forces
     atom    1 type  1   force =    -0.00000000    0.00000000    0.95295418
     atom    2 type  1   force =     0.00000000   -0.00000000   -0.95295418
     atom    3 type  1   force =     0.00000000    0.00000000   -0.00000000
     atom    4 type  2   force =    -0.00000000    0.00000000    0.00000000
     The local contribution  to forces
     atom    1 type  1   force =    -0.00000000    0.00000000   -0.89705218
     atom    2 type  1   force =     0.00000000   -0.00000000    0.89705218
     atom    3 type  1   force =    -0.00000000   -0.00000000    0.00000000
     atom    4 type  2   force =    -0.00000000    0.00000000    0.00000000
     The core correction contribution to forces
     atom    1 type  1   force =     0.00000000   -0.00000000   -0.00164372
     atom    2 type  1   force =    -0.00000000    0.00000000    0.00164372
     atom    3 type  1   force =    -0.00000000   -0.00000000    0.00000000
     atom    4 type  2   force =     0.00000000    0.00000000    0.00000000
     The Hubbard contrib.    to forces
     atom    1 type  1   force =     0.00000000    0.00000000    0.00000000
     atom    2 type  1   force =     0.00000000    0.00000000    0.00000000
     atom    3 type  1   force =     0.00000000    0.00000000    0.00000000
     atom    4 type  2   force =     0.00000000    0.00000000    0.00000000
     The SCF correction term to forces
     atom    1 type  1   force =     0.00000000    0.00000000   -0.00009813
     atom    2 type  1   force =    -0.00000000   -0.00000000    0.00009813
     atom    3 type  1   force =    -0.00000000   -0.00000000    0.00000000
     atom    4 type  2   force =    -0.00000000    0.00000000    0.00000000

     Total force =     0.008990     Total SCF correction =     0.000139


     Computing stress (Cartesian axis) and pressure

          total   stress  (Ry/bohr**3)                   (kbar)     P=      530.25
   0.00317336   0.00000000   0.00000000          466.82        0.00        0.00
   0.00000000   0.00317336   0.00000000            0.00      466.82        0.00
   0.00000000   0.00000000   0.00446699            0.00        0.00      657.12

     Energy error            =      2.0E-02 Ry
     Gradient error          =      6.4E-03 Ry/Bohr
     Cell gradient error     =      1.6E+02 kbar

     number of scf cycles    =   5
     number of bfgs steps    =   4

     enthalpy           old  =     -38.6271275010 Ry
     enthalpy           new  =     -38.6469839301 Ry

     CASE: enthalpy          _new < enthalpy          _old

     new trust radius        =       0.1431991461 bohr
ibrav =      5
 celldm(1) =     14.14418310
 celldm(4) =      0.94286906
Input lattice vectors:
     0.19626081    -0.11331123     1.13888723
     0.00000000     0.22662246     1.13888723
    -0.19626081    -0.11331123     1.13888723
New lattice vectors in INITIAL alat:
     0.19626081    -0.11331123     1.13888723
     0.00000000     0.22662246     1.13888723
    -0.19626081    -0.11331123     1.13888723
New lattice vectors in NEW alat (for information only):
     0.16901323    -0.09757983     0.98077148
     0.00000000     0.19515966     0.98077148
    -0.16901323    -0.09757983     0.98077148
Discrepancy in bohr =     0.000000    0.000000    0.000000
     new conv_thr            =       0.0000000006 Ry

     new unit-cell volume =    274.62081 a.u.^3 (    40.69461 Ang^3 )
     density =      3.72130 g/cm^3

CELL_PARAMETERS (alat= 12.18049612)
   0.196260810  -0.113311231   1.138887227
   0.000000000   0.226622463   1.138887227
  -0.196260810  -0.113311231   1.138887227

ATOMIC_POSITIONS (crystal)
Si            0.2500285920        0.2500285920        0.2500285920
Si            0.7499714080        0.7499714080        0.7499714080
Si            0.5000000000        0.5000000000        0.5000000000
Li           -0.0000000000        0.0000000000       -0.0000000000



     Writing config-only to output data dir ./output/SiLi.save/
     NEW-OLD atomic charge density approx. for the potential
     extrapolated charge   14.93484, renormalised to   15.00000

     total cpu time spent up to now is       30.6 secs

     Self-consistent Calculation

     iteration #  1     ecut=    80.00 Ry     beta= 0.70
     Davidson diagonalization with overlap
     ethr =  1.00E-06,  avg # of iterations = 11.1

     total cpu time spent up to now is       31.6 secs

     total energy              =     -39.58107531 Ry
     estimated scf accuracy    <       0.00874419 Ry

     iteration #  2     ecut=    80.00 Ry     beta= 0.70
     Davidson diagonalization with overlap
     ethr =  5.83E-05,  avg # of iterations =  3.5

     total cpu time spent up to now is       32.1 secs

     total energy              =     -39.56949366 Ry
     estimated scf accuracy    <       0.17390277 Ry

     iteration #  3     ecut=    80.00 Ry     beta= 0.70
     Davidson diagonalization with overlap
     ethr =  5.83E-05,  avg # of iterations =  2.9

     total cpu time spent up to now is       32.5 secs

     total energy              =     -39.58747336 Ry
     estimated scf accuracy    <       0.00009125 Ry

     iteration #  4     ecut=    80.00 Ry     beta= 0.70
     Davidson diagonalization with overlap
     ethr =  6.08E-07,  avg # of iterations =  6.4

     total cpu time spent up to now is       33.1 secs

     total energy              =     -39.58753508 Ry
     estimated scf accuracy    <       0.00003085 Ry

     iteration #  5     ecut=    80.00 Ry     beta= 0.70
     Davidson diagonalization with overlap
     ethr =  2.06E-07,  avg # of iterations =  1.1

     total cpu time spent up to now is       33.4 secs

     total energy              =     -39.58753610 Ry
     estimated scf accuracy    <       0.00000350 Ry

     iteration #  6     ecut=    80.00 Ry     beta= 0.70
     Davidson diagonalization with overlap
     ethr =  2.33E-08,  avg # of iterations =  1.7

     total cpu time spent up to now is       33.8 secs

     total energy              =     -39.58753684 Ry
     estimated scf accuracy    <       0.00000033 Ry

     iteration #  7     ecut=    80.00 Ry     beta= 0.70
     Davidson diagonalization with overlap
     ethr =  2.21E-09,  avg # of iterations =  1.5

     total cpu time spent up to now is       34.1 secs

     total energy              =     -39.58753686 Ry
     estimated scf accuracy    <       0.00000003 Ry

     iteration #  8     ecut=    80.00 Ry     beta= 0.70
     Davidson diagonalization with overlap
     ethr =  1.77E-10,  avg # of iterations =  2.2

     total cpu time spent up to now is       34.5 secs

     End of self-consistent calculation

          k = 0.0000 0.0000 0.0000 (  2865 PWs)   bands (ev):

   -32.8571  -3.9670  -1.3188   2.4190   6.7949  11.0728  19.8112  21.6086
    22.8412  22.8412  23.0452  23.0452

          k =-0.6369-0.3677 0.0732 (  2894 PWs)   bands (ev):

   -32.8047  -2.1038   0.5245   4.1237   8.4064  11.9213  12.5952  15.0066
    18.0136  18.1913  20.1471  20.2491

          k = 1.2738 0.7354-0.1463 (  2896 PWs)   bands (ev):

   -32.7517   3.3553   3.3624   5.5766   6.2325   8.7770   9.8090  13.0060
    14.1341  16.1639  16.5996  18.6200

          k =-0.6369 0.3677 0.1463 (  2889 PWs)   bands (ev):

   -32.8046  -2.1017   0.5074   4.2015   8.2069  11.6973  13.1739  15.0550
    18.1524  18.5871  18.8760  20.4620

          k = 1.2738 1.4709-0.0732 (  2887 PWs)   bands (ev):

   -32.7520   1.5721   4.0678   7.4798   8.6102   9.0226  10.6021  10.8780
    12.0223  14.2994  15.3609  16.5780

          k = 0.6369 1.1032 0.0000 (  2887 PWs)   bands (ev):

   -32.7518   1.5597   4.1534   7.2015   8.5932   9.0243  10.5910  11.2708
    12.3021  14.3034  15.3489  15.9600

          k = 1.2738-0.7354-0.2927 (  2890 PWs)   bands (ev):

   -32.7519   3.3295   3.4320   5.3122   6.3930   8.8777  10.4700  11.9393
    13.3478  16.5406  18.0512  18.9609

          k =-0.0000-0.0000 0.2195 (  2851 PWs)   bands (ev):

   -32.8571  -3.9647  -1.3457   2.5803   6.3159  11.9819  17.6026  22.8319
    22.8319  23.0387  23.0387  24.0355

          k = 1.9107 1.1032 0.0000 (  2887 PWs)   bands (ev):

   -32.8047  -2.0956   0.4607   4.4503   7.5944  12.1421  13.8278  14.9931
    17.1562  18.1814  19.1942  20.2996

          k = 1.2738 0.7354 0.0732 (  2896 PWs)   bands (ev):

   -32.7518   3.3388   3.3998   5.4352   6.3198   8.8438  10.0534  12.5456
    13.6511  16.5691  17.0859  18.4121

          k = 1.9107-1.1032-0.2195 (  2876 PWs)   bands (ev):

   -32.8045  -2.0935   0.4445   4.5500   7.4149  11.9731  14.3948  15.3738
    16.7063  18.1434  18.6533  20.5236

          k = 1.2738-1.4709-0.1463 (  2882 PWs)   bands (ev):

   -32.7519   1.5849   3.9883   7.8017   8.6250   9.0902  10.1031  10.9264
    11.7915  14.4007  15.0397  18.0469

          k = 0.0000 0.0000-0.4390 (  2866 PWs)   bands (ev):

   -32.8571  -3.9624  -1.3719   2.7646   5.8844  13.2308  15.8485  22.8256
    22.8256  23.0277  23.0277  24.8899

     the Fermi energy is    12.7011 ev

!    total energy              =     -39.58753687 Ry
     estimated scf accuracy    <          4.3E-10 Ry
     smearing contrib. (-TS)   =       0.00063667 Ry
     internal energy E=F+TS    =     -39.58817355 Ry

     The total energy is F=E-TS. E is the sum of the following terms:
     one-electron contribution =      10.38524847 Ry
     hartree contribution      =       3.16760572 Ry
     xc contribution           =     -13.55517073 Ry
     ewald contribution        =     -39.58585701 Ry

     convergence has been achieved in   8 iterations

     Forces acting on atoms (cartesian axes, Ry/au):

     atom    1 type  1   force =    -0.00000000   -0.00000000    0.00443134
     atom    2 type  1   force =     0.00000000    0.00000000   -0.00443134
     atom    3 type  1   force =     0.00000000    0.00000000    0.00000000
     atom    4 type  2   force =    -0.00000000   -0.00000000   -0.00000000
     The non-local contrib.  to forces
     atom    1 type  1   force =     0.00000000   -0.00000000   -0.04066567
     atom    2 type  1   force =    -0.00000000   -0.00000000    0.04066567
     atom    3 type  1   force =     0.00000000    0.00000000    0.00000000
     atom    4 type  2   force =    -0.00000000    0.00000000   -0.00000000
     The ionic contribution  to forces
     atom    1 type  1   force =     0.00000000    0.00000000    1.22548506
     atom    2 type  1   force =     0.00000000    0.00000000   -1.22548506
     atom    3 type  1   force =     0.00000000    0.00000000   -0.00000000
     atom    4 type  2   force =     0.00000000    0.00000000    0.00000000
     The local contribution  to forces
     atom    1 type  1   force =    -0.00000000    0.00000000   -1.17845697
     atom    2 type  1   force =    -0.00000000   -0.00000000    1.17845697
     atom    3 type  1   force =    -0.00000000   -0.00000000    0.00000000
     atom    4 type  2   force =    -0.00000000    0.00000000    0.00000000
     The core correction contribution to forces
     atom    1 type  1   force =    -0.00000000   -0.00000000   -0.00196651
     atom    2 type  1   force =    -0.00000000    0.00000000    0.00196651
     atom    3 type  1   force =    -0.00000000   -0.00000000    0.00000000
     atom    4 type  2   force =     0.00000000    0.00000000    0.00000000
     The Hubbard contrib.    to forces
     atom    1 type  1   force =     0.00000000    0.00000000    0.00000000
     atom    2 type  1   force =     0.00000000    0.00000000    0.00000000
     atom    3 type  1   force =     0.00000000    0.00000000    0.00000000
     atom    4 type  2   force =     0.00000000    0.00000000    0.00000000
     The SCF correction term to forces
     atom    1 type  1   force =     0.00000000   -0.00000000    0.00003543
     atom    2 type  1   force =    -0.00000000    0.00000000   -0.00003543
     atom    3 type  1   force =     0.00000000   -0.00000000   -0.00000000
     atom    4 type  2   force =    -0.00000000   -0.00000000    0.00000000

     Total force =     0.006267     Total SCF correction =     0.000050


     Computing stress (Cartesian axis) and pressure

          total   stress  (Ry/bohr**3)                   (kbar)     P=      516.40
   0.00352564  -0.00000000   0.00000000          518.64       -0.00        0.00
   0.00000000   0.00352564   0.00000000            0.00      518.64        0.00
  -0.00000000   0.00000000   0.00347989           -0.00        0.00      511.91

     Energy error            =      7.1E-03 Ry
     Gradient error          =      4.4E-03 Ry/Bohr
     Cell gradient error     =      1.9E+01 kbar

     number of scf cycles    =   6
     number of bfgs steps    =   5

     enthalpy           old  =     -38.6469839301 Ry
     enthalpy           new  =     -38.6541196923 Ry

     CASE: enthalpy          _new < enthalpy          _old

     new trust radius        =       0.0116776068 bohr
ibrav =      5
 celldm(1) =     14.12414901
 celldm(4) =      0.94230243
Input lattice vectors:
     0.19695231    -0.11371047     1.13705076
    -0.00000000     0.22742094     1.13705076
    -0.19695231    -0.11371047     1.13705076
New lattice vectors in INITIAL alat:
     0.19695231    -0.11371047     1.13705076
     0.00000000     0.22742094     1.13705076
    -0.19695231    -0.11371047     1.13705076
New lattice vectors in NEW alat (for information only):
     0.16984930    -0.09806254     0.98057889
     0.00000000     0.19612508     0.98057889
    -0.16984930    -0.09806254     0.98057889
Discrepancy in bohr =     0.000000    0.000000    0.000000
     new conv_thr            =       0.0000000004 Ry

     new unit-cell volume =    276.11344 a.u.^3 (    40.91579 Ang^3 )
     density =      3.70119 g/cm^3

CELL_PARAMETERS (alat= 12.18049612)
   0.196952307  -0.113710468   1.137050755
   0.000000000   0.227420935   1.137050755
  -0.196952307  -0.113710468   1.137050755

ATOMIC_POSITIONS (crystal)
Si            0.2502802727        0.2502802727        0.2502802727
Si            0.7497197273        0.7497197273        0.7497197273
Si            0.5000000000        0.5000000000        0.5000000000
Li           -0.0000000000        0.0000000000       -0.0000000000



     Writing config-only to output data dir ./output/SiLi.save/
     NEW-OLD atomic charge density approx. for the potential
     extrapolated charge   15.08105, renormalised to   15.00000

     total cpu time spent up to now is       35.3 secs

     Self-consistent Calculation

     iteration #  1     ecut=    80.00 Ry     beta= 0.70
     Davidson diagonalization with overlap
     ethr =  1.00E-06,  avg # of iterations =  4.9

     total cpu time spent up to now is       35.9 secs

     total energy              =     -39.59210256 Ry
     estimated scf accuracy    <       0.00075073 Ry

     iteration #  2     ecut=    80.00 Ry     beta= 0.70
     Davidson diagonalization with overlap
     ethr =  5.00E-06,  avg # of iterations =  3.5

     total cpu time spent up to now is       36.4 secs

     total energy              =     -39.59132325 Ry
     estimated scf accuracy    <       0.01593607 Ry

     iteration #  3     ecut=    80.00 Ry     beta= 0.70
     Davidson diagonalization with overlap
     ethr =  5.00E-06,  avg # of iterations =  3.1

     total cpu time spent up to now is       36.9 secs

     total energy              =     -39.59275262 Ry
     estimated scf accuracy    <       0.00016018 Ry

     iteration #  4     ecut=    80.00 Ry     beta= 0.70
     Davidson diagonalization with overlap
     ethr =  1.07E-06,  avg # of iterations =  1.7

     total cpu time spent up to now is       37.2 secs

     total energy              =     -39.59276063 Ry
     estimated scf accuracy    <       0.00002040 Ry

     iteration #  5     ecut=    80.00 Ry     beta= 0.70
     Davidson diagonalization with overlap
     ethr =  1.36E-07,  avg # of iterations =  1.8

     total cpu time spent up to now is       37.5 secs

     total energy              =     -39.59276294 Ry
     estimated scf accuracy    <       0.00000119 Ry

     iteration #  6     ecut=    80.00 Ry     beta= 0.70
     Davidson diagonalization with overlap
     ethr =  7.91E-09,  avg # of iterations =  2.9

     total cpu time spent up to now is       37.9 secs

     total energy              =     -39.59276324 Ry
     estimated scf accuracy    <       0.00000002 Ry

     iteration #  7     ecut=    80.00 Ry     beta= 0.70
     Davidson diagonalization with overlap
     ethr =  1.26E-10,  avg # of iterations =  3.7

     total cpu time spent up to now is       38.3 secs

     total energy              =     -39.59276325 Ry
     estimated scf accuracy    <       0.00000002 Ry

     iteration #  8     ecut=    80.00 Ry     beta= 0.70
     Davidson diagonalization with overlap
     ethr =  1.10E-10,  avg # of iterations =  1.1

     total cpu time spent up to now is       38.7 secs

     total energy              =     -39.59276325 Ry
     estimated scf accuracy    <          1.7E-09 Ry

     iteration #  9     ecut=    80.00 Ry     beta= 0.70
     Davidson diagonalization with overlap
     ethr =  1.14E-11,  avg # of iterations =  1.8

     total cpu time spent up to now is       39.0 secs

     End of self-consistent calculation

          k = 0.0000 0.0000 0.0000 (  2865 PWs)   bands (ev):

   -32.9339  -3.9597  -1.3219   2.3899   6.7906  11.0411  19.8382  21.6171
    22.6464  22.6464  22.8773  22.8773

          k =-0.6347-0.3664 0.0733 (  2894 PWs)   bands (ev):

   -32.8830  -2.1093   0.5087   4.0817   8.3849  11.8666  12.5073  14.8987
    17.8934  18.0404  20.0454  20.0766

          k = 1.2693 0.7329-0.1466 (  2896 PWs)   bands (ev):

   -32.8316   3.3120   3.3233   5.5355   6.1676   8.6888   9.7330  12.9481
    14.0789  16.1155  16.4571  18.4551

          k =-0.6347 0.3664 0.1466 (  2889 PWs)   bands (ev):

   -32.8829  -2.1070   0.4905   4.1623   8.1806  11.6311  13.0913  14.9522
    17.9994  18.4815  18.8244  20.2982

          k = 1.2693 1.4657-0.0733 (  2887 PWs)   bands (ev):

   -32.8318   1.5429   4.0249   7.4279   8.5453   8.9284  10.5201  10.7994
    11.9343  14.1865  15.2590  16.4937

          k = 0.6347 1.0993 0.0000 (  2887 PWs)   bands (ev):

   -32.8317   1.5296   4.1151   7.1394   8.5275   8.9312  10.5014  11.1804
    12.2613  14.1838  15.2612  15.8532

          k = 1.2693-0.7329-0.2932 (  2890 PWs)   bands (ev):

   -32.8318   3.2960   3.3845   5.2610   6.3323   8.7940  10.4079  11.8737
    13.2723  16.3950  17.9590  18.8102

          k =-0.0000-0.0000 0.2199 (  2851 PWs)   bands (ev):

   -32.9339  -3.9570  -1.3513   2.5590   6.2953  11.9669  17.6102  22.6362
    22.6362  22.8708  22.8708  24.0513

          k = 1.9040 1.0993 0.0000 (  2887 PWs)   bands (ev):

   -32.8830  -2.1004   0.4407   4.4210   7.5524  12.0484  13.7988  14.8864
    17.0668  18.0298  19.1369  20.1295

          k = 1.2693 0.7329 0.0733 (  2896 PWs)   bands (ev):

   -32.8317   3.3040   3.3528   5.3879   6.2581   8.7566   9.9851  12.4793
    13.5912  16.4249  17.0337  18.3186

          k = 1.9040-1.0993-0.2199 (  2876 PWs)   bands (ev):

   -32.8828  -2.0980   0.4236   4.5248   7.3681  11.8870  14.3080  15.3153
    16.6683  17.9898  18.5527  20.3632

          k = 1.2693-1.4657-0.1466 (  2882 PWs)   bands (ev):

   -32.8318   1.5565   3.9415   7.7621   8.5607   8.9987  10.0205  10.8498
    11.6808  14.2725  14.9508  17.9588

          k = 0.0000 0.0000-0.4397 (  2866 PWs)   bands (ev):

   -32.9339  -3.9543  -1.3798   2.7532   5.8492  13.2388  15.8362  22.6289
    22.6289  22.8598  22.8598  24.7324

     the Fermi energy is    12.6252 ev

!    total energy              =     -39.59276325 Ry
     estimated scf accuracy    <          9.5E-11 Ry
     smearing contrib. (-TS)   =       0.00059912 Ry
     internal energy E=F+TS    =     -39.59336238 Ry

     The total energy is F=E-TS. E is the sum of the following terms:
     one-electron contribution =      10.32753465 Ry
     hartree contribution      =       3.15401151 Ry
     xc contribution           =     -13.53740371 Ry
     ewald contribution        =     -39.53750483 Ry

     convergence has been achieved in   9 iterations

     Forces acting on atoms (cartesian axes, Ry/au):

     atom    1 type  1   force =     0.00000000    0.00000000   -0.00034028
     atom    2 type  1   force =    -0.00000000   -0.00000000    0.00034028
     atom    3 type  1   force =     0.00000000    0.00000000    0.00000000
     atom    4 type  2   force =    -0.00000000   -0.00000000    0.00000000
     The non-local contrib.  to forces
     atom    1 type  1   force =     0.00000000   -0.00000000   -0.04532759
     atom    2 type  1   force =    -0.00000000    0.00000000    0.04532759
     atom    3 type  1   force =     0.00000000    0.00000000   -0.00000000
     atom    4 type  2   force =     0.00000000    0.00000000   -0.00000000
     The ionic contribution  to forces
     atom    1 type  1   force =     0.00000000    0.00000000    1.16301300
     atom    2 type  1   force =     0.00000000    0.00000000   -1.16301300
     atom    3 type  1   force =     0.00000000    0.00000000   -0.00000000
     atom    4 type  2   force =     0.00000000   -0.00000000    0.00000000
     The local contribution  to forces
     atom    1 type  1   force =     0.00000000    0.00000000   -1.11640935
     atom    2 type  1   force =    -0.00000000   -0.00000000    1.11640935
     atom    3 type  1   force =    -0.00000000   -0.00000000   -0.00000000
     atom    4 type  2   force =    -0.00000000    0.00000000   -0.00000000
     The core correction contribution to forces
     atom    1 type  1   force =     0.00000000   -0.00000000   -0.00159960
     atom    2 type  1   force =    -0.00000000    0.00000000    0.00159960
     atom    3 type  1   force =    -0.00000000   -0.00000000    0.00000000
     atom    4 type  2   force =     0.00000000    0.00000000    0.00000000
     The Hubbard contrib.    to forces
     atom    1 type  1   force =     0.00000000    0.00000000    0.00000000
     atom    2 type  1   force =     0.00000000    0.00000000    0.00000000
     atom    3 type  1   force =     0.00000000    0.00000000    0.00000000
     atom    4 type  2   force =     0.00000000    0.00000000    0.00000000
     The SCF correction term to forces
     atom    1 type  1   force =    -0.00000000   -0.00000000   -0.00001674
     atom    2 type  1   force =     0.00000000    0.00000000    0.00001674
     atom    3 type  1   force =    -0.00000000    0.00000000   -0.00000000
     atom    4 type  2   force =     0.00000000    0.00000000    0.00000000

     Total force =     0.000481     Total SCF correction =     0.000024


     Computing stress (Cartesian axis) and pressure

          total   stress  (Ry/bohr**3)                   (kbar)     P=      501.60
   0.00340847   0.00000000   0.00000000          501.40        0.00        0.00
   0.00000000   0.00340847   0.00000000            0.00      501.40        0.00
  -0.00000000   0.00000000   0.00341253           -0.00        0.00      502.00

     Energy error            =      1.5E-04 Ry
     Gradient error          =      3.4E-04 Ry/Bohr
     Cell gradient error     =      2.0E+00 kbar

     number of scf cycles    =   7
     number of bfgs steps    =   6

     enthalpy           old  =     -38.6541196923 Ry
     enthalpy           new  =     -38.6542727284 Ry

     CASE: enthalpy          _new < enthalpy          _old

     new trust radius        =       0.0010466403 bohr
ibrav =      5
 celldm(1) =     14.12830082
 celldm(4) =      0.94231885
Input lattice vectors:
     0.19698216    -0.11372770     1.13739147
     0.00000000     0.22745541     1.13739147
    -0.19698216    -0.11372770     1.13739147
New lattice vectors in INITIAL alat:
     0.19698216    -0.11372770     1.13739147
     0.00000000     0.22745541     1.13739147
    -0.19698216    -0.11372770     1.13739147
New lattice vectors in NEW alat (for information only):
     0.16982513    -0.09804858     0.98058447
     0.00000000     0.19609716     0.98058447
    -0.16982513    -0.09804858     0.98058447
Discrepancy in bohr =     0.000000    0.000000    0.000000
     new conv_thr            =            1.0E-10 Ry

     new unit-cell volume =    276.27992 a.u.^3 (    40.94046 Ang^3 )
     density =      3.69896 g/cm^3

CELL_PARAMETERS (alat= 12.18049612)
   0.196982163  -0.113727705   1.137391468
   0.000000000   0.227455409   1.137391468
  -0.196982163  -0.113727705   1.137391468

ATOMIC_POSITIONS (crystal)
Si            0.2502550825        0.2502550825        0.2502550825
Si            0.7497449175        0.7497449175        0.7497449175
Si            0.5000000000        0.5000000000        0.5000000000
Li           -0.0000000000        0.0000000000        0.0000000000



     Writing config-only to output data dir ./output/SiLi.save/
     NEW-OLD atomic charge density approx. for the potential
     extrapolated charge   15.00903, renormalised to   15.00000

     total cpu time spent up to now is       39.9 secs

     Self-consistent Calculation

     iteration #  1     ecut=    80.00 Ry     beta= 0.70
     Davidson diagonalization with overlap
     ethr =  1.00E-06,  avg # of iterations =  1.0

     Threshold (ethr) on eigenvalues was too large:
     Diagonalizing with lowered threshold

     Davidson diagonalization with overlap
     ethr =  5.97E-09,  avg # of iterations =  2.5

     total cpu time spent up to now is       40.6 secs

[...]
     atom    3 type  1   force =    -0.00000000   -0.00000000   -0.00000000
     atom    4 type  2   force =     0.00000000    0.00000000   -0.00000000
     The core correction contribution to forces
     atom    1 type  1   force =    -0.00000000   -0.00000000   -0.00161253
     atom    2 type  1   force =    -0.00000000    0.00000000    0.00161253
     atom    3 type  1   force =    -0.00000000   -0.00000000    0.00000000
     atom    4 type  2   force =     0.00000000    0.00000000    0.00000000
     The Hubbard contrib.    to forces
     atom    1 type  1   force =     0.00000000    0.00000000    0.00000000
     atom    2 type  1   force =     0.00000000    0.00000000    0.00000000
     atom    3 type  1   force =     0.00000000    0.00000000    0.00000000
     atom    4 type  2   force =     0.00000000    0.00000000    0.00000000
     The SCF correction term to forces
     atom    1 type  1   force =    -0.00000000   -0.00000000   -0.00001464
     atom    2 type  1   force =     0.00000000   -0.00000000    0.00001464
     atom    3 type  1   force =     0.00000000    0.00000000   -0.00000000
     atom    4 type  2   force =     0.00000000   -0.00000000    0.00000000

     Total force =     0.000191     Total SCF correction =     0.000021
     SCF correction compared to forces is large: reduce conv_thr to get better values


     Computing stress (Cartesian axis) and pressure

          total   stress  (Ry/bohr**3)                   (kbar)     P=      500.25
   0.00340074   0.00000000  -0.00000000          500.27        0.00       -0.00
  -0.00000000   0.00340074   0.00000000           -0.00      500.27        0.00
   0.00000000   0.00000000   0.00340037            0.00        0.00      500.21

     Energy error            =      1.6E-06 Ry
     Gradient error          =      1.3E-04 Ry/Bohr
     Cell gradient error     =      2.7E-01 kbar
ibrav =      5
 celldm(1) =     14.12830082
 celldm(4) =      0.94231885
Input lattice vectors:
     0.19698216    -0.11372770     1.13739147
     0.00000000     0.22745541     1.13739147
    -0.19698216    -0.11372770     1.13739147
New lattice vectors in INITIAL alat:
     0.19698216    -0.11372770     1.13739147
     0.00000000     0.22745541     1.13739147
    -0.19698216    -0.11372770     1.13739147
New lattice vectors in NEW alat (for information only):
     0.16982513    -0.09804858     0.98058447
     0.00000000     0.19609716     0.98058447
    -0.16982513    -0.09804858     0.98058447
Discrepancy in bohr =     0.000000    0.000000    0.000000

     bfgs converged in   8 scf cycles and   7 bfgs steps
     (criteria: energy <  1.0E-04 Ry, force <  1.0E-03 Ry/Bohr, cell <  1.0E+00 kbar)

     End of BFGS Geometry Optimization

     Final enthalpy           =     -38.6542743251 Ry

     File ./output/SiLi.bfgs deleted, as requested
Begin final coordinates
     new unit-cell volume =    276.27992 a.u.^3 (    40.94046 Ang^3 )
     density =      3.69896 g/cm^3

CELL_PARAMETERS (alat= 12.18049612)
   0.196982163  -0.113727705   1.137391468
   0.000000000   0.227455409   1.137391468
  -0.196982163  -0.113727705   1.137391468

ATOMIC_POSITIONS (crystal)
Si            0.2502550825        0.2502550825        0.2502550825
Si            0.7497449175        0.7497449175        0.7497449175
Si            0.5000000000        0.5000000000        0.5000000000
Li           -0.0000000000        0.0000000000        0.0000000000
End final coordinates



     Writing config-only to output data dir ./output/SiLi.save/

     Final scf calculation at the relaxed structure.
     The G-vectors are recalculated for the final unit cell
     Results may differ from those at the preceding step.

     Parallelization info
     --------------------
     sticks:   dense  smooth     PW     G-vecs:    dense   smooth      PW
     Min         212     212     67                 3338     3338     601
     Max         213     213     68                 3339     3339     602
     Sum        1703    1703    539                26707    26707    4815

     Using Slab Decomposition



     bravais-lattice index     =            5
     lattice parameter (alat)  =      12.1805  a.u.
     unit-cell volume          =     276.2799 (a.u.)^3
     number of atoms/cell      =            4
     number of atomic types    =            2
     number of electrons       =        15.00
     number of Kohn-Sham states=           12
     kinetic-energy cutoff     =      80.0000  Ry
     charge density cutoff     =     320.0000  Ry
     scf convergence threshold =      1.0E-10
     mixing beta               =       0.7000
     number of iterations used =            8  plain     mixing
     press convergence thresh. =      1.0E+00
     Exchange-correlation= PBE
                           (   1   4   3   4   0   0   0)

     celldm(1)=  12.180496  celldm(2)=   0.000000  celldm(3)=   0.000000
     celldm(4)=   0.921711  celldm(5)=   0.000000  celldm(6)=   0.000000

     crystal axes: (cart. coord. in units of alat)
               a(1) = (   0.196982  -0.113728   1.137391 )  
               a(2) = (   0.000000   0.227455   1.137391 )  
               a(3) = (  -0.196982  -0.113728   1.137391 )  

     reciprocal axes: (cart. coord. in units 2 pi/alat)
               b(1) = (  2.538301 -1.465489  0.293068 )  
               b(2) = ( -0.000000  2.930977  0.293068 )  
               b(3) = ( -2.538301 -1.465489  0.293068 )  


     PseudoPot. # 1 for Si read from file:
     ../pseudo/Si_ONCV_PBE_sr.upf
     MD5 check sum: e543d271109d17c80368dfa7c482276d
     Pseudo is Norm-conserving + core correction, Zval =  4.0
     Generated using ONCVPSP code by D. R. Hamann
     Using radial grid of 1510 points,  6 beta functions with: 
                l(1) =   0
                l(2) =   0
                l(3) =   1
                l(4) =   1
                l(5) =   2
                l(6) =   2

     PseudoPot. # 2 for Li read from file:
     ../pseudo/Li_ONCV_PBE_sr.upf
     MD5 check sum: 50ff420e78310ffa21704f3361e624a4
     Pseudo is Norm-conserving, Zval =  3.0
     Generated using ONCVPSP code by D. R. Hamann
     Using radial grid of 1944 points,  4 beta functions with: 
                l(1) =   0
                l(2) =   0
                l(3) =   1
                l(4) =   1

     atomic species   valence    mass     pseudopotential
        Si             4.00    28.08550     Si( 1.00)
        Li             3.00     6.94100     Li( 1.00)

     12 Sym. Ops., with inversion, found



   Cartesian axes

     site n.     atom                  positions (alat units)
         1           Si  tau(   1) = (   0.0000000  -0.0000000   0.8539140  )
         2           Si  tau(   2) = (   0.0000000  -0.0000000   2.5582604  )
         3           Si  tau(   3) = (  -0.0000000  -0.0000000   1.7060872  )
         4           Li  tau(   4) = (  -0.0000000   0.0000000   0.0000000  )

     number of k points=    13  Marzari-Vanderbilt smearing, width (Ry)=  0.0200
                       cart. coord. in units 2pi/alat
        k(    1) = (   0.0000000   0.0000000   0.0000000), wk =   0.0312500
        k(    2) = (  -0.6345752  -0.3663722   0.0732671), wk =   0.1875000
        k(    3) = (   1.2691504   0.7327444  -0.1465341), wk =   0.0937500
        k(    4) = (  -0.6345752   0.3663722   0.1465341), wk =   0.1875000
        k(    5) = (   1.2691504   1.4654887  -0.0732671), wk =   0.3750000
        k(    6) = (   0.6345752   1.0991165   0.0000000), wk =   0.1875000
        k(    7) = (   1.2691504  -0.7327444  -0.2930683), wk =   0.0937500
        k(    8) = (  -0.0000000  -0.0000000   0.2198012), wk =   0.0625000
        k(    9) = (   1.9037257   1.0991165   0.0000000), wk =   0.1875000
        k(   10) = (   1.2691504   0.7327444   0.0732671), wk =   0.1875000
        k(   11) = (   1.9037257  -1.0991165  -0.2198012), wk =   0.1875000
        k(   12) = (   1.2691504  -1.4654887  -0.1465341), wk =   0.1875000
        k(   13) = (   0.0000000   0.0000000  -0.4396024), wk =   0.0312500

     Dense  grid:    26707 G-vectors     FFT dimensions: (  81,  81,  81)

     Estimated max dynamical RAM per process >      19.79 MB

     Estimated total dynamical RAM >     158.29 MB

     Initial potential from superposition of free atoms

     starting charge      14.9936, renormalised to      15.0000
     Starting wfcs are   14 randomized atomic wfcs

     total cpu time spent up to now is       44.4 secs

     Self-consistent Calculation

     iteration #  1     ecut=    80.00 Ry     beta= 0.70
     Davidson diagonalization with overlap
     c_bands:  2 eigenvalues not converged
     c_bands:  1 eigenvalues not converged
     c_bands:  2 eigenvalues not converged
     c_bands:  2 eigenvalues not converged
     c_bands:  1 eigenvalues not converged
     c_bands:  1 eigenvalues not converged
     c_bands:  1 eigenvalues not converged
     c_bands:  2 eigenvalues not converged
     ethr =  1.00E-06,  avg # of iterations = 19.3

     total cpu time spent up to now is       47.3 secs

     total energy              =     -39.49841556 Ry
     estimated scf accuracy    <       0.14853545 Ry

     iteration #  2     ecut=    80.00 Ry     beta= 0.70
     Davidson diagonalization with overlap
     ethr =  9.90E-04,  avg # of iterations =  3.3

     total cpu time spent up to now is       48.1 secs

     total energy              =     -39.40034985 Ry
     estimated scf accuracy    <       1.71938056 Ry

     iteration #  3     ecut=    80.00 Ry     beta= 0.70
     Davidson diagonalization with overlap
     ethr =  9.90E-04,  avg # of iterations =  2.8

     total cpu time spent up to now is       48.9 secs

     total energy              =     -39.59214731 Ry
     estimated scf accuracy    <       0.00296116 Ry

     iteration #  4     ecut=    80.00 Ry     beta= 0.70
     Davidson diagonalization with overlap
     ethr =  1.97E-05,  avg # of iterations =  5.8

     total cpu time spent up to now is       49.9 secs

     total energy              =     -39.59342491 Ry
     estimated scf accuracy    <       0.00235178 Ry

     iteration #  5     ecut=    80.00 Ry     beta= 0.70
     Davidson diagonalization with overlap
     ethr =  1.57E-05,  avg # of iterations =  1.0

     total cpu time spent up to now is       50.5 secs

     total energy              =     -39.59349804 Ry
     estimated scf accuracy    <       0.00028910 Ry

     iteration #  6     ecut=    80.00 Ry     beta= 0.70
     Davidson diagonalization with overlap
     ethr =  1.93E-06,  avg # of iterations =  2.8

     total cpu time spent up to now is       51.2 secs

     total energy              =     -39.59355305 Ry
     estimated scf accuracy    <       0.00002226 Ry

     iteration #  7     ecut=    80.00 Ry     beta= 0.70
     Davidson diagonalization with overlap
     ethr =  1.48E-07,  avg # of iterations =  1.4

     total cpu time spent up to now is       51.8 secs

     total energy              =     -39.59355612 Ry
     estimated scf accuracy    <       0.00000008 Ry

     iteration #  8     ecut=    80.00 Ry     beta= 0.70
     Davidson diagonalization with overlap
     ethr =  5.54E-10,  avg # of iterations =  3.9

     total cpu time spent up to now is       52.6 secs

     total energy              =     -39.59355626 Ry
     estimated scf accuracy    <          1.8E-09 Ry

     iteration #  9     ecut=    80.00 Ry     beta= 0.70
     Davidson diagonalization with overlap
     ethr =  1.20E-11,  avg # of iterations =  2.4

     total cpu time spent up to now is       53.4 secs

     total energy              =     -39.59355626 Ry
     estimated scf accuracy    <          8.0E-09 Ry

     iteration # 10     ecut=    80.00 Ry     beta= 0.70
     Davidson diagonalization with overlap
     ethr =  1.20E-11,  avg # of iterations =  1.8

     total cpu time spent up to now is       54.0 secs

     End of self-consistent calculation

          k = 0.0000 0.0000 0.0000 (  3303 PWs)   bands (ev):

   -32.9404  -3.9651  -1.3273   2.3845   6.7831  11.0327  19.8247  21.6023
    22.6322  22.6322  22.8643  22.8643

          k =-0.6346-0.3664 0.0733 (  3336 PWs)   bands (ev):

   -32.8895  -2.1153   0.5027   4.0761   8.3771  11.8575  12.4983  14.8887
    17.8844  18.0280  20.0334  20.0656

          k = 1.2692 0.7327-0.1465 (  3360 PWs)   bands (ev):

   -32.8383   3.3045   3.3161   5.5283   6.1604   8.6837   9.7247  12.9397
    14.0694  16.1062  16.4451  18.1700

          k =-0.6346 0.3664 0.1465 (  3349 PWs)   bands (ev):

   -32.8895  -2.1130   0.4846   4.1566   8.1732  11.6223  13.0817  14.9422
    17.9872  18.4717  18.8128  20.2864

          k = 1.2692 1.4655-0.0733 (  3334 PWs)   bands (ev):

   -32.8384   1.5359   4.0182   7.4216   8.5367   8.9191  10.5122  10.7923
    11.9246  14.1796  15.2497  16.4833

          k = 0.6346 1.0991 0.0000 (  3331 PWs)   bands (ev):

   -32.8384   1.5227   4.1082   7.1338   8.5190   8.9217  10.4934  11.1726
    12.2523  14.1765  15.2514  15.8426

          k = 1.2692-0.7327-0.2931 (  3344 PWs)   bands (ev):

   -32.8383   3.2888   3.3766   5.2547   6.3245   8.7879  10.3995  11.8668
    13.2635  16.3833  17.9485  18.5715

          k =-0.0000-0.0000 0.2198 (  3327 PWs)   bands (ev):

   -32.9404  -3.9625  -1.3567   2.5534   6.2884  11.9578  17.5976  22.6220
    22.6220  22.8577  22.8578  24.0361

          k = 1.9037 1.0991 0.0000 (  3351 PWs)   bands (ev):

   -32.8895  -2.1064   0.4349   4.4148   7.5458  12.0386  13.7894  14.8765
    17.0576  18.0175  19.1252  20.1183

          k = 1.2692 0.7327 0.0733 (  3346 PWs)   bands (ev):

   -32.8383   3.2968   3.3451   5.3813   6.2506   8.7509   9.9770  12.4716
    13.5821  16.4131  17.0236  18.3089

          k = 1.9037-1.0991-0.2198 (  3344 PWs)   bands (ev):

   -32.8895  -2.1041   0.4179   4.5185   7.3618  11.8775  14.2980  15.3049
    16.6579  17.9777  18.5429  20.3511

          k = 1.2692-1.4655-0.1465 (  3340 PWs)   bands (ev):

   -32.8384   1.5495   3.9350   7.7549   8.5521   8.9896  10.0144  10.8413
    11.6714  14.2654  14.9420  17.9487

          k = 0.0000 0.0000-0.4396 (  3292 PWs)   bands (ev):

   -32.9404  -3.9598  -1.3851   2.7472   5.8429  13.2288  15.8245  22.6147
    22.6147  22.8468  22.8468  24.7211

     the Fermi energy is    12.6169 ev

!    total energy              =     -39.59355626 Ry
     estimated scf accuracy    <          9.4E-11 Ry
     smearing contrib. (-TS)   =       0.00059226 Ry
     internal energy E=F+TS    =     -39.59414852 Ry

     The total energy is F=E-TS. E is the sum of the following terms:
     one-electron contribution =      10.31255472 Ry
     hartree contribution      =       3.15681436 Ry
     xc contribution           =     -13.53633669 Ry
     ewald contribution        =     -39.52718090 Ry

     convergence has been achieved in  10 iterations

     Forces acting on atoms (cartesian axes, Ry/au):

     atom    1 type  1   force =    -0.00000000   -0.00000000   -0.00013946
     atom    2 type  1   force =    -0.00000000    0.00000000    0.00013946
     atom    3 type  1   force =     0.00000000    0.00000000    0.00000000
     atom    4 type  2   force =    -0.00000000    0.00000000   -0.00000000
     The non-local contrib.  to forces
     atom    1 type  1   force =    -0.00000000    0.00000000   -0.04509324
     atom    2 type  1   force =     0.00000000    0.00000000    0.04509324
     atom    3 type  1   force =    -0.00000000    0.00000000    0.00000000
     atom    4 type  2   force =     0.00000000    0.00000000   -0.00000000
     The ionic contribution  to forces
     atom    1 type  1   force =     0.00000000    0.00000000    1.16797944
     atom    2 type  1   force =     0.00000000   -0.00000000   -1.16797944
     atom    3 type  1   force =    -0.00000000    0.00000000   -0.00000000
     atom    4 type  2   force =     0.00000000   -0.00000000    0.00000000
     The local contribution  to forces
     atom    1 type  1   force =     0.00000000    0.00000000   -1.12142875
     atom    2 type  1   force =    -0.00000000   -0.00000000    1.12142875
     atom    3 type  1   force =    -0.00000000   -0.00000000    0.00000000
     atom    4 type  2   force =     0.00000000    0.00000000   -0.00000000
     The core correction contribution to forces
     atom    1 type  1   force =    -0.00000000   -0.00000000   -0.00161307
     atom    2 type  1   force =    -0.00000000    0.00000000    0.00161307
     atom    3 type  1   force =     0.00000000   -0.00000000    0.00000000
     atom    4 type  2   force =     0.00000000    0.00000000    0.00000000
     The Hubbard contrib.    to forces
     atom    1 type  1   force =     0.00000000    0.00000000    0.00000000
     atom    2 type  1   force =     0.00000000    0.00000000    0.00000000
     atom    3 type  1   force =     0.00000000    0.00000000    0.00000000
     atom    4 type  2   force =     0.00000000    0.00000000    0.00000000
     The SCF correction term to forces
     atom    1 type  1   force =     0.00000000   -0.00000000    0.00001617
     atom    2 type  1   force =    -0.00000000    0.00000000   -0.00001617
     atom    3 type  1   force =     0.00000000    0.00000000   -0.00000000
     atom    4 type  2   force =     0.00000000    0.00000000    0.00000000

     Total force =     0.000197     Total SCF correction =     0.000023
     SCF correction compared to forces is large: reduce conv_thr to get better values


     Computing stress (Cartesian axis) and pressure

          total   stress  (Ry/bohr**3)                   (kbar)     P=      501.43
   0.00340280  -0.00000000  -0.00000000          500.57       -0.00       -0.00
  -0.00000000   0.00340280   0.00000000           -0.00      500.57        0.00
  -0.00000000   0.00000000   0.00342034           -0.00        0.00      503.15


     Writing all to output data dir ./output/SiLi.save/

     init_run     :      1.42s CPU      1.72s WALL (       2 calls)
     electrons    :     39.33s CPU     45.21s WALL (       9 calls)
     update_pot   :      1.82s CPU      1.87s WALL (       7 calls)
     forces       :      1.37s CPU      1.39s WALL (       9 calls)
     stress       :      3.81s CPU      4.12s WALL (       9 calls)

     Called by init_run:
     wfcinit      :      0.43s CPU      0.55s WALL (       2 calls)
     potinit      :      0.29s CPU      0.40s WALL (       2 calls)
     hinit0       :      0.67s CPU      0.72s WALL (       2 calls)

     Called by electrons:
     c_bands      :     32.31s CPU     36.41s WALL (      80 calls)
     sum_band     :      4.82s CPU      5.47s WALL (      80 calls)
     v_of_rho     :      2.28s CPU      3.19s WALL (      88 calls)
     mix_rho      :      0.10s CPU      0.30s WALL (      80 calls)

     Called by c_bands:
     init_us_2    :      0.24s CPU      0.29s WALL (    2340 calls)
     init_us_2:cp :      0.24s CPU      0.28s WALL (    2340 calls)
     cegterg      :     31.53s CPU     34.56s WALL (    1040 calls)

     Called by *egterg:
     cdiaghg      :      0.77s CPU      0.83s WALL (    4718 calls)
     h_psi        :     30.31s CPU     33.31s WALL (    4848 calls)
     g_psi        :      0.04s CPU      0.04s WALL (    3782 calls)

     Called by h_psi:
     h_psi:calbec :      0.57s CPU      0.63s WALL (    4848 calls)
     vloc_psi     :     29.32s CPU     32.21s WALL (    4848 calls)
     add_vuspsi   :      0.39s CPU      0.43s WALL (    4848 calls)

     General routines
     calbec       :      0.67s CPU      0.74s WALL (    5433 calls)
     fft          :      1.43s CPU      2.63s WALL (    1104 calls)
     ffts         :      0.07s CPU      0.11s WALL (      80 calls)
     fftw         :     29.78s CPU     32.73s WALL (   90862 calls)

     Parallel routines

     PWSCF        :     47.97s CPU     54.78s WALL


   This run was terminated on:  11:41:15  29Dec2024            

=------------------------------------------------------------------------------=
   JOB DONE.
=------------------------------------------------------------------------------=
