
     Program PWSCF v.7.2 starts on 29Dec2024 at 17:53:42 

     This program is part of the open-source Quantum ESPRESSO suite
     for quantum simulation of materials; please cite
         "P. Giannozzi et al., J. Phys.:Condens. Matter 21 395502 (2009);
         "P. Giannozzi et al., J. Phys.:Condens. Matter 29 465901 (2017);
         "P. Giannozzi et al., J. Chem. Phys. 152 154105 (2020);
          URL http://www.quantum-espresso.org", 
     in publications or presentations arising from this work. More details at
     http://www.quantum-espresso.org/quote

     Parallel version (MPI & OpenMP), running on       8 processor cores
     Number of MPI processes:                 8
     Threads/MPI process:                     1

     MPI processes distributed on     1 nodes
     481351 MiB available memory on the printing compute node when the environment starts

     Waiting for input...
     Reading input from standard input

     Current dimensions of program PWSCF are:
     Max number of different atomic species (ntypx) = 10
     Max number of k-points (npk) =  40000
     Max angular momentum in pseudopotentials (lmaxx) =  4

     R & G space division:  proc/nbgrp/npool/nimage =       8
     Subspace diagonalization in iterative solution of the eigenvalue problem:
     a serial algorithm will be used


     Parallelization info
     --------------------
     sticks:   dense  smooth     PW     G-vecs:    dense   smooth      PW
     Min          79      79     23                 8769     8769    1375
     Max          80      80     24                 8784     8784    1392
     Sum         637     637    187                70223    70223   11077

     Using Slab Decomposition



     bravais-lattice index     =            4
     lattice parameter (alat)  =       5.3449  a.u.
     unit-cell volume          =     726.3851 (a.u.)^3
     number of atoms/cell      =            8
     number of atomic types    =            2
     number of electrons       =        30.00
     number of Kohn-Sham states=           19
     kinetic-energy cutoff     =      80.0000  Ry
     charge density cutoff     =     320.0000  Ry
     scf convergence threshold =      1.0E-08
     mixing beta               =       0.7000
     number of iterations used =            8  plain     mixing
     energy convergence thresh.=      1.0E-04
     force convergence thresh. =      1.0E-03
     press convergence thresh. =      1.0E+00
     Exchange-correlation= PBE
                           (   1   4   3   4   0   0   0)
     nstep                     =           50


     celldm(1)=   5.344879  celldm(2)=   0.000000  celldm(3)=   5.493164
     celldm(4)=   0.000000  celldm(5)=   0.000000  celldm(6)=   0.000000

     crystal axes: (cart. coord. in units of alat)
               a(1) = (   1.000000   0.000000   0.000000 )  
               a(2) = (  -0.500000   0.866025   0.000000 )  
               a(3) = (   0.000000   0.000000   5.493164 )  

     reciprocal axes: (cart. coord. in units 2 pi/alat)
               b(1) = (  1.000000  0.577350 -0.000000 )  
               b(2) = (  0.000000  1.154701  0.000000 )  
               b(3) = (  0.000000 -0.000000  0.182044 )  


     PseudoPot. # 1 for Si read from file:
     ../pseudo/Si_ONCV_PBE_sr.upf
     MD5 check sum: e543d271109d17c80368dfa7c482276d
     Pseudo is Norm-conserving + core correction, Zval =  4.0
     Generated using ONCVPSP code by D. R. Hamann
     Using radial grid of 1510 points,  6 beta functions with: 
                l(1) =   0
                l(2) =   0
                l(3) =   1
                l(4) =   1
                l(5) =   2
                l(6) =   2

     PseudoPot. # 2 for Li read from file:
     ../pseudo/Li_ONCV_PBE_sr.upf
     MD5 check sum: 50ff420e78310ffa21704f3361e624a4
     Pseudo is Norm-conserving, Zval =  3.0
     Generated using ONCVPSP code by D. R. Hamann
     Using radial grid of 1944 points,  4 beta functions with: 
                l(1) =   0
                l(2) =   0
                l(3) =   1
                l(4) =   1

     atomic species   valence    mass     pseudopotential
        Si             4.00    28.08550     Si( 1.00)
        Li             3.00     6.94100     Li( 1.00)

      6 Sym. Ops. (no inversion) found



   Cartesian axes

     site n.     atom                  positions (alat units)
         1           Si  tau(   1) = (   0.0000000   0.0000000   1.4443836  )
         2           Si  tau(   2) = (   0.0000000   0.0000000   4.4542256  )
         3           Si  tau(   3) = (  -0.0000000   0.5773503   3.6268123  )
         4           Si  tau(   4) = (  -0.0000000   0.5773503   5.2809194  )
         5           Si  tau(   5) = (   0.5000000   0.2886751   0.6148114  )
         6           Si  tau(   6) = (   0.5000000   0.2886751   2.5359852  )
         7           Li  tau(   7) = (   0.0000000   0.0000000   2.1524799  )
         8           Li  tau(   8) = (  -0.0000000   0.5773503   2.9182985  )

     number of k points=    28  Marzari-Vanderbilt smearing, width (Ry)=  0.0200
                       cart. coord. in units 2pi/alat
        k(    1) = (   0.0000000   0.0000000   0.0000000), wk =   0.0100000
        k(    2) = (   0.0000000   0.0000000  -0.0910222), wk =   0.0100000
        k(    3) = (   0.0000000   0.1154701   0.0000000), wk =   0.0600000
        k(    4) = (   0.0000000   0.1154701  -0.0910222), wk =   0.0600000
        k(    5) = (   0.0000000   0.2309401   0.0000000), wk =   0.0600000
        k(    6) = (   0.0000000   0.2309401  -0.0910222), wk =   0.0600000
        k(    7) = (   0.0000000   0.3464102   0.0000000), wk =   0.0600000
        k(    8) = (   0.0000000   0.3464102  -0.0910222), wk =   0.0600000
        k(    9) = (   0.0000000   0.4618802   0.0000000), wk =   0.0600000
        k(   10) = (   0.0000000   0.4618802  -0.0910222), wk =   0.0600000
        k(   11) = (   0.0000000  -0.5773503   0.0000000), wk =   0.0300000
        k(   12) = (   0.0000000  -0.5773503  -0.0910222), wk =   0.0300000
        k(   13) = (   0.1000000   0.1732051   0.0000000), wk =   0.0600000
        k(   14) = (   0.1000000   0.1732051  -0.0910222), wk =   0.0600000
        k(   15) = (   0.1000000   0.2886751   0.0000000), wk =   0.1200000
        k(   16) = (   0.1000000   0.2886751  -0.0910222), wk =   0.1200000
        k(   17) = (   0.1000000   0.4041452   0.0000000), wk =   0.1200000
        k(   18) = (   0.1000000   0.4041452  -0.0910222), wk =   0.1200000
        k(   19) = (   0.1000000   0.5196152   0.0000000), wk =   0.1200000
        k(   20) = (   0.1000000   0.5196152  -0.0910222), wk =   0.1200000
        k(   21) = (   0.2000000   0.3464102   0.0000000), wk =   0.0600000
        k(   22) = (   0.2000000   0.3464102  -0.0910222), wk =   0.0600000
        k(   23) = (   0.2000000   0.4618802   0.0000000), wk =   0.1200000
        k(   24) = (   0.2000000   0.4618802  -0.0910222), wk =   0.1200000
        k(   25) = (   0.2000000   0.5773503   0.0000000), wk =   0.0600000
        k(   26) = (   0.2000000   0.5773503  -0.0910222), wk =   0.0600000
        k(   27) = (   0.3000000   0.5196152   0.0000000), wk =   0.0600000
        k(   28) = (   0.3000000   0.5196152  -0.0910222), wk =   0.0600000

     Dense  grid:    70223 G-vectors     FFT dimensions: (  32,  32, 180)

     Estimated max dynamical RAM per process >      29.70 MB

     Estimated total dynamical RAM >     237.60 MB

     Initial potential from superposition of free atoms

     starting charge      29.9872, renormalised to      30.0000
     Starting wfcs are   28 randomized atomic wfcs

     total cpu time spent up to now is        3.1 secs

     Self-consistent Calculation

     iteration #  1     ecut=    80.00 Ry     beta= 0.70
     Davidson diagonalization with overlap
     ethr =  1.00E-02,  avg # of iterations =  4.5

     total cpu time spent up to now is        5.2 secs

     total energy              =     -66.90758237 Ry
     estimated scf accuracy    <      14.07960716 Ry

     iteration #  2     ecut=    80.00 Ry     beta= 0.70
     Davidson diagonalization with overlap
     c_bands:  1 eigenvalues not converged
     ethr =  1.00E-02,  avg # of iterations = 16.1

     total cpu time spent up to now is        9.3 secs

     total energy              =     -51.43382772 Ry
     estimated scf accuracy    <     763.53246921 Ry

     iteration #  3     ecut=    80.00 Ry     beta= 0.70
     Davidson diagonalization with overlap
     ethr =  1.00E-02,  avg # of iterations =  8.2

     total cpu time spent up to now is       12.1 secs

     total energy              =     -76.12327798 Ry
     estimated scf accuracy    <      71.30421059 Ry

     iteration #  4     ecut=    80.00 Ry     beta= 0.70
     Davidson diagonalization with overlap
     ethr =  1.00E-02,  avg # of iterations =  5.4

     total cpu time spent up to now is       13.7 secs

     total energy              =     -78.49601530 Ry
     estimated scf accuracy    <      21.97829451 Ry

     iteration #  5     ecut=    80.00 Ry     beta= 0.70
     Davidson diagonalization with overlap
     ethr =  1.00E-02,  avg # of iterations =  3.2

     total cpu time spent up to now is       14.8 secs

     total energy              =     -78.58521474 Ry
     estimated scf accuracy    <      13.46842058 Ry

     iteration #  6     ecut=    80.00 Ry     beta= 0.70
     Davidson diagonalization with overlap
     ethr =  1.00E-02,  avg # of iterations =  1.7

     total cpu time spent up to now is       15.8 secs

     total energy              =     -78.82397701 Ry
     estimated scf accuracy    <       1.82389260 Ry

     iteration #  7     ecut=    80.00 Ry     beta= 0.70
     Davidson diagonalization with overlap
     ethr =  6.08E-03,  avg # of iterations =  1.6

     total cpu time spent up to now is       16.7 secs

     total energy              =     -78.86599654 Ry
     estimated scf accuracy    <       0.37538189 Ry

     iteration #  8     ecut=    80.00 Ry     beta= 0.70
     Davidson diagonalization with overlap
     ethr =  1.25E-03,  avg # of iterations =  4.0

     total cpu time spent up to now is       17.9 secs

     total energy              =     -78.90255825 Ry
     estimated scf accuracy    <       0.04145624 Ry

     iteration #  9     ecut=    80.00 Ry     beta= 0.70
     Davidson diagonalization with overlap
     ethr =  1.38E-04,  avg # of iterations =  7.7

     total cpu time spent up to now is       19.4 secs

     total energy              =     -78.90576705 Ry
     estimated scf accuracy    <       0.03401490 Ry

     iteration # 10     ecut=    80.00 Ry     beta= 0.70
     Davidson diagonalization with overlap
     ethr =  1.13E-04,  avg # of iterations =  2.3

     total cpu time spent up to now is       20.4 secs

     total energy              =     -78.90743537 Ry
     estimated scf accuracy    <       0.00113142 Ry

     iteration # 11     ecut=    80.00 Ry     beta= 0.70
     Davidson diagonalization with overlap
     c_bands:  1 eigenvalues not converged
     ethr =  3.77E-06,  avg # of iterations =  8.3

     total cpu time spent up to now is       22.0 secs

     total energy              =     -78.90768076 Ry
     estimated scf accuracy    <       0.00368221 Ry

     iteration # 12     ecut=    80.00 Ry     beta= 0.70
     Davidson diagonalization with overlap
     ethr =  3.77E-06,  avg # of iterations =  1.6

     total cpu time spent up to now is       22.9 secs

     total energy              =     -78.90770887 Ry
     estimated scf accuracy    <       0.00045459 Ry

     iteration # 13     ecut=    80.00 Ry     beta= 0.70
     Davidson diagonalization with overlap
     ethr =  1.52E-06,  avg # of iterations =  2.8

     total cpu time spent up to now is       23.9 secs

     total energy              =     -78.90773759 Ry
     estimated scf accuracy    <       0.00003341 Ry

     iteration # 14     ecut=    80.00 Ry     beta= 0.70
     Davidson diagonalization with overlap
     ethr =  1.11E-07,  avg # of iterations =  3.7

     total cpu time spent up to now is       25.0 secs

     total energy              =     -78.90774220 Ry
     estimated scf accuracy    <       0.00001517 Ry

     iteration # 15     ecut=    80.00 Ry     beta= 0.70
     Davidson diagonalization with overlap
     ethr =  5.06E-08,  avg # of iterations =  1.5

     total cpu time spent up to now is       26.0 secs

     total energy              =     -78.90774300 Ry
     estimated scf accuracy    <       0.00000716 Ry

     iteration # 16     ecut=    80.00 Ry     beta= 0.70
     Davidson diagonalization with overlap
     ethr =  2.39E-08,  avg # of iterations =  1.2

     total cpu time spent up to now is       26.9 secs

     total energy              =     -78.90774328 Ry
     estimated scf accuracy    <       0.00000015 Ry

     iteration # 17     ecut=    80.00 Ry     beta= 0.70
     Davidson diagonalization with overlap
     ethr =  4.92E-10,  avg # of iterations =  6.2

     total cpu time spent up to now is       28.3 secs

     total energy              =     -78.90774336 Ry
     estimated scf accuracy    <       0.00000046 Ry

     iteration # 18     ecut=    80.00 Ry     beta= 0.70
     Davidson diagonalization with overlap
     ethr =  4.92E-10,  avg # of iterations =  1.8

     total cpu time spent up to now is       29.3 secs

     total energy              =     -78.90774338 Ry
     estimated scf accuracy    <       0.00000002 Ry

     iteration # 19     ecut=    80.00 Ry     beta= 0.70
     Davidson diagonalization with overlap
     ethr =  7.73E-11,  avg # of iterations =  3.1

     total cpu time spent up to now is       30.5 secs

     total energy              =     -78.90774339 Ry
     estimated scf accuracy    <       0.00000001 Ry

     iteration # 20     ecut=    80.00 Ry     beta= 0.70
     Davidson diagonalization with overlap
     ethr =  3.49E-11,  avg # of iterations =  2.5

     total cpu time spent up to now is       31.5 secs

     total energy              =     -78.90774339 Ry
     estimated scf accuracy    <       0.00000002 Ry

     iteration # 21     ecut=    80.00 Ry     beta= 0.70
     Davidson diagonalization with overlap
     ethr =  3.49E-11,  avg # of iterations =  1.0

     total cpu time spent up to now is       32.4 secs

     End of self-consistent calculation

          k = 0.0000 0.0000 0.0000 (  8861 PWs)   bands (ev):

   -37.2092 -37.1456  -4.1246  -3.4789  -2.5955  -1.9961  -1.1387   0.5669
     3.1944   5.5614   6.6236   9.9500  11.0446  15.4980  15.7954  15.7955
    16.5734  16.6362  16.6366

          k = 0.0000 0.0000-0.0910 (  8784 PWs)   bands (ev):

   -37.2092 -37.1456  -4.1231  -3.4906  -2.4933  -2.1637  -1.0041   0.4537
     3.4727   4.8587   8.1409   8.1725  12.4779  13.9666  15.7955  15.7955
    16.6244  16.6244  16.9439

          k = 0.0000 0.1155 0.0000 (  8797 PWs)   bands (ev):

   -37.2037 -37.1430  -3.8839  -3.2393  -2.3739  -1.7945  -0.9046   0.8036
     3.4001   5.7789   6.7483  10.0829  11.1886  13.6240  14.3127  14.4348
    14.7484  15.3882  15.6070

          k = 0.0000 0.1155-0.0910 (  8806 PWs)   bands (ev):

   -37.2037 -37.1430  -3.8822  -3.2525  -2.2560  -1.9768  -0.7674   0.6847
     3.6967   5.0301   8.2500   8.3735  12.6018  13.3434  14.2406  14.4275
    14.4355  14.9502  15.5592

          k = 0.0000 0.2309 0.0000 (  8823 PWs)   bands (ev):

   -37.1888 -37.1365  -3.1636  -2.5227  -1.7247  -1.1773  -0.2056   1.5106
     4.0035   6.4188   7.0699  10.1883  10.7232  10.8544  11.3040  11.9796
    12.4290  12.9951  13.3749

          k = 0.0000 0.2309-0.0910 (  8814 PWs)   bands (ev):

   -37.1888 -37.1365  -3.1614  -2.5409  -1.5463  -1.4165  -0.0596   1.3729
     4.3637   5.5102   8.4972   8.9307  10.7007  10.8375  11.4175  12.1201
    12.9327  12.9958  13.6690

          k = 0.0000 0.3464 0.0000 (  8811 PWs)   bands (ev):

   -37.1696 -37.1293  -1.9706  -1.3361  -0.7011  -0.1074   0.9466   2.6755
     4.8997   6.8633   7.4332   7.5140   8.0293   8.7237   9.1165  10.0446
    11.1917  11.9380  12.0211

          k = 0.0000 0.3464-0.0910 (  8796 PWs)   bands (ev):

   -37.1696 -37.1293  -1.9671  -1.3678  -0.4873  -0.3724   1.1094   2.4994
     5.4290   5.9916   7.4258   7.7537   8.1930   8.8145   9.4881  10.0833
    10.5277  11.7027  11.9387

          k = 0.0000 0.4619 0.0000 (  8769 PWs)   bands (ev):

   -37.1528 -37.1248  -0.3211   0.3006   0.6078   1.4313   2.4981   4.1689
     4.4037   4.8010   5.1107   6.0020   6.8620   7.1953   8.6214   9.0943
     9.3071  11.2404  11.2982

          k = 0.0000 0.4619-0.0910 (  8754 PWs)   bands (ev):

   -37.1528 -37.1248  -0.3141   0.2245   0.7847   1.2406   2.6916   3.8728
     4.4995   4.7546   5.2941   5.9130   7.0775   7.3905   7.9339   8.7213
    10.3021  11.2989  11.4325

          k = 0.0000-0.5774 0.0000 (  8762 PWs)   bands (ev):

   -37.1456 -37.1238   1.5623   1.5920   1.8603   2.3238   2.6188   3.1330
     3.5151   3.8017   4.6564   4.9251   6.2374   6.5729   8.0242   8.6838
    10.1278  11.0516  11.0842

          k = 0.0000-0.5774-0.0910 (  8764 PWs)   bands (ev):

   -37.1456 -37.1238   1.5400   1.6492   1.7995   2.3271   2.7104   3.1460
     3.3260   3.8581   4.6860   5.0829   6.2059   6.2561   8.5748   8.8670
     9.3738  10.6690  11.0849

          k = 0.1000 0.1732 0.0000 (  8819 PWs)   bands (ev):

   -37.1934 -37.1385  -3.4033  -2.7612  -1.9382  -1.3851  -0.4381   1.2755
     3.8057   6.2091   6.9810  10.3224  11.1732  12.2593  12.4464  12.6830
    12.7545  13.1472  13.3966

          k = 0.1000 0.1732-0.0910 (  8794 PWs)   bands (ev):

   -37.1934 -37.1385  -3.4013  -2.7775  -1.7824  -1.6030  -0.2951   1.1444
     4.1425   5.3596   8.4556   8.7542  11.7640  12.4617  12.5330  12.6602
    12.8662  13.3092  13.4595

          k = 0.1000 0.2887 0.0000 (  8788 PWs)   bands (ev):

   -37.1764 -37.1316  -2.4465  -1.8093  -1.1006  -0.5400   0.4885   2.2122
     4.5807   7.0141   7.3199   9.1178   9.3958   9.7619  10.5726  10.8879
    11.1951  11.4465  11.9583

          k = 0.1000 0.2887-0.0910 (  8802 PWs)   bands (ev):

   -37.1764 -37.1316  -2.4436  -1.8346  -0.8564  -0.8401   0.6440   2.0538
     5.0200   5.9291   8.5373   9.1487   9.2167   9.7734  10.1020  10.6319
    11.2200  11.4068  11.9985

          k = 0.1000 0.4041 0.0000 (  8769 PWs)   bands (ev):

   -37.1584 -37.1259  -1.0236  -0.3948   0.0733   0.7758   1.8533   3.5893
     5.2964   6.1049   6.4655   6.7057   7.6994   8.3089   8.4320   9.1110
    10.2072  10.3195  10.7023

          k = 0.1000 0.4041-0.0910 (  8768 PWs)   bands (ev):

   -37.1584 -37.1259  -1.0184  -0.4451   0.2556   0.5569   2.0314   3.3709
     5.7046   6.0112   6.3262   6.8176   7.4713   7.7492   8.8429   9.6473
     9.9911  10.5392  10.7361

          k = 0.1000 0.5196 0.0000 (  8766 PWs)   bands (ev):

   -37.1459 -37.1235   0.8320   1.4004   1.4687   2.4750   3.1707   3.5940
     3.8665   4.2333   4.9981   5.4707   6.1036   7.4617   7.8389   9.0392
     9.4761  10.0027  10.2275

          k = 0.1000 0.5196-0.0910 (  8766 PWs)   bands (ev):

   -37.1459 -37.1235   0.8447   1.2566   1.6700   2.3342   3.1910   3.7012
     3.9191   4.2060   4.8786   5.3561   6.3017   7.3771   8.1222   8.5958
     9.5543  10.0603  10.2104

          k = 0.2000 0.3464 0.0000 (  8772 PWs)   bands (ev):

   -37.1605 -37.1263  -1.2590  -0.6283  -0.1097   0.5578   1.6321   3.3667
     5.4474   7.3971   7.5455   7.8960   8.0916   8.3834   8.5940   8.8784
     9.4358   9.6959  10.0881

          k = 0.2000 0.3464-0.0910 (  8782 PWs)   bands (ev):

   -37.1605 -37.1263  -1.2543  -0.6725   0.0795   0.3269   1.8051   3.1676
     6.0580   6.4491   7.6226   7.8902   8.0791   8.5311   8.9318   9.0110
     9.3858   9.5694  10.3405

          k = 0.2000 0.4619 0.0000 (  8755 PWs)   bands (ev):

   -37.1464 -37.1231   0.3821   1.0007   1.1862   2.1124   3.1732   4.8223
     5.0618   5.4401   5.7468   6.5696   6.7755   7.4055   7.7078   8.0513
     8.1339   9.1006   9.2144

          k = 0.2000 0.4619-0.0910 (  8756 PWs)   bands (ev):

   -37.1464 -37.1231   0.3915   0.8911   1.3837   1.9300   3.3732   4.5435
     5.1521   5.3481   5.8848   6.5183   7.0628   7.3597   7.6906   8.0186
     8.3378   8.4718   9.1906

          k = 0.2000 0.5774 0.0000 (  8712 PWs)   bands (ev):

   -37.1403 -37.1226   2.1787   2.2969   2.5441   3.0013   3.2858   3.7561
     4.1258   4.4723   5.2513   5.5129   6.8168   7.0199   7.2156   7.4978
     7.7850   8.3062   8.8408

          k = 0.2000 0.5774-0.0910 (  8764 PWs)   bands (ev):

   -37.1403 -37.1226   2.1813   2.3156   2.4952   3.0104   3.3769   3.7683
     3.9626   4.4620   5.3271   5.7310   6.5824   6.7710   7.2689   7.4208
     8.0303   8.4058   9.1246

          k = 0.3000 0.5196 0.0000 (  8746 PWs)   bands (ev):

   -37.1381 -37.1223   2.1949   2.5061   2.7977   3.7819   4.3585   4.4606
     4.7600   5.0117   5.3072   5.5324   5.6540   6.3309   6.5085   6.8674
     7.2587   7.5750   8.6330

          k = 0.3000 0.5196-0.0910 (  8744 PWs)   bands (ev):

   -37.1381 -37.1223   2.2304   2.4006   2.9287   3.6491   4.3559   4.4894
     4.7932   5.0916   5.3759   5.4872   5.6858   6.2000   6.3709   6.7262
     7.5527   7.8636   8.3136

     the Fermi energy is     9.1473 ev

!    total energy              =     -78.90774338 Ry
     estimated scf accuracy    <          3.7E-09 Ry
     smearing contrib. (-TS)   =      -0.00135141 Ry
     internal energy E=F+TS    =     -78.90639198 Ry

     The total energy is F=E-TS. E is the sum of the following terms:
     one-electron contribution =      -8.09515768 Ry
     hartree contribution      =      16.67545455 Ry
     xc contribution           =     -25.65873561 Ry
     ewald contribution        =     -61.82795323 Ry

     convergence has been achieved in  21 iterations

     Forces acting on atoms (cartesian axes, Ry/au):

     atom    1 type  1   force =     0.00000000    0.00000000   -0.14458860
     atom    2 type  1   force =     0.00000000    0.00000000   -0.01060348
     atom    3 type  1   force =     0.00000000    0.00000000    0.14467451
     atom    4 type  1   force =     0.00000000    0.00000000    0.00271395
     atom    5 type  1   force =     0.00000000   -0.00000000    0.01019771
     atom    6 type  1   force =     0.00000000    0.00000000   -0.00419688
     atom    7 type  2   force =     0.00000000    0.00000000   -0.09348996
     atom    8 type  2   force =     0.00000000    0.00000000    0.09529275
     The non-local contrib.  to forces
     atom    1 type  1   force =     0.00000000    0.00000000   -0.21145950
     atom    2 type  1   force =     0.00000000    0.00000000   -0.02317954
     atom    3 type  1   force =     0.00000000    0.00000000    0.21515281
     atom    4 type  1   force =     0.00000000    0.00000000    0.00303889
     atom    5 type  1   force =     0.00000000    0.00000000    0.01819867
     atom    6 type  1   force =     0.00000000   -0.00000000   -0.00676210
     atom    7 type  2   force =     0.00000000    0.00000000    0.00880611
     atom    8 type  2   force =     0.00000000    0.00000000   -0.00783379
     The ionic contribution  to forces
     atom    1 type  1   force =     0.00000000   -0.00000000   -4.50803848
     atom    2 type  1   force =    -0.00000000    0.00000000    2.11030654
     atom    3 type  1   force =     0.00000000   -0.00000000    4.48796516
     atom    4 type  1   force =     0.00000000   -0.00000000    0.01837337
     atom    5 type  1   force =    -0.00000000    0.00000000   -2.08301039
     atom    6 type  1   force =    -0.00000004    0.00000003   -0.01148469
     atom    7 type  2   force =     0.00000001   -0.00000001   -3.10416883
     atom    8 type  2   force =     0.00000003   -0.00000002    3.09005731
     The local contribution  to forces
     atom    1 type  1   force =     0.00000000    0.00000000    4.56220801
     atom    2 type  1   force =    -0.00000000   -0.00000000   -2.09903706
     atom    3 type  1   force =     0.00000001   -0.00000000   -4.54562873
     atom    4 type  1   force =     0.00000000   -0.00000000   -0.01845184
     atom    5 type  1   force =    -0.00000000    0.00000000    2.07608343
     atom    6 type  1   force =     0.00000002   -0.00000001    0.01364114
     atom    7 type  2   force =    -0.00000000    0.00000000    3.00181769
     atom    8 type  2   force =     0.00000052   -0.00000030   -2.98695603
     The core correction contribution to forces
     atom    1 type  1   force =    -0.00000000    0.00000000    0.01264701
     atom    2 type  1   force =     0.00000000   -0.00000000    0.00134183
     atom    3 type  1   force =    -0.00000000    0.00000000   -0.01284255
     atom    4 type  1   force =    -0.00000000    0.00000000   -0.00014323
     atom    5 type  1   force =     0.00000000   -0.00000000   -0.00104626
     atom    6 type  1   force =     0.00000000   -0.00000000    0.00035283
     atom    7 type  2   force =     0.00000000    0.00000000    0.00000000
     atom    8 type  2   force =     0.00000000    0.00000000    0.00000000
     The Hubbard contrib.    to forces
     atom    1 type  1   force =     0.00000000    0.00000000    0.00000000
     atom    2 type  1   force =     0.00000000    0.00000000    0.00000000
     atom    3 type  1   force =     0.00000000    0.00000000    0.00000000
     atom    4 type  1   force =     0.00000000    0.00000000    0.00000000
     atom    5 type  1   force =     0.00000000    0.00000000    0.00000000
     atom    6 type  1   force =     0.00000000    0.00000000    0.00000000
     atom    7 type  2   force =     0.00000000    0.00000000    0.00000000
     atom    8 type  2   force =     0.00000000    0.00000000    0.00000000
     The SCF correction term to forces
     atom    1 type  1   force =    -0.00000000    0.00000000    0.00005359
     atom    2 type  1   force =     0.00000000   -0.00000000   -0.00003601
     atom    3 type  1   force =    -0.00000000    0.00000000    0.00002707
     atom    4 type  1   force =    -0.00000000    0.00000000   -0.00010402
     atom    5 type  1   force =     0.00000000   -0.00000000   -0.00002850
     atom    6 type  1   force =    -0.00000000    0.00000000    0.00005519
     atom    7 type  2   force =    -0.00000000    0.00000000    0.00005430
     atom    8 type  2   force =    -0.00000000    0.00000000    0.00002450

     Total force =     0.244743     Total SCF correction =     0.000152


     Computing stress (Cartesian axis) and pressure

          total   stress  (Ry/bohr**3)                   (kbar)     P=      181.81
   0.00077080   0.00000000   0.00000000          113.39        0.00        0.00
   0.00000000   0.00077080   0.00000000            0.00      113.39        0.00
   0.00000000   0.00000000   0.00216623            0.00        0.00      318.66


     BFGS Geometry Optimization
     Energy error            =      0.0E+00 Ry
     Gradient error          =      1.4E-01 Ry/Bohr
     Cell gradient error     =      3.9E+02 kbar

     number of scf cycles    =   1
     number of bfgs steps    =   0

     enthalpy           new  =     -76.4388105229 Ry

     new trust radius        =       0.3541607149 bohr
ibrav =      4
 celldm(1) =      4.99370336
 celldm(3) =      5.69827427
Input lattice vectors:
     0.93429674     0.00000000     0.00000000
    -0.46714837     0.80912471     0.00000000
     0.00000000     0.00000000     5.32387908
New lattice vectors in INITIAL alat:
     0.93429674     0.00000000     0.00000000
    -0.46714837     0.80912471     0.00000000
     0.00000000     0.00000000     5.32387908
New lattice vectors in NEW alat (for information only):
     1.00000000     0.00000000     0.00000000
    -0.50000000     0.86602540     0.00000000
     0.00000000     0.00000000     5.69827427
Discrepancy in bohr =     0.000000    0.000000    0.000000
     new conv_thr            =       0.0000000100 Ry

     new unit-cell volume =    614.52875 a.u.^3 (    91.06376 Ang^3 )
     density =      3.32596 g/cm^3

CELL_PARAMETERS (alat=  5.34487936)
   0.934296740   0.000000000   0.000000000
  -0.467148370   0.809124711   0.000000000
   0.000000000   0.000000000   5.323879076

ATOMIC_POSITIONS (crystal)
Si            0.0000000000        0.0000000000        0.2580173704
Si            0.0000000000        0.0000000000        0.8105058498
Si            0.3333333300        0.6666666700        0.6651685556
Si            0.3333333300        0.6666666700        0.9614544360
Si            0.6666666700        0.3333333300        0.1122703299
Si            0.6666666700        0.3333333300        0.4615190561
Li            0.0000000000        0.0000000000        0.3886627695
Li            0.3333333300        0.6666666700        0.5345056326



     Writing config-only to output data dir ./output/SiLi.save/
     NEW-OLD atomic charge density approx. for the potential

     negative rho (up, down):  2.144E-06 0.000E+00
     extrapolated charge   24.54174, renormalised to   30.00000

     total cpu time spent up to now is       37.0 secs

     Self-consistent Calculation

     iteration #  1     ecut=    80.00 Ry     beta= 0.70
     Davidson diagonalization with overlap
     c_bands:  1 eigenvalues not converged
     c_bands:  2 eigenvalues not converged
     c_bands:  2 eigenvalues not converged
     c_bands:  2 eigenvalues not converged
     c_bands:  1 eigenvalues not converged
     c_bands:  3 eigenvalues not converged
     c_bands:  3 eigenvalues not converged
     c_bands:  3 eigenvalues not converged
     c_bands:  4 eigenvalues not converged
     c_bands:  5 eigenvalues not converged
     c_bands:  3 eigenvalues not converged
     c_bands:  1 eigenvalues not converged
     c_bands:  3 eigenvalues not converged
     c_bands:  1 eigenvalues not converged
     c_bands:  1 eigenvalues not converged
     c_bands:  1 eigenvalues not converged
     c_bands:  5 eigenvalues not converged
     ethr =  1.00E-06,  avg # of iterations = 28.1

     total cpu time spent up to now is       43.9 secs

     total energy              =     154.92027560 Ry
     estimated scf accuracy    <     251.15976890 Ry

     iteration #  2     ecut=    80.00 Ry     beta= 0.70
     Davidson diagonalization with overlap
     c_bands:  2 eigenvalues not converged
     c_bands:  4 eigenvalues not converged
     c_bands:  2 eigenvalues not converged
     c_bands:  2 eigenvalues not converged
     c_bands:  1 eigenvalues not converged
     ethr =  1.00E-02,  avg # of iterations = 34.5

     total cpu time spent up to now is       53.7 secs

     total energy              =    -155.40278855 Ry
     estimated scf accuracy    <    1729.66750275 Ry

     iteration #  3     ecut=    80.00 Ry     beta= 0.70
     Davidson diagonalization with overlap
     ethr =  1.00E-02,  avg # of iterations = 12.6

     total cpu time spent up to now is       57.2 secs

     total energy              =    -134.85587484 Ry
     estimated scf accuracy    <     600.78333133 Ry

     iteration #  4     ecut=    80.00 Ry     beta= 0.70
     Davidson diagonalization with overlap
     ethr =  1.00E-02,  avg # of iterations =  7.0

     negative rho (up, down):  3.458E-04 0.000E+00

     total cpu time spent up to now is       59.2 secs

     total energy              =       6.45902530 Ry
     estimated scf accuracy    <     556.56149183 Ry

     iteration #  5     ecut=    80.00 Ry     beta= 0.70
     Davidson diagonalization with overlap
     ethr =  1.00E-02,  avg # of iterations = 11.5

     total cpu time spent up to now is       62.8 secs

     total energy              =     -83.30383846 Ry
     estimated scf accuracy    <     338.01150460 Ry

     iteration #  6     ecut=    80.00 Ry     beta= 0.70
     Davidson diagonalization with overlap
     ethr =  1.00E-02,  avg # of iterations =  5.0

     total cpu time spent up to now is       64.4 secs

     total energy              =     -74.27024948 Ry
     estimated scf accuracy    <     154.62189591 Ry

     iteration #  7     ecut=    80.00 Ry     beta= 0.70
     Davidson diagonalization with overlap
     ethr =  1.00E-02,  avg # of iterations =  7.2

     total cpu time spent up to now is       66.5 secs

     total energy              =     -92.99407366 Ry
     estimated scf accuracy    <      64.52297012 Ry

     iteration #  8     ecut=    80.00 Ry     beta= 0.70
     Davidson diagonalization with overlap
     ethr =  1.00E-02,  avg # of iterations =  6.7

     total cpu time spent up to now is       68.4 secs

     total energy              =     -88.69237720 Ry
     estimated scf accuracy    <     226.09835701 Ry

     iteration #  9     ecut=    80.00 Ry     beta= 0.70
     Davidson diagonalization with overlap
     ethr =  1.00E-02,  avg # of iterations =  2.5

     total cpu time spent up to now is       69.5 secs

     total energy              =     -86.22198886 Ry
     estimated scf accuracy    <     136.70066083 Ry

     iteration # 10     ecut=    80.00 Ry     beta= 0.70
     Davidson diagonalization with overlap
     ethr =  1.00E-02,  avg # of iterations =  2.0

     negative rho (up, down):  2.544E-02 0.000E+00

     total cpu time spent up to now is       70.4 secs

     total energy              =     -24.40573307 Ry
     estimated scf accuracy    <     100.14940447 Ry

     iteration # 11     ecut=    80.00 Ry     beta= 0.70
     Davidson diagonalization with overlap
     c_bands:  1 eigenvalues not converged
     c_bands:  1 eigenvalues not converged
     c_bands:  1 eigenvalues not converged
     ethr =  1.00E-02,  avg # of iterations = 17.9

     total cpu time spent up to now is       75.0 secs

     total energy              =     -46.46871744 Ry
     estimated scf accuracy    <     793.60347666 Ry

     iteration # 12     ecut=    80.00 Ry     beta= 0.70
     Davidson diagonalization with overlap
     ethr =  1.00E-02,  avg # of iterations =  9.0

     total cpu time spent up to now is       77.5 secs

     total energy              =     -82.09179043 Ry
     estimated scf accuracy    <      75.68778888 Ry

     iteration # 13     ecut=    80.00 Ry     beta= 0.70
     Davidson diagonalization with overlap
     ethr =  1.00E-02,  avg # of iterations =  5.5

     total cpu time spent up to now is       79.0 secs

     total energy              =     -77.41100302 Ry
     estimated scf accuracy    <     185.92873153 Ry

     iteration # 14     ecut=    80.00 Ry     beta= 0.70
     Davidson diagonalization with overlap
     ethr =  1.00E-02,  avg # of iterations =  4.1

     total cpu time spent up to now is       80.2 secs

     total energy              =     -80.18163710 Ry
     estimated scf accuracy    <      35.96722565 Ry

     iteration # 15     ecut=    80.00 Ry     beta= 0.70
     Davidson diagonalization with overlap
     ethr =  1.00E-02,  avg # of iterations =  1.5

     total cpu time spent up to now is       81.1 secs

     total energy              =     -79.41548511 Ry
     estimated scf accuracy    <      25.60787302 Ry

     iteration # 16     ecut=    80.00 Ry     beta= 0.70
     Davidson diagonalization with overlap
     ethr =  1.00E-02,  avg # of iterations =  1.5

     total cpu time spent up to now is       82.1 secs

     total energy              =     -79.22882043 Ry
     estimated scf accuracy    <      16.29345278 Ry

     iteration # 17     ecut=    80.00 Ry     beta= 0.70
     Davidson diagonalization with overlap
     ethr =  1.00E-02,  avg # of iterations =  1.2

     total cpu time spent up to now is       83.0 secs

     total energy              =     -78.78899555 Ry
     estimated scf accuracy    <      13.89606968 Ry

     iteration # 18     ecut=    80.00 Ry     beta= 0.70
     Davidson diagonalization with overlap
     ethr =  1.00E-02,  avg # of iterations =  1.9

     total cpu time spent up to now is       83.9 secs

     total energy              =     -78.90555986 Ry
     estimated scf accuracy    <       6.38093198 Ry

     iteration # 19     ecut=    80.00 Ry     beta= 0.70
     Davidson diagonalization with overlap
     ethr =  1.00E-02,  avg # of iterations =  1.0

     total cpu time spent up to now is       84.7 secs

     total energy              =     -78.82009416 Ry
     estimated scf accuracy    <       4.80491713 Ry

     iteration # 20     ecut=    80.00 Ry     beta= 0.70
     Davidson diagonalization with overlap
     ethr =  1.00E-02,  avg # of iterations =  1.4

     total cpu time spent up to now is       85.7 secs

     total energy              =     -78.45389243 Ry
     estimated scf accuracy    <       5.30006503 Ry

     iteration # 21     ecut=    80.00 Ry     beta= 0.70
     Davidson diagonalization with overlap
     ethr =  1.00E-02,  avg # of iterations =  2.5

     total cpu time spent up to now is       86.7 secs

     total energy              =     -78.77438081 Ry
     estimated scf accuracy    <       0.53612764 Ry

     iteration # 22     ecut=    80.00 Ry     beta= 0.70
     Davidson diagonalization with overlap
     ethr =  1.79E-03,  avg # of iterations =  2.9

     total cpu time spent up to now is       87.7 secs

     total energy              =     -78.76693249 Ry
     estimated scf accuracy    <       0.32195088 Ry

     iteration # 23     ecut=    80.00 Ry     beta= 0.70
     Davidson diagonalization with overlap
     ethr =  1.07E-03,  avg # of iterations =  1.2

     total cpu time spent up to now is       88.7 secs

     total energy              =     -78.78176150 Ry
     estimated scf accuracy    <       0.00516906 Ry

     iteration # 24     ecut=    80.00 Ry     beta= 0.70
     Davidson diagonalization with overlap
     c_bands:  1 eigenvalues not converged
     ethr =  1.72E-05,  avg # of iterations = 11.6

     total cpu time spent up to now is       90.5 secs

     total energy              =     -78.78432858 Ry
     estimated scf accuracy    <       0.00237397 Ry

     iteration # 25     ecut=    80.00 Ry     beta= 0.70
     Davidson diagonalization with overlap
     ethr =  7.91E-06,  avg # of iterations =  1.8

     total cpu time spent up to now is       91.4 secs

     total energy              =     -78.78440038 Ry
     estimated scf accuracy    <       0.00016321 Ry

     iteration # 26     ecut=    80.00 Ry     beta= 0.70
     Davidson diagonalization with overlap
     ethr =  5.44E-07,  avg # of iterations =  6.3

     total cpu time spent up to now is       92.7 secs

     total energy              =     -78.78442872 Ry
     estimated scf accuracy    <       0.00009953 Ry

     iteration # 27     ecut=    80.00 Ry     beta= 0.70
     Davidson diagonalization with overlap
     ethr =  3.32E-07,  avg # of iterations =  1.1

     total cpu time spent up to now is       93.6 secs

     total energy              =     -78.78442958 Ry
     estimated scf accuracy    <       0.00003248 Ry

     iteration # 28     ecut=    80.00 Ry     beta= 0.70
     Davidson diagonalization with overlap
     ethr =  1.08E-07,  avg # of iterations =  1.5

     total cpu time spent up to now is       94.5 secs

     total energy              =     -78.78442930 Ry
     estimated scf accuracy    <       0.00001022 Ry

     iteration # 29     ecut=    80.00 Ry     beta= 0.70
     Davidson diagonalization with overlap
     ethr =  3.41E-08,  avg # of iterations =  2.4

     total cpu time spent up to now is       95.6 secs

     total energy              =     -78.78443039 Ry
     estimated scf accuracy    <       0.00000449 Ry

     iteration # 30     ecut=    80.00 Ry     beta= 0.70
     Davidson diagonalization with overlap
     ethr =  1.50E-08,  avg # of iterations =  1.2

     total cpu time spent up to now is       96.4 secs

     total energy              =     -78.78443047 Ry
     estimated scf accuracy    <       0.00000100 Ry

     iteration # 31     ecut=    80.00 Ry     beta= 0.70
     Davidson diagonalization with overlap
     ethr =  3.33E-09,  avg # of iterations =  2.5

     total cpu time spent up to now is       97.4 secs

     total energy              =     -78.78443053 Ry
     estimated scf accuracy    <       0.00000003 Ry

     iteration # 32     ecut=    80.00 Ry     beta= 0.70
     Davidson diagonalization with overlap
     ethr =  8.41E-11,  avg # of iterations =  4.4

     total cpu time spent up to now is       98.6 secs

     End of self-consistent calculation

          k = 0.0000 0.0000 0.0000 (  8861 PWs)   bands (ev):

   -35.3943 -35.3066  -3.5141  -2.9153  -1.7495  -0.8921  -0.0755   1.7325
     4.3681   6.9295   8.3745  11.6267  12.9003  17.6437  18.7162  20.1164
    20.1164  20.1758  20.1758

          k = 0.0000 0.0000-0.0939 (  8784 PWs)   bands (ev):

   -35.3943 -35.3066  -3.5137  -2.9178  -1.7275  -0.9585   0.0088   1.6514
     4.5608   6.4061   9.7703   9.8646  14.4310  15.8727  20.1166  20.1167
    20.1770  20.1770  21.0065

          k = 0.0000 0.1236 0.0000 (  8797 PWs)   bands (ev):

   -35.3844 -35.3005  -3.2371  -2.6396  -1.4809  -0.6756   0.1937   2.0040
     4.6057   7.1776   8.5004  11.7979  13.0706  16.9866  17.5009  17.8735
    18.1114  18.1896  18.9998

          k = 0.0000 0.1236-0.0939 (  8806 PWs)   bands (ev):

   -35.3844 -35.3005  -3.2366  -2.6426  -1.4541  -0.7473   0.2820   1.9157
     4.8174   6.6034   9.8850  10.0920  14.6055  15.7863  17.3441  17.7216
    18.1125  18.2793  19.1090

          k = 0.0000 0.2472 0.0000 (  8823 PWs)   bands (ev):

   -35.3583 -35.2847  -2.4085  -1.8151  -0.6837  -0.0207   0.9976   2.8151
     5.3041   7.9091   8.8284  12.1945  13.0953  13.6204  13.9525  14.5301
    15.2988  16.4527  16.5494

          k = 0.0000 0.2472-0.0939 (  8814 PWs)   bands (ev):

   -35.3583 -35.2847  -2.4077  -1.8198  -0.6366  -0.1142   1.0989   2.7024
     5.5834   7.1535  10.1908  10.7258  13.4548  13.7097  14.0916  14.8719
    15.4552  16.4539  16.7171

          k = 0.0000 0.3708 0.0000 (  8811 PWs)   bands (ev):

   -35.3253 -35.2658  -1.0356  -0.4492   0.5980   1.1037   2.3231   4.1523
     6.3594   8.7021   9.2187   9.6846  10.2471  11.0914  11.4729  12.6573
    13.4681  14.6981  15.1788

          k = 0.0000 0.3708-0.0939 (  8796 PWs)   bands (ev):

   -35.3253 -35.2658  -1.0340  -0.4587   0.7163   0.9370   2.4503   3.9853
     6.8224   7.7556   9.5638   9.9864  10.4123  11.2266  11.4349  12.4298
    13.0233  14.4433  15.2563

          k = 0.0000 0.4944 0.0000 (  8769 PWs)   bands (ev):

   -35.2977 -35.2513   0.8681   1.4426   2.2155   2.8014   4.1132   5.8719
     6.2445   6.5304   6.8614   7.9172   8.7208   9.4443  10.6086  11.2938
    11.4317  13.6631  14.5338

          k = 0.0000 0.4944-0.0939 (  8754 PWs)   bands (ev):

   -35.2977 -35.2513   0.8717   1.4189   2.3826   2.5847   4.3105   5.5081
     6.2380   6.7404   6.9801   7.8738   8.7737   9.5734  10.0340  11.0240
    12.3974  13.8520  14.1150

          k = 0.0000-0.6180 0.0000 (  8762 PWs)   bands (ev):

   -35.2867 -35.2462   3.2055   3.2581   3.6014   3.8961   3.9258   4.7155
     5.0643   5.2442   6.5504   6.7885   8.3061   8.5022   9.9519  10.7622
    12.2035  13.4497  13.5676

          k = 0.0000-0.6180-0.0939 (  8764 PWs)   bands (ev):

   -35.2867 -35.2462   3.1903   3.3064   3.5239   3.8003   4.1917   4.5264
     5.0677   5.2822   6.5807   6.8770   8.1616   8.3516  10.4510  11.0454
    11.3071  13.0550  14.2943

          k = 0.1070 0.1854 0.0000 (  8819 PWs)   bands (ev):

   -35.3664 -35.2896  -2.6843  -2.0895  -0.9477  -0.2399   0.7303   2.5454
     5.0747   7.6690   8.7358  12.1257  13.2782  15.2930  15.6201  15.8156
    15.9017  16.2152  16.3613

          k = 0.1070 0.1854-0.0939 (  8794 PWs)   bands (ev):

   -35.3664 -35.2896  -2.6836  -2.0936  -0.9086  -0.3249   0.8271   2.4414
     5.3290   6.9808  10.1137  10.5257  14.7838  14.8233  15.6695  15.7226
    15.8699  16.2429  16.4345

          k = 0.1070 0.3090 0.0000 (  8788 PWs)   bands (ev):

   -35.3368 -35.2722  -1.5835  -0.9942   0.0952   0.6485   1.7959   3.6202
     5.9739   8.6023   9.1025  11.5696  12.1186  12.2353  12.8608  13.4547
    13.9796  14.3201  14.6969

          k = 0.1070 0.3090-0.0939 (  8802 PWs)   bands (ev):

   -35.3368 -35.2722  -1.5822  -1.0014   0.1768   0.5192   1.9115   3.4790
     6.3409   7.6310  10.4311  11.1249  11.7882  12.2125  12.7222  13.3281
    14.1039  14.2994  14.7308

          k = 0.1070 0.4326 0.0000 (  8769 PWs)   bands (ev):

   -35.3065 -35.2555   0.0553   0.6357   1.5574   2.0595   3.3670   5.2029
     6.9419   8.0734   8.4960   8.7202   9.8664  10.1030  10.7847  11.4511
    12.8030  12.9991  13.3577

          k = 0.1070 0.4326-0.0939 (  8768 PWs)   bands (ev):

   -35.3065 -35.2555   0.0579   0.6199   1.7768   1.7913   3.5209   4.9698
     7.4994   7.9262   8.1817   8.6740   9.6922   9.9786  11.2642  11.7925
    12.4878  13.0783  13.3885

          k = 0.1070 0.5562 0.0000 (  8766 PWs)   bands (ev):

   -35.2871 -35.2458   2.2117   2.7721   3.2457   4.0695   4.8911   5.0944
     5.5390   5.9894   6.7173   7.3562   8.1760   9.4527   9.9494  11.1469
    11.8283  12.4200  12.7657

          k = 0.1070 0.5562-0.0939 (  8766 PWs)   bands (ev):

   -35.2871 -35.2458   2.2181   2.7235   3.3851   3.8809   4.9086   5.2778
     5.5966   5.8455   6.6364   7.3010   8.3420   9.5500   9.9185  10.7776
    12.0354  12.5070  12.6664

          k = 0.2141 0.3708 0.0000 (  8772 PWs)   bands (ev):

   -35.3099 -35.2571  -0.2165   0.3656   1.3293   1.8201   3.1116   4.9459
     6.9847   9.4396   9.4562  10.2956  10.4046  10.8008  10.9262  11.1540
    11.8913  12.1141  12.2857

          k = 0.2141 0.3708-0.0939 (  8782 PWs)   bands (ev):

   -35.3099 -35.2571  -0.2142   0.3518   1.5229   1.5780   3.2550   4.7437
     7.5594   8.2324  10.1054  10.3608  10.4092  10.8431  10.9913  11.3842
    11.7491  12.0918  12.5315

          k = 0.2141 0.4944 0.0000 (  8755 PWs)   bands (ev):

   -35.2876 -35.2454   1.6787   2.2492   2.9024   3.5783   4.8910   6.6392
     7.0266   7.2907   7.6163   8.5340   8.9831   9.6593   9.7795  10.2430
    10.3651  11.3000  11.4570

          k = 0.2141 0.4944-0.0939 (  8756 PWs)   bands (ev):

   -35.2876 -35.2454   1.6836   2.2160   3.0538   3.3819   5.1020   6.2682
     7.0192   7.4509   7.7267   8.5995   9.0870   9.5400   9.8405  10.1777
    10.4186  10.7333  11.4518

          k = 0.2141 0.6180 0.0000 (  8712 PWs)   bands (ev):

   -35.2789 -35.2411   4.0109   4.0483   4.3839   4.6694   4.7084   5.3880
     5.8362   6.0271   7.2375   7.4822   8.9578   9.0458   9.4890   9.5991
     9.9195  10.3331  11.1338

          k = 0.2141 0.6180-0.0939 (  8764 PWs)   bands (ev):

   -35.2789 -35.2411   3.9960   4.1065   4.2823   4.5922   4.9765   5.2469
     5.8149   5.9919   7.3527   7.6180   8.6878   8.7868   9.4138   9.8047
    10.0061  10.7256  11.2505

          k = 0.3211 0.5562 0.0000 (  8746 PWs)   bands (ev):

   -35.2759 -35.2392   3.8113   4.3615   4.5811   5.6289   6.3716   6.4627
     6.5992   6.7540   7.0686   7.0966   7.7005   8.1861   8.3597   8.9735
     9.4069   9.8819  10.8151

          k = 0.3211 0.5562-0.0939 (  8744 PWs)   bands (ev):

   -35.2759 -35.2392   3.8237   4.2566   4.7585   5.4378   6.3930   6.5102
     6.6299   6.8101   7.1336   7.2991   7.3970   8.0535   8.3545   8.8859
     9.6975  10.1010  10.4864

     the Fermi energy is    11.3948 ev

!    total energy              =     -78.78443054 Ry
     estimated scf accuracy    <          6.4E-09 Ry
     smearing contrib. (-TS)   =      -0.00082623 Ry
     internal energy E=F+TS    =     -78.78360431 Ry

     The total energy is F=E-TS. E is the sum of the following terms:
     one-electron contribution =      -1.09456746 Ry
     hartree contribution      =      15.53370598 Ry
     xc contribution           =     -26.41428707 Ry
     ewald contribution        =     -66.80845576 Ry

     convergence has been achieved in  32 iterations

     Forces acting on atoms (cartesian axes, Ry/au):

     atom    1 type  1   force =     0.00000000    0.00000000   -0.13565786
     atom    2 type  1   force =     0.00000000    0.00000000   -0.00035440
     atom    3 type  1   force =     0.00000000    0.00000000    0.13718505
     atom    4 type  1   force =     0.00000000    0.00000000    0.00041581
     atom    5 type  1   force =     0.00000000   -0.00000000    0.00282414
     atom    6 type  1   force =     0.00000000   -0.00000000   -0.00186426
     atom    7 type  2   force =     0.00000000    0.00000000   -0.15193717
     atom    8 type  2   force =     0.00000000   -0.00000000    0.14938870
     The non-local contrib.  to forces
     atom    1 type  1   force =     0.00000000    0.00000000   -0.18878516
     atom    2 type  1   force =     0.00000000    0.00000000   -0.00395781
     atom    3 type  1   force =     0.00000000   -0.00000000    0.18271530
     atom    4 type  1   force =     0.00000000    0.00000000    0.00880286
     atom    5 type  1   force =     0.00000000    0.00000000    0.00206985
     atom    6 type  1   force =     0.00000000    0.00000000   -0.01029718
     atom    7 type  2   force =     0.00000000   -0.00000000    0.02754275
     atom    8 type  2   force =     0.00000000    0.00000000   -0.02530186
     The ionic contribution  to forces
     atom    1 type  1   force =     0.00000000   -0.00000000   -4.42082584
     atom    2 type  1   force =    -0.00000000    0.00000000    2.45365011
     atom    3 type  1   force =     0.00000000   -0.00000000    4.39777214
     atom    4 type  1   force =     0.00000000   -0.00000000    0.00820664
     atom    5 type  1   force =    -0.00000000    0.00000000   -2.42153601
     atom    6 type  1   force =    -0.00000004    0.00000002   -0.00559020
     atom    7 type  2   force =     0.00000001   -0.00000001   -3.49611155
     atom    8 type  2   force =     0.00000003   -0.00000002    3.48443471
     The local contribution  to forces
     atom    1 type  1   force =     0.00000000    0.00000000    4.46356962
     atom    2 type  1   force =    -0.00000000   -0.00000000   -2.44985434
     atom    3 type  1   force =     0.00000000   -0.00000000   -4.43334837
     atom    4 type  1   force =    -0.00000000    0.00000000   -0.01604541
     atom    5 type  1   force =     0.00000000   -0.00000000    2.42207316
     atom    6 type  1   force =     0.00000002   -0.00000001    0.01341090
     atom    7 type  2   force =     0.00000000    0.00000000    3.31653919
     atom    8 type  2   force =     0.00000049   -0.00000028   -3.30975851
     The core correction contribution to forces
     atom    1 type  1   force =    -0.00000000    0.00000000    0.01038805
     atom    2 type  1   force =     0.00000000   -0.00000000   -0.00024770
     atom    3 type  1   force =    -0.00000000    0.00000000   -0.00998810
     atom    4 type  1   force =    -0.00000000    0.00000000   -0.00046837
     atom    5 type  1   force =     0.00000000   -0.00000000    0.00034526
     atom    6 type  1   force =     0.00000000   -0.00000000    0.00052314
     atom    7 type  2   force =     0.00000000    0.00000000    0.00000000
     atom    8 type  2   force =     0.00000000    0.00000000    0.00000000
     The Hubbard contrib.    to forces
     atom    1 type  1   force =     0.00000000    0.00000000    0.00000000
     atom    2 type  1   force =     0.00000000    0.00000000    0.00000000
     atom    3 type  1   force =     0.00000000    0.00000000    0.00000000
     atom    4 type  1   force =     0.00000000    0.00000000    0.00000000
     atom    5 type  1   force =     0.00000000    0.00000000    0.00000000
     atom    6 type  1   force =     0.00000000    0.00000000    0.00000000
     atom    7 type  2   force =     0.00000000    0.00000000    0.00000000
     atom    8 type  2   force =     0.00000000    0.00000000    0.00000000
     The SCF correction term to forces
     atom    1 type  1   force =     0.00000000   -0.00000000   -0.00000516
     atom    2 type  1   force =    -0.00000000    0.00000000    0.00005471
     atom    3 type  1   force =    -0.00000000    0.00000000    0.00003346
     atom    4 type  1   force =     0.00000000   -0.00000000   -0.00008055
     atom    5 type  1   force =     0.00000000   -0.00000000   -0.00012873
     atom    6 type  1   force =    -0.00000000    0.00000000    0.00008845
     atom    7 type  2   force =     0.00000000   -0.00000000    0.00009180
     atom    8 type  2   force =    -0.00000000    0.00000000    0.00001373

     Total force =     0.287466     Total SCF correction =     0.000209


     Computing stress (Cartesian axis) and pressure

          total   stress  (Ry/bohr**3)                   (kbar)     P=      401.48
   0.00218290   0.00000000   0.00000000          321.12        0.00        0.00
   0.00000000   0.00218290   0.00000000            0.00      321.12        0.00
   0.00000000  -0.00000000   0.00382178            0.00       -0.00      562.20

     Energy error            =      2.6E-01 Ry
     Gradient error          =      1.5E-01 Ry/Bohr
     Cell gradient error     =      1.8E+02 kbar

     number of scf cycles    =   2
     number of bfgs steps    =   1

     enthalpy           old  =     -76.4388105229 Ry
     enthalpy           new  =     -76.6956897821 Ry

     CASE: enthalpy          _new < enthalpy          _old

     new trust radius        =       0.4568706539 bohr
ibrav =      4
 celldm(1) =      4.53353696
 celldm(3) =      6.29131577
Input lattice vectors:
     0.84820192     0.00000000     0.00000000
    -0.42410096     0.73456441    -0.00000000
     0.00000000    -0.00000000     5.33630614
New lattice vectors in INITIAL alat:
     0.84820192     0.00000000     0.00000000
    -0.42410096     0.73456441     0.00000000
     0.00000000     0.00000000     5.33630614
New lattice vectors in NEW alat (for information only):
     1.00000000     0.00000000     0.00000000
    -0.50000000     0.86602540     0.00000000
     0.00000000     0.00000000     6.29131577
Discrepancy in bohr =     0.000000    0.000000    0.000000
     new conv_thr            =       0.0000000100 Ry

     new unit-cell volume =    507.67245 a.u.^3 (    75.22930 Ang^3 )
     density =      4.02601 g/cm^3

CELL_PARAMETERS (alat=  5.34487936)
   0.848201924   0.000000000   0.000000000
  -0.424100962   0.734564414   0.000000000
   0.000000000   0.000000000   5.336306141

ATOMIC_POSITIONS (crystal)
Si            0.0000000000        0.0000000000        0.2469131191
Si            0.0000000000        0.0000000000        0.8103015312
Si            0.3333333300        0.6666666700        0.6763713819
Si            0.3333333300        0.6666666700        0.9615274016
Si            0.6666666700        0.3333333300        0.1126247237
Si            0.6666666700        0.3333333300        0.4613285716
Li            0.0000000000        0.0000000000        0.3773994721
Li            0.3333333300        0.6666666700        0.5456377987



     Writing config-only to output data dir ./output/SiLi.save/
     NEW-OLD atomic charge density approx. for the potential

     negative rho (up, down):  2.188E-03 0.000E+00
     extrapolated charge   23.68821, renormalised to   30.00000

     total cpu time spent up to now is      103.0 secs

     Self-consistent Calculation

     iteration #  1     ecut=    80.00 Ry     beta= 0.70
     Davidson diagonalization with overlap
     c_bands:  1 eigenvalues not converged
     c_bands:  2 eigenvalues not converged
     c_bands:  3 eigenvalues not converged
     c_bands:  1 eigenvalues not converged
     c_bands:  1 eigenvalues not converged
     c_bands:  4 eigenvalues not converged
     c_bands:  3 eigenvalues not converged
     c_bands:  4 eigenvalues not converged
     c_bands:  3 eigenvalues not converged
     c_bands:  2 eigenvalues not converged
     c_bands:  2 eigenvalues not converged
     c_bands:  3 eigenvalues not converged
     c_bands:  4 eigenvalues not converged
     c_bands:  3 eigenvalues not converged
     c_bands:  5 eigenvalues not converged
     ethr =  1.00E-06,  avg # of iterations = 25.0

     total cpu time spent up to now is      109.5 secs

     total energy              =     235.84726549 Ry
     estimated scf accuracy    <     342.45744364 Ry

     iteration #  2     ecut=    80.00 Ry     beta= 0.70
     Davidson diagonalization with overlap
     c_bands:  1 eigenvalues not converged
     c_bands:  3 eigenvalues not converged
     c_bands:  1 eigenvalues not converged
     c_bands:  2 eigenvalues not converged
     c_bands:  1 eigenvalues not converged
     c_bands:  1 eigenvalues not converged
     c_bands:  3 eigenvalues not converged
     c_bands:  1 eigenvalues not converged
     c_bands:  1 eigenvalues not converged
     ethr =  1.00E-02,  avg # of iterations = 38.5

     total cpu time spent up to now is      120.0 secs

     total energy              =    -179.17825568 Ry
     estimated scf accuracy    <    2123.48514217 Ry

     iteration #  3     ecut=    80.00 Ry     beta= 0.70
     Davidson diagonalization with overlap
     c_bands:  2 eigenvalues not converged
     ethr =  1.00E-02,  avg # of iterations = 15.0

     total cpu time spent up to now is      124.0 secs

     total energy              =    -155.60123943 Ry
     estimated scf accuracy    <     713.76132024 Ry

     iteration #  4     ecut=    80.00 Ry     beta= 0.70
     Davidson diagonalization with overlap
     ethr =  1.00E-02,  avg # of iterations =  8.3

     total cpu time spent up to now is      126.3 secs

     total energy              =     -33.13683412 Ry
     estimated scf accuracy    <     662.79826129 Ry

     iteration #  5     ecut=    80.00 Ry     beta= 0.70
     Davidson diagonalization with overlap
     ethr =  1.00E-02,  avg # of iterations =  9.8

     total cpu time spent up to now is      129.2 secs

     total energy              =     -79.56426861 Ry
     estimated scf accuracy    <     302.53025227 Ry

     iteration #  6     ecut=    80.00 Ry     beta= 0.70
     Davidson diagonalization with overlap
     ethr =  1.00E-02,  avg # of iterations =  8.2

     total cpu time spent up to now is      131.0 secs

     total energy              =     -70.36364484 Ry
     estimated scf accuracy    <     172.08507644 Ry

     iteration #  7     ecut=    80.00 Ry     beta= 0.70
     Davidson diagonalization with overlap
     ethr =  1.00E-02,  avg # of iterations = 10.4

     total cpu time spent up to now is      133.7 secs

     total energy              =     -90.58547226 Ry
     estimated scf accuracy    <     246.37888742 Ry

     iteration #  8     ecut=    80.00 Ry     beta= 0.70
     Davidson diagonalization with overlap
     ethr =  1.00E-02,  avg # of iterations =  2.2

     total cpu time spent up to now is      134.8 secs

     total energy              =     -93.59248895 Ry
     estimated scf accuracy    <     147.42580559 Ry

     iteration #  9     ecut=    80.00 Ry     beta= 0.70
     Davidson diagonalization with overlap
     ethr =  1.00E-02,  avg # of iterations =  1.0

     total cpu time spent up to now is      135.6 secs

     total energy              =     -90.37469181 Ry
     estimated scf accuracy    <     168.51305206 Ry

     iteration # 10     ecut=    80.00 Ry     beta= 0.70
     Davidson diagonalization with overlap
     ethr =  1.00E-02,  avg # of iterations =  1.0

     negative rho (up, down):  7.223E-01 0.000E+00

     total cpu time spent up to now is      136.5 secs

     total energy              =       0.80221355 Ry
     estimated scf accuracy    <     151.61400478 Ry

     iteration # 11     ecut=    80.00 Ry     beta= 0.70
     Davidson diagonalization with overlap
     c_bands:  1 eigenvalues not converged
     c_bands:  1 eigenvalues not converged
     c_bands:  1 eigenvalues not converged
     c_bands:  1 eigenvalues not converged
     c_bands:  3 eigenvalues not converged
     c_bands:  1 eigenvalues not converged
     c_bands:  2 eigenvalues not converged
     c_bands:  3 eigenvalues not converged
     c_bands:  2 eigenvalues not converged
     c_bands:  2 eigenvalues not converged
     c_bands:  1 eigenvalues not converged
     c_bands:  1 eigenvalues not converged
     ethr =  1.00E-02,  avg # of iterations = 19.0

     total cpu time spent up to now is      141.7 secs

     total energy              =    -153.84377842 Ry
     estimated scf accuracy    <    1292.51975858 Ry

     iteration # 12     ecut=    80.00 Ry     beta= 0.70
     Davidson diagonalization with overlap
     ethr =  1.00E-02,  avg # of iterations =  4.1

     total cpu time spent up to now is      143.1 secs

     total energy              =     -50.40354936 Ry
     estimated scf accuracy    <     918.79283399 Ry

     iteration # 13     ecut=    80.00 Ry     beta= 0.70
     Davidson diagonalization with overlap
     ethr =  1.00E-02,  avg # of iterations =  9.1

     total cpu time spent up to now is      145.8 secs

     total energy              =     -77.53889029 Ry
     estimated scf accuracy    <      21.67447637 Ry

     iteration # 14     ecut=    80.00 Ry     beta= 0.70
     Davidson diagonalization with overlap
     ethr =  1.00E-02,  avg # of iterations =  4.8

     total cpu time spent up to now is      147.1 secs

     total energy              =     -78.70574776 Ry
     estimated scf accuracy    <       7.19745176 Ry

     iteration # 15     ecut=    80.00 Ry     beta= 0.70
     Davidson diagonalization with overlap
     ethr =  1.00E-02,  avg # of iterations =  1.2

     total cpu time spent up to now is      148.0 secs

     total energy              =     -78.87111270 Ry
     estimated scf accuracy    <       2.40333226 Ry

     iteration # 16     ecut=    80.00 Ry     beta= 0.70
     Davidson diagonalization with overlap
     ethr =  8.01E-03,  avg # of iterations =  1.0

     total cpu time spent up to now is      148.8 secs

     total energy              =     -78.79257018 Ry
     estimated scf accuracy    <       2.27818848 Ry

     iteration # 17     ecut=    80.00 Ry     beta= 0.70
     Davidson diagonalization with overlap
     ethr =  7.59E-03,  avg # of iterations =  1.2

     total cpu time spent up to now is      149.7 secs

     total energy              =     -78.82507459 Ry
     estimated scf accuracy    <       2.04327679 Ry

     iteration # 18     ecut=    80.00 Ry     beta= 0.70
     Davidson diagonalization with overlap
     ethr =  6.81E-03,  avg # of iterations =  1.9

     total cpu time spent up to now is      150.6 secs

     total energy              =     -78.90244510 Ry
     estimated scf accuracy    <       5.62939077 Ry

     iteration # 19     ecut=    80.00 Ry     beta= 0.70
     Davidson diagonalization with overlap
     ethr =  6.81E-03,  avg # of iterations =  1.0

     total cpu time spent up to now is      151.4 secs

     total energy              =     -79.01269051 Ry
     estimated scf accuracy    <       5.81226434 Ry

     iteration # 20     ecut=    80.00 Ry     beta= 0.70
     Davidson diagonalization with overlap
     ethr =  6.81E-03,  avg # of iterations =  1.6

     total cpu time spent up to now is      152.4 secs

     total energy              =     -79.31484419 Ry
     estimated scf accuracy    <       9.06100850 Ry

     iteration # 21     ecut=    80.00 Ry     beta= 0.70
     Davidson diagonalization with overlap
     ethr =  6.81E-03,  avg # of iterations =  2.7

     total cpu time spent up to now is      153.3 secs

     total energy              =     -77.64938227 Ry
     estimated scf accuracy    <      24.37138448 Ry

     iteration # 22     ecut=    80.00 Ry     beta= 0.70
     Davidson diagonalization with overlap
     ethr =  6.81E-03,  avg # of iterations =  2.9

     total cpu time spent up to now is      154.4 secs

     total energy              =     -78.54224563 Ry
     estimated scf accuracy    <       0.92596811 Ry

     iteration # 23     ecut=    80.00 Ry     beta= 0.70
     Davidson diagonalization with overlap
     ethr =  3.09E-03,  avg # of iterations =  1.3

     total cpu time spent up to now is      155.3 secs

     total energy              =     -78.58571489 Ry
     estimated scf accuracy    <       0.14206001 Ry

     iteration # 24     ecut=    80.00 Ry     beta= 0.70
     Davidson diagonalization with overlap
     ethr =  4.74E-04,  avg # of iterations =  4.8

     total cpu time spent up to now is      156.4 secs

     total energy              =     -78.60542101 Ry
     estimated scf accuracy    <       0.00973173 Ry

     iteration # 25     ecut=    80.00 Ry     beta= 0.70
     Davidson diagonalization with overlap
     c_bands:  1 eigenvalues not converged
     ethr =  3.24E-05,  avg # of iterations =  8.3

     total cpu time spent up to now is      157.9 secs

     total energy              =     -78.60751975 Ry
     estimated scf accuracy    <       0.00399769 Ry

     iteration # 26     ecut=    80.00 Ry     beta= 0.70
     Davidson diagonalization with overlap
     ethr =  1.33E-05,  avg # of iterations =  2.9

     total cpu time spent up to now is      158.9 secs

     total energy              =     -78.60773759 Ry
     estimated scf accuracy    <       0.00078367 Ry

     iteration # 27     ecut=    80.00 Ry     beta= 0.70
     Davidson diagonalization with overlap
     ethr =  2.61E-06,  avg # of iterations =  6.3

     total cpu time spent up to now is      160.2 secs

     total energy              =     -78.60779314 Ry
     estimated scf accuracy    <       0.00133406 Ry

     iteration # 28     ecut=    80.00 Ry     beta= 0.70
     Davidson diagonalization with overlap
     ethr =  2.61E-06,  avg # of iterations =  1.8

     total cpu time spent up to now is      161.2 secs

     total energy              =     -78.60786467 Ry
     estimated scf accuracy    <       0.00009313 Ry

     iteration # 29     ecut=    80.00 Ry     beta= 0.70
     Davidson diagonalization with overlap
     ethr =  3.10E-07,  avg # of iterations =  2.9

     total cpu time spent up to now is      162.2 secs

     total energy              =     -78.60787131 Ry
     estimated scf accuracy    <       0.00003237 Ry

     iteration # 30     ecut=    80.00 Ry     beta= 0.70
     Davidson diagonalization with overlap
     ethr =  1.08E-07,  avg # of iterations =  2.4

     total cpu time spent up to now is      163.2 secs

     total energy              =     -78.60787424 Ry
     estimated scf accuracy    <       0.00002420 Ry

     iteration # 31     ecut=    80.00 Ry     beta= 0.70
     Davidson diagonalization with overlap
     ethr =  8.07E-08,  avg # of iterations =  1.4

     total cpu time spent up to now is      164.1 secs

     total energy              =     -78.60787595 Ry
     estimated scf accuracy    <       0.00000565 Ry

     iteration # 32     ecut=    80.00 Ry     beta= 0.70
     Davidson diagonalization with overlap
     ethr =  1.88E-08,  avg # of iterations =  1.5

     total cpu time spent up to now is      165.0 secs

     total energy              =     -78.60787639 Ry
     estimated scf accuracy    <       0.00000070 Ry

     iteration # 33     ecut=    80.00 Ry     beta= 0.70
     Davidson diagonalization with overlap
     ethr =  2.34E-09,  avg # of iterations =  3.1

     total cpu time spent up to now is      166.1 secs

     total energy              =     -78.60787649 Ry
     estimated scf accuracy    <       0.00000037 Ry

     iteration # 34     ecut=    80.00 Ry     beta= 0.70
     Davidson diagonalization with overlap
     ethr =  1.23E-09,  avg # of iterations =  1.3

     total cpu time spent up to now is      167.0 secs

     total energy              =     -78.60787651 Ry
     estimated scf accuracy    <       0.00000002 Ry

     iteration # 35     ecut=    80.00 Ry     beta= 0.70
     Davidson diagonalization with overlap
     ethr =  6.17E-11,  avg # of iterations =  4.3

     total cpu time spent up to now is      168.1 secs

     End of self-consistent calculation

          k = 0.0000 0.0000 0.0000 (  8861 PWs)   bands (ev):

   -32.3952 -32.3219  -2.9677  -2.5753  -1.0690   0.1538   0.9991   2.7080
     5.6488   8.1762  10.1474  12.3749  14.6831  18.8670  20.4765  25.1304
    26.3050  26.3050  26.8267

          k = 0.0000 0.0000-0.0937 (  8784 PWs)   bands (ev):

   -32.3952 -32.3219  -2.9677  -2.5753  -1.0689   0.1518   1.0043   2.6984
     5.6893   8.0034  10.8204  11.4831  15.5580  17.5791  22.5984  22.9028
    26.3061  26.3063  27.0320

          k = 0.0000 0.1361 0.0000 (  8797 PWs)   bands (ev):

   -32.3757 -32.3044  -2.6329  -2.2421  -0.7379   0.4346   1.3252   3.0315
     5.9484   8.4727  10.2896  12.6474  14.8974  19.0631  20.3193  22.5742
    22.8557  23.3021  24.2549

          k = 0.0000 0.1361-0.0937 (  8806 PWs)   bands (ev):

   -32.3757 -32.3044  -2.6329  -2.2420  -0.7377   0.4316   1.3326   3.0190
     5.9977   8.2666  10.9734  11.7544  15.8217  17.6912  22.0100  22.3909
    22.7132  23.2649  23.9066

          k = 0.0000 0.2723 0.0000 (  8823 PWs)   bands (ev):

   -32.3248 -32.2584  -1.6327  -1.2468   0.2502   1.2726   2.2978   3.9944
     6.8373   9.3510  10.6946  13.4349  15.3729  17.5920  17.7538  18.4278
    19.0984  20.2854  20.8506

          k = 0.0000 0.2723-0.0937 (  8814 PWs)   bands (ev):

   -32.3248 -32.2584  -1.6327  -1.2468   0.2514   1.2657   2.3129   3.9710
     6.9208   9.0139  11.4524  12.5219  16.3762  17.2359  17.7701  18.1280
    19.1628  19.6481  21.0342

          k = 0.0000 0.4084 0.0000 (  8811 PWs)   bands (ev):

   -32.2618 -32.2011   0.0200   0.3975   1.8778   2.6561   3.8947   5.5652
     8.2542  10.6732  11.2136  12.7919  13.2695  14.3323  14.5803  15.2466
    16.4727  17.3996  18.0500

          k = 0.0000 0.4084-0.0937 (  8796 PWs)   bands (ev):

   -32.2618 -32.2011   0.0201   0.3971   1.8837   2.6388   3.9272   5.5142
     8.4392   9.9979  12.1052  12.7185  13.2996  13.7898  14.5879  15.2000
    16.4707  17.8657  18.4635

          k = 0.0000 0.5445 0.0000 (  8769 PWs)   bands (ev):

   -32.2108 -32.1543   2.3018   2.6657   4.0939   4.5709   6.0155   7.4600
     8.8262   9.2308   9.4429  10.5561  11.0958  12.4189  12.8132  13.6685
    14.1672  16.7349  17.2354

          k = 0.0000 0.5445-0.0937 (  8754 PWs)   bands (ev):

   -32.2108 -32.1543   2.3023   2.6639   4.1244   4.5187   6.0924   7.3406
     8.8120   9.2415   9.6908  10.5029  10.8811  12.4986  12.6503  13.7503
    14.5606  16.1733  17.0696

          k = 0.0000-0.6807 0.0000 (  8762 PWs)   bands (ev):

   -32.1913 -32.1363   5.1241   5.1599   5.4247   5.5280   6.4696   6.7361
     7.1118   7.4979   8.9970   9.3967  10.8250  10.8704  12.4660  13.4535
    14.5546  15.6511  16.1874

          k = 0.0000-0.6807-0.0937 (  8764 PWs)   bands (ev):

   -32.1913 -32.1363   5.1204   5.1623   5.4308   5.5235   6.4534   6.8336
     6.9799   7.5477   9.0681   9.3406  10.6228  10.9937  12.7430  13.6327
    13.7952  15.8185  16.9022

          k = 0.1179 0.2042 0.0000 (  8819 PWs)   bands (ev):

   -32.3406 -32.2727  -1.9654  -1.5778  -0.0783   0.9941   1.9747   3.6748
     6.5432   9.0611  10.5675  13.1853  15.2743  19.1421  19.5646  20.2207
    20.3352  20.5243  20.7835

          k = 0.1179 0.2042-0.0937 (  8794 PWs)   bands (ev):

   -32.3406 -32.2727  -1.9654  -1.5778  -0.0775   0.9886   1.9869   3.6555
     6.6137   8.7741  11.2938  12.2795  16.2920  17.7564  20.0579  20.2382
    20.4418  20.4845  20.7972

          k = 0.1179 0.3403 0.0000 (  8788 PWs)   bands (ev):

   -32.2837 -32.2209  -0.6389  -0.2580   1.2300   2.1059   3.2607   4.9445
     7.7068  10.2038  11.0837  14.0406  15.2599  15.6392  15.9137  16.8500
    17.4238  18.1752  18.4965

          k = 0.1179 0.3403-0.0937 (  8802 PWs)   bands (ev):

   -32.2837 -32.2209  -0.6388  -0.2581   1.2334   2.0934   3.2852   4.9067
     7.8392   9.6839  11.9732  13.1551  15.4480  15.5744  16.2986  16.8930
    17.6756  18.2180  18.3515

          k = 0.1179 0.4765 0.0000 (  8769 PWs)   bands (ev):

   -32.2267 -32.1688   1.3290   1.6993   3.1583   3.7581   5.1429   6.7701
     9.2438  10.7597  11.2467  11.4363  12.1390  12.8279  13.5889  14.6429
    15.7106  16.1630  17.1731

          k = 0.1179 0.4765-0.0937 (  8768 PWs)   bands (ev):

   -32.2267 -32.1688   1.3293   1.6983   3.1734   3.7267   5.1937   6.6870
     9.5730  10.3813  11.0108  11.3991  12.5679  12.9877  13.5835  14.6633
    15.3341  15.9379  17.4407

          k = 0.1179 0.6126 0.0000 (  8766 PWs)   bands (ev):

   -32.1915 -32.1362   3.9045   4.2546   5.5718   5.9484   6.8227   7.2006
     7.8789   8.5510   9.1173   9.7100  11.0092  12.0244  12.4798  13.5694
    14.5303  15.6218  16.4213

          k = 0.1179 0.6126-0.0937 (  8766 PWs)   bands (ev):

   -32.1915 -32.1362   3.9055   4.2514   5.6577   5.8215   6.9194   7.1424
     7.9942   8.3981   9.0726   9.7906  11.0863  12.1080  12.3465  13.3050
    14.9201  15.6367  16.4318

          k = 0.2358 0.4084 0.0000 (  8772 PWs)   bands (ev):

   -32.2328 -32.1743   1.0031   1.3754   2.8416   3.4888   4.8393   6.4891
     9.0812  11.4882  11.6870  13.5737  13.6807  13.8845  14.2748  14.8398
    15.0896  15.1359  15.7594

          k = 0.2358 0.4084-0.0937 (  8782 PWs)   bands (ev):

   -32.2328 -32.1743   1.0034   1.3746   2.8534   3.4624   4.8834   6.4186
     9.3465  10.5794  12.8241  13.2831  13.7442  13.9102  14.1664  14.6189
    14.8689  15.2758  15.9081

          k = 0.2358 0.5445 0.0000 (  8755 PWs)   bands (ev):

   -32.1919 -32.1362   3.2692   3.6275   5.0241   5.4247   6.9308   8.3536
     9.7292  10.1306  10.2590  11.3405  11.8359  12.4038  12.8974  13.0927
    13.7756  14.1974  14.6535

          k = 0.2358 0.5445-0.0937 (  8756 PWs)   bands (ev):

   -32.1919 -32.1362   3.2701   3.6248   5.0749   5.3500   7.0185   8.2208
     9.7110  10.1219  10.5459  11.2704  11.6540  12.4830  12.7957  13.0303
    13.8018  14.1702  14.7972

          k = 0.2358 0.6807 0.0000 (  8712 PWs)   bands (ev):

   -32.1762 -32.1216   6.0693   6.1065   6.3644   6.4682   7.3977   7.5572
     8.0226   8.4136   9.8274  10.1640  11.2961  11.3066  12.8364  13.0645
    13.3283  13.6547  14.3905

          k = 0.2358 0.6807-0.0937 (  8764 PWs)   bands (ev):

   -32.1762 -32.1216   6.0660   6.1098   6.3689   6.4624   7.3626   7.6816
     7.8886   8.4457   9.9148  10.1548  11.1371  11.2991  12.8374  13.1530
    13.4751  13.8561  14.3280

          k = 0.3537 0.6126 0.0000 (  8746 PWs)   bands (ev):

   -32.1705 -32.1159   5.8034   6.1375   7.3071   7.6854   8.5405   8.8089
     9.0130   9.1991   9.5665  10.0938  10.3277  10.8279  11.1754  12.1440
    12.8471  13.3577  13.7635

          k = 0.3537 0.6126-0.0937 (  8744 PWs)   bands (ev):

   -32.1705 -32.1159   5.8055   6.1313   7.4580   7.4880   8.6446   8.7996
     8.9892   9.1562   9.7127   9.9410  10.3733  10.6974  11.3193  12.0036
    13.1613  13.3920  13.6826

     the Fermi energy is    14.2891 ev

!    total energy              =     -78.60787651 Ry
     estimated scf accuracy    <          5.5E-09 Ry
     smearing contrib. (-TS)   =       0.00054379 Ry
     internal energy E=F+TS    =     -78.60842030 Ry

     The total energy is F=E-TS. E is the sum of the following terms:
     one-electron contribution =      11.58779815 Ry
     hartree contribution      =      12.27529951 Ry
     xc contribution           =     -27.44821521 Ry
     ewald contribution        =     -75.02330275 Ry

     convergence has been achieved in  35 iterations

     Forces acting on atoms (cartesian axes, Ry/au):

     atom    1 type  1   force =     0.00000000    0.00000000   -0.06700655
     atom    2 type  1   force =     0.00000000   -0.00000000    0.04208808
     atom    3 type  1   force =     0.00000000   -0.00000000    0.06466750
     atom    4 type  1   force =     0.00000000    0.00000000    0.00047214
     atom    5 type  1   force =     0.00000000    0.00000000   -0.03843157
     atom    6 type  1   force =     0.00000000    0.00000000    0.00398266
     atom    7 type  2   force =     0.00000000   -0.00000000   -0.21268574
     atom    8 type  2   force =     0.00000000    0.00000000    0.20691349
     The non-local contrib.  to forces
     atom    1 type  1   force =     0.00000000   -0.00000000   -0.09737114
     atom    2 type  1   force =     0.00000000   -0.00000000    0.05123394
     atom    3 type  1   force =     0.00000000    0.00000000    0.08620607
     atom    4 type  1   force =     0.00000000    0.00000000    0.01370663
     atom    5 type  1   force =     0.00000000   -0.00000000   -0.05755783
     atom    6 type  1   force =     0.00000000    0.00000000   -0.00685331
     atom    7 type  2   force =     0.00000000   -0.00000000   -0.01848478
     atom    8 type  2   force =     0.00000000   -0.00000000    0.01676123
     The ionic contribution  to forces
     atom    1 type  1   force =     0.00000000   -0.00000000   -3.37840685
     atom    2 type  1   force =    -0.00000000    0.00000000    2.98928361
     atom    3 type  1   force =     0.00000000   -0.00000000    3.33396423
     atom    4 type  1   force =     0.00000000   -0.00000000   -0.00208164
     atom    5 type  1   force =    -0.00000000    0.00000000   -2.97389411
     atom    6 type  1   force =    -0.00000003    0.00000001    0.02316814
     atom    7 type  2   force =     0.00000001   -0.00000000   -3.49662030
     atom    8 type  2   force =     0.00000002   -0.00000001    3.50458692
     The local contribution  to forces
     atom    1 type  1   force =    -0.00000000    0.00000000    3.40579592
     atom    2 type  1   force =    -0.00000000   -0.00000000   -2.99316460
     atom    3 type  1   force =    -0.00000001    0.00000000   -3.35329069
     atom    4 type  1   force =    -0.00000001    0.00000001   -0.01029512
     atom    5 type  1   force =     0.00000001   -0.00000001    2.98753244
     atom    6 type  1   force =     0.00000002   -0.00000001   -0.01274615
     atom    7 type  2   force =     0.00000000    0.00000000    3.30235050
     atom    8 type  2   force =     0.00000044   -0.00000025   -3.31447108
     The core correction contribution to forces
     atom    1 type  1   force =    -0.00000000    0.00000000    0.00289563
     atom    2 type  1   force =     0.00000000   -0.00000000   -0.00524336
     atom    3 type  1   force =    -0.00000000    0.00000000   -0.00221808
     atom    4 type  1   force =    -0.00000000    0.00000000   -0.00071993
     atom    5 type  1   force =     0.00000000   -0.00000000    0.00555152
     atom    6 type  1   force =     0.00000000   -0.00000000    0.00031682
     atom    7 type  2   force =     0.00000000    0.00000000    0.00000000
     atom    8 type  2   force =     0.00000000    0.00000000    0.00000000
     The Hubbard contrib.    to forces
     atom    1 type  1   force =     0.00000000    0.00000000    0.00000000
     atom    2 type  1   force =     0.00000000    0.00000000    0.00000000
     atom    3 type  1   force =     0.00000000    0.00000000    0.00000000
     atom    4 type  1   force =     0.00000000    0.00000000    0.00000000
     atom    5 type  1   force =     0.00000000    0.00000000    0.00000000
     atom    6 type  1   force =     0.00000000    0.00000000    0.00000000
     atom    7 type  2   force =     0.00000000    0.00000000    0.00000000
     atom    8 type  2   force =     0.00000000    0.00000000    0.00000000
     The SCF correction term to forces
     atom    1 type  1   force =     0.00000000   -0.00000000    0.00007925
     atom    2 type  1   force =    -0.00000000    0.00000000   -0.00002215
     atom    3 type  1   force =     0.00000000   -0.00000000    0.00000534
     atom    4 type  1   force =     0.00000000   -0.00000000   -0.00013844
     atom    5 type  1   force =     0.00000000   -0.00000000   -0.00006422
     atom    6 type  1   force =     0.00000000   -0.00000000    0.00009652
     atom    7 type  2   force =    -0.00000000    0.00000000    0.00006820
     atom    8 type  2   force =     0.00000000   -0.00000000    0.00003577

     Total force =     0.316204     Total SCF correction =     0.000213


     Computing stress (Cartesian axis) and pressure

          total   stress  (Ry/bohr**3)                   (kbar)     P=      826.82
   0.00510571   0.00000000   0.00000000          751.08        0.00        0.00
   0.00000000   0.00510571  -0.00000000            0.00      751.08       -0.00
[...]

     iteration # 12     ecut=    80.00 Ry     beta= 0.70
     Davidson diagonalization with overlap
     c_bands:  2 eigenvalues not converged
     ethr =  3.45E-06,  avg # of iterations =  8.2

     total cpu time spent up to now is      434.4 secs

     total energy              =     -79.09853429 Ry
     estimated scf accuracy    <       0.00103394 Ry

     iteration # 13     ecut=    80.00 Ry     beta= 0.70
     Davidson diagonalization with overlap
     ethr =  3.45E-06,  avg # of iterations =  2.8

     total cpu time spent up to now is      435.1 secs

     total energy              =     -79.09853239 Ry
     estimated scf accuracy    <       0.00116951 Ry

     iteration # 14     ecut=    80.00 Ry     beta= 0.70
     Davidson diagonalization with overlap
     ethr =  3.45E-06,  avg # of iterations =  2.1

     total cpu time spent up to now is      435.7 secs

     total energy              =     -79.09859764 Ry
     estimated scf accuracy    <       0.00070015 Ry

     iteration # 15     ecut=    80.00 Ry     beta= 0.70
     Davidson diagonalization with overlap
     ethr =  2.33E-06,  avg # of iterations =  1.1

     total cpu time spent up to now is      436.3 secs

     total energy              =     -79.09860197 Ry
     estimated scf accuracy    <       0.00040192 Ry

     iteration # 16     ecut=    80.00 Ry     beta= 0.70
     Davidson diagonalization with overlap
     ethr =  1.34E-06,  avg # of iterations =  1.1

     total cpu time spent up to now is      436.9 secs

     total energy              =     -79.09860079 Ry
     estimated scf accuracy    <       0.00023065 Ry

     iteration # 17     ecut=    80.00 Ry     beta= 0.70
     Davidson diagonalization with overlap
     ethr =  7.69E-07,  avg # of iterations =  1.6

     total cpu time spent up to now is      437.5 secs

     total energy              =     -79.09859744 Ry
     estimated scf accuracy    <       0.00008416 Ry

     iteration # 18     ecut=    80.00 Ry     beta= 0.70
     Davidson diagonalization with overlap
     ethr =  2.81E-07,  avg # of iterations =  2.6

     total cpu time spent up to now is      438.1 secs

     total energy              =     -79.09860358 Ry
     estimated scf accuracy    <       0.00000575 Ry

     iteration # 19     ecut=    80.00 Ry     beta= 0.70
     Davidson diagonalization with overlap
     ethr =  1.92E-08,  avg # of iterations =  2.9

     total cpu time spent up to now is      438.7 secs

     total energy              =     -79.09860342 Ry
     estimated scf accuracy    <       0.00001232 Ry

     iteration # 20     ecut=    80.00 Ry     beta= 0.70
     Davidson diagonalization with overlap
     ethr =  1.92E-08,  avg # of iterations =  1.9

     total cpu time spent up to now is      439.3 secs

     total energy              =     -79.09860351 Ry
     estimated scf accuracy    <       0.00000191 Ry

     iteration # 21     ecut=    80.00 Ry     beta= 0.70
     Davidson diagonalization with overlap
     ethr =  6.38E-09,  avg # of iterations =  2.9

     total cpu time spent up to now is      440.0 secs

     total energy              =     -79.09860367 Ry
     estimated scf accuracy    <       0.00000027 Ry

     iteration # 22     ecut=    80.00 Ry     beta= 0.70
     Davidson diagonalization with overlap
     ethr =  9.11E-10,  avg # of iterations =  2.4

     total cpu time spent up to now is      440.6 secs

     total energy              =     -79.09860369 Ry
     estimated scf accuracy    <       0.00000016 Ry

     iteration # 23     ecut=    80.00 Ry     beta= 0.70
     Davidson diagonalization with overlap
     ethr =  5.25E-10,  avg # of iterations =  1.1

     total cpu time spent up to now is      441.2 secs

     total energy              =     -79.09860368 Ry
     estimated scf accuracy    <       0.00000009 Ry

     iteration # 24     ecut=    80.00 Ry     beta= 0.70
     Davidson diagonalization with overlap
     ethr =  3.13E-10,  avg # of iterations =  2.5

     total cpu time spent up to now is      441.8 secs

     total energy              =     -79.09860369 Ry
     estimated scf accuracy    <          4.4E-10 Ry

     iteration # 25     ecut=    80.00 Ry     beta= 0.70
     Davidson diagonalization with overlap
     ethr =  1.47E-12,  avg # of iterations =  6.8

     total cpu time spent up to now is      442.7 secs

     total energy              =     -79.09860369 Ry
     estimated scf accuracy    <          5.5E-09 Ry

     iteration # 26     ecut=    80.00 Ry     beta= 0.70
     Davidson diagonalization with overlap
     ethr =  1.47E-12,  avg # of iterations =  3.2

     total cpu time spent up to now is      443.4 secs

     total energy              =     -79.09860369 Ry
     estimated scf accuracy    <          1.6E-09 Ry

     iteration # 27     ecut=    80.00 Ry     beta= 0.70
     Davidson diagonalization with overlap
     ethr =  1.47E-12,  avg # of iterations =  1.4

     total cpu time spent up to now is      443.9 secs

     total energy              =     -79.09860369 Ry
     estimated scf accuracy    <          6.5E-10 Ry

     iteration # 28     ecut=    80.00 Ry     beta= 0.70
     Davidson diagonalization with overlap
     ethr =  1.47E-12,  avg # of iterations =  2.7

     total cpu time spent up to now is      444.6 secs

     End of self-consistent calculation

          k = 0.0000 0.0000 0.0000 (  6771 PWs)   bands (ev):

   -33.1160 -33.1113  -4.5841  -3.6564  -2.2785  -1.2355  -0.3521   1.9864
     4.5730   6.8954   7.5469  10.7850  13.4350  16.6700  17.2832  21.9677
    23.6397  25.1182  25.1228

          k = 0.0000 0.0000-0.0868 (  6808 PWs)   bands (ev):

   -33.1160 -33.1113  -4.5841  -3.6564  -2.2785  -1.2356  -0.3519   1.9851
     4.5852   6.7685   7.7208  10.5983  14.0245  15.3258  18.8709  20.4903
    25.1176  25.1259  25.1923

          k = 0.0000 0.1352 0.0000 (  6771 PWs)   bands (ev):

   -33.1015 -33.0968  -4.2533  -3.3271  -1.9517  -0.9160  -0.0290   2.3058
     4.8756   7.1525   7.8397  11.0686  13.6221  16.7982  17.4577  20.7736
    21.3554  22.2004  22.6721

          k = 0.0000 0.1352-0.0868 (  6752 PWs)   bands (ev):

   -33.1015 -33.0968  -4.2533  -3.3271  -1.9517  -0.9161  -0.0286   2.3041
     4.8906   7.0156   8.0284  10.8595  14.2723  15.4308  19.0009  20.4457
    20.8653  21.6199  22.7039

          k = 0.0000 0.2705 0.0000 (  6747 PWs)   bands (ev):

   -33.0634 -33.0588  -3.2649  -2.3434  -0.9757   0.0379   0.9356   3.2561
     5.7790   7.9209   8.7020  11.8740  14.0651  15.7959  16.3531  17.0802
    17.7118  18.3418  19.1835

          k = 0.0000 0.2705-0.0868 (  6754 PWs)   bands (ev):

   -33.0634 -33.0588  -3.2649  -2.3434  -0.9756   0.0374   0.9367   3.2526
     5.8047   7.7517   8.9374  11.5940  14.8274  15.4062  16.1203  16.6724
    17.7065  18.6131  19.4510

          k = 0.0000 0.4057 0.0000 (  6733 PWs)   bands (ev):

   -33.0161 -33.0116  -1.6310  -0.7175   0.6359   1.6112   2.5244   4.8023
     7.2580   9.1752   9.9042  11.1569  12.0815  12.9826  13.4057  13.9707
    14.9633  15.6234  17.0399

          k = 0.0000 0.4057-0.0868 (  6726 PWs)   bands (ev):

   -33.0161 -33.0116  -1.6310  -0.7176   0.6363   1.6093   2.5275   4.7944
     7.3106   8.9336  10.1890  11.1676  12.1117  12.7785  13.2439  14.0387
    14.9476  16.5091  16.7746

          k = 0.0000 0.5410 0.0000 (  6698 PWs)   bands (ev):

   -32.9777 -32.9732   0.6272   1.5269   2.8523   3.7727   4.6711   6.4179
     7.2850   8.1958   9.0187   9.4522  10.0087  10.8959  11.1455  12.3844
    13.2539  15.1324  15.5946

          k = 0.0000 0.5410-0.0868 (  6684 PWs)   bands (ev):

   -32.9777 -32.9732   0.6272   1.5268   2.8535   3.7676   4.6794   6.4094
     7.2769   8.1873   9.0934   9.5656   9.8299  10.7821  11.1437  12.7076
    13.2621  14.5171  15.7223

          k = 0.0000-0.6762 0.0000 (  6674 PWs)   bands (ev):

   -32.9630 -32.9585   3.4252   3.4901   4.2141   4.4690   5.2985   5.9961
     6.1013   6.9763   7.5706   7.9314   9.9276  10.0316  11.5127  12.1632
    13.0071  13.9646  15.2573

          k = 0.0000-0.6762-0.0868 (  6656 PWs)   bands (ev):

   -32.9630 -32.9585   3.4252   3.4901   4.2144   4.4687   5.2986   5.9896
     6.1093   6.9655   7.5995   7.9140   9.8522  10.0841  11.6524  12.2648
    12.5438  14.3246  15.3961

          k = 0.1171 0.2029 0.0000 (  6769 PWs)   bands (ev):

   -33.0752 -33.0706  -3.5937  -2.6706  -1.3003  -0.2793   0.6150   2.9409
     5.4788   7.6659   8.4186  11.6206  13.9593  16.9365  17.5225  18.4804
    18.6760  19.1111  19.4076

          k = 0.1171 0.2029-0.0868 (  6758 PWs)   bands (ev):

   -33.0752 -33.0706  -3.5937  -2.6706  -1.3003  -0.2796   0.6157   2.9380
     5.5005   7.5079   8.6379  11.3637  14.7271  15.5872  18.2081  18.4503
    19.0372  19.1918  19.5530

          k = 0.1171 0.3381 0.0000 (  6754 PWs)   bands (ev):

   -33.0325 -33.0279  -2.2825  -1.3658  -0.0063   0.9846   1.8923   4.1925
     6.6741   8.6854   9.5261  12.4554  13.7607  14.2829  14.6835  15.5341
    16.2233  16.7486  17.0017

          k = 0.1171 0.3381-0.0868 (  6748 PWs)   bands (ev):

   -33.0325 -33.0279  -2.2825  -1.3658  -0.0061   0.9834   1.8945   4.1866
     6.7140   8.4795   9.8111  12.1619  13.7342  14.3249  15.1759  15.6101
    16.0461  16.6023  16.9533

          k = 0.1171 0.4733 0.0000 (  6699 PWs)   bands (ev):

   -32.9896 -32.9851  -0.3361   0.5703   1.9104   2.8546   3.7735   5.9755
     8.3493   9.1934  10.0460  10.1731  11.2692  11.5151  12.1388  13.1264
    14.4208  14.8900  15.5118

          k = 0.1171 0.4733-0.0868 (  6704 PWs)   bands (ev):

   -32.9896 -32.9851  -0.3361   0.5702   1.9111   2.8513   3.7789   5.9632
     8.4188   9.2049   9.8341  10.1621  11.3556  11.7632  12.0856  13.1448
    14.0106  14.7605  15.8356

          k = 0.1171 0.6086 0.0000 (  6672 PWs)   bands (ev):

   -32.9631 -32.9586   2.2164   3.1001   4.3744   5.2604   5.3220   5.8609
     6.5654   7.7789   8.3542   8.7622   9.6272  10.8699  11.5265  12.1675
    13.4281  13.9690  14.8588

          k = 0.1171 0.6086-0.0868 (  6678 PWs)   bands (ev):

   -32.9631 -32.9586   2.2164   3.1000   4.3761   5.2431   5.3336   5.8658
     6.5700   7.7850   8.2990   8.7991   9.6389  10.9858  11.4619  11.9386
    13.7306  14.1175  14.7353

          k = 0.2342 0.4057 0.0000 (  6701 PWs)   bands (ev):

   -32.9942 -32.9897  -0.6586   0.2497   1.5938   2.5465   3.4662   5.7096
     8.1335   9.9405  10.6521  11.7350  12.1640  12.5842  13.2490  13.6169
    13.9633  14.3234  14.5222

          k = 0.2342 0.4057-0.0868 (  6702 PWs)   bands (ev):

   -32.9942 -32.9897  -0.6586   0.2496   1.5944   2.5436   3.4709   5.6986
     8.2058   9.6566  10.9817  11.6904  12.2151  12.5788  13.2834  13.5338
    13.6956  14.2610  14.6395

          k = 0.2342 0.5410 0.0000 (  6680 PWs)   bands (ev):

   -32.9632 -32.9587   1.5849   2.4784   3.7916   4.6925   5.5861   7.3112
     8.1597   9.0378   9.8301  10.2992  10.8017  10.9450  11.4919  11.7581
    12.2089  13.3587  13.4955

          k = 0.2342 0.5410-0.0868 (  6682 PWs)   bands (ev):

   -32.9632 -32.9587   1.5849   2.4783   3.7932   4.6861   5.5962   7.3009
     8.1511   9.0307   9.8979  10.4471  10.5662  11.0370  11.4415  11.5794
    12.3247  13.4283  13.6389

          k = 0.2342 0.6762 0.0000 (  6712 PWs)   bands (ev):

   -32.9513 -32.9468   4.3617   4.4278   5.1384   5.4033   6.2127   6.8973
     7.0044   7.8785   8.4330   8.7678  10.0354  10.3513  11.5705  12.1390
    12.4902  12.8661  13.2788

          k = 0.2342 0.6762-0.0868 (  6678 PWs)   bands (ev):

   -32.9513 -32.9468   4.3617   4.4278   5.1387   5.4029   6.2132   6.8954
     7.0069   7.8655   8.4610   8.7586  10.0277  10.3386  11.5147  12.2297
    12.6430  12.8662  13.1916

          k = 0.3514 0.6086 0.0000 (  6682 PWs)   bands (ev):

   -32.9468 -32.9423   4.1000   4.9615   6.1814   7.0456   7.1066   7.1790
     7.5144   8.0540   8.3901   9.1685   9.6842   9.8266  10.6425  10.9816
    11.7616  11.9225  12.6081

          k = 0.3514 0.6086-0.0868 (  6702 PWs)   bands (ev):

   -32.9468 -32.9423   4.1000   4.9614   6.1839   7.0191   7.1336   7.1695
     7.5232   8.0508   8.3975   9.1768   9.6230   9.8615  10.7420  10.8578
    11.7728  11.9299  12.9324

     the Fermi energy is    13.1948 ev

!    total energy              =     -79.09860369 Ry
     estimated scf accuracy    <          5.5E-11 Ry
     smearing contrib. (-TS)   =      -0.00142139 Ry
     internal energy E=F+TS    =     -79.09718230 Ry

     The total energy is F=E-TS. E is the sum of the following terms:
     one-electron contribution =      18.93950714 Ry
     hartree contribution      =       7.08603908 Ry
     xc contribution           =     -27.08370071 Ry
     ewald contribution        =     -78.03902781 Ry

     convergence has been achieved in  28 iterations

     Forces acting on atoms (cartesian axes, Ry/au):

     atom    1 type  1   force =     0.00000000   -0.00000000   -0.00018311
     atom    2 type  1   force =     0.00000000   -0.00000000    0.00051342
     atom    3 type  1   force =     0.00000000    0.00000000   -0.00011436
     atom    4 type  1   force =     0.00000000    0.00000000    0.00008340
     atom    5 type  1   force =     0.00000000    0.00000000    0.00028710
     atom    6 type  1   force =     0.00000000    0.00000000   -0.00009842
     atom    7 type  2   force =     0.00000000   -0.00000000   -0.00006876
     atom    8 type  2   force =     0.00000000    0.00000000   -0.00041928
     The non-local contrib.  to forces
     atom    1 type  1   force =     0.00000000   -0.00000000   -0.06673519
     atom    2 type  1   force =     0.00000000    0.00000000   -0.00200954
     atom    3 type  1   force =     0.00000000    0.00000000    0.04912620
     atom    4 type  1   force =    -0.00000000   -0.00000000    0.02446802
     atom    5 type  1   force =    -0.00000000   -0.00000000   -0.00586827
     atom    6 type  1   force =     0.00000000    0.00000000   -0.00334665
     atom    7 type  2   force =     0.00000000   -0.00000000   -0.02413334
     atom    8 type  2   force =     0.00000000   -0.00000000    0.02459770
     The ionic contribution  to forces
     atom    1 type  1   force =     0.00000000   -0.00000000    2.21733092
     atom    2 type  1   force =    -0.00000000    0.00000000   -1.21793452
     atom    3 type  1   force =     0.00000000   -0.00000000   -2.18914959
     atom    4 type  1   force =     0.00000000   -0.00000000   -0.06685106
     atom    5 type  1   force =    -0.00000000    0.00000000    1.16243454
     atom    6 type  1   force =    -0.00000000    0.00000000    0.03294268
     atom    7 type  2   force =     0.00000000   -0.00000000   -0.10195383
     atom    8 type  2   force =     0.00000000   -0.00000000    0.16318086
     The local contribution  to forces
     atom    1 type  1   force =     0.00000000    0.00000000   -2.15212948
     atom    2 type  1   force =    -0.00000000   -0.00000000    1.22027108
     atom    3 type  1   force =    -0.00000001    0.00000000    2.14038075
     atom    4 type  1   force =    -0.00000001    0.00000001    0.04368814
     atom    5 type  1   force =     0.00000001   -0.00000001   -1.15651609
     atom    6 type  1   force =     0.00000001   -0.00000001   -0.02988917
     atom    7 type  2   force =    -0.00000000    0.00000000    0.12600892
     atom    8 type  2   force =     0.00000044   -0.00000026   -0.18819286
     The core correction contribution to forces
     atom    1 type  1   force =    -0.00000000    0.00000000    0.00134071
     atom    2 type  1   force =     0.00000000   -0.00000000    0.00019479
     atom    3 type  1   force =    -0.00000000    0.00000000   -0.00046059
     atom    4 type  1   force =    -0.00000000    0.00000000   -0.00121892
     atom    5 type  1   force =     0.00000000   -0.00000000    0.00023278
     atom    6 type  1   force =     0.00000000   -0.00000000    0.00018968
     atom    7 type  2   force =     0.00000000    0.00000000    0.00000000
     atom    8 type  2   force =     0.00000000    0.00000000    0.00000000
     The Hubbard contrib.    to forces
     atom    1 type  1   force =     0.00000000    0.00000000    0.00000000
     atom    2 type  1   force =     0.00000000    0.00000000    0.00000000
     atom    3 type  1   force =     0.00000000    0.00000000    0.00000000
     atom    4 type  1   force =     0.00000000    0.00000000    0.00000000
     atom    5 type  1   force =     0.00000000    0.00000000    0.00000000
     atom    6 type  1   force =     0.00000000    0.00000000    0.00000000
     atom    7 type  2   force =     0.00000000    0.00000000    0.00000000
     atom    8 type  2   force =     0.00000000    0.00000000    0.00000000
     The SCF correction term to forces
     atom    1 type  1   force =     0.00000000   -0.00000000    0.00000968
     atom    2 type  1   force =    -0.00000000   -0.00000000   -0.00000864
     atom    3 type  1   force =     0.00000000   -0.00000000   -0.00001138
     atom    4 type  1   force =    -0.00000000    0.00000000   -0.00000304
     atom    5 type  1   force =    -0.00000000    0.00000000    0.00000389
     atom    6 type  1   force =    -0.00000000    0.00000000    0.00000479
     atom    7 type  2   force =     0.00000000   -0.00000000    0.00000924
     atom    8 type  2   force =     0.00000000   -0.00000000   -0.00000525

     Total force =     0.000768     Total SCF correction =     0.000021


     Computing stress (Cartesian axis) and pressure

          total   stress  (Ry/bohr**3)                   (kbar)     P=      499.88
   0.00339559   0.00000000   0.00000000          499.51        0.00        0.00
   0.00000000   0.00339559   0.00000000            0.00      499.51        0.00
   0.00000000   0.00000000   0.00340324            0.00        0.00      500.63


     Writing all to output data dir ./output/SiLi.save/

     init_run     :      2.22s CPU      3.68s WALL (       2 calls)
     electrons    :    340.48s CPU    387.46s WALL (      14 calls)
     update_pot   :      8.38s CPU      8.47s WALL (      12 calls)
     forces       :      7.17s CPU      7.34s WALL (      14 calls)
     stress       :     38.03s CPU     39.51s WALL (      14 calls)

     Called by init_run:
     wfcinit      :      0.96s CPU      2.09s WALL (       2 calls)
     potinit      :      0.57s CPU      0.66s WALL (       2 calls)
     hinit0       :      0.60s CPU      0.70s WALL (       2 calls)

     Called by electrons:
     c_bands      :    308.42s CPU    348.66s WALL (     293 calls)
     sum_band     :     28.08s CPU     33.41s WALL (     293 calls)
     v_of_rho     :      3.48s CPU      4.38s WALL (     307 calls)
     mix_rho      :      0.48s CPU      0.66s WALL (     293 calls)

     Called by c_bands:
     init_us_2    :      6.79s CPU      8.17s WALL (   17248 calls)
     init_us_2:cp :      6.75s CPU      8.14s WALL (   17248 calls)
     cegterg      :    281.40s CPU    317.82s WALL (    8304 calls)

     Called by *egterg:
     cdiaghg      :     20.57s CPU     21.22s WALL (   46778 calls)
     h_psi        :    218.13s CPU    253.98s WALL (   47198 calls)
     g_psi        :      1.36s CPU      1.40s WALL (   38838 calls)

     Called by h_psi:
     h_psi:calbec :     32.73s CPU     35.58s WALL (   47198 calls)
     vloc_psi     :    155.87s CPU    187.98s WALL (   47198 calls)
     add_vuspsi   :     28.37s CPU     29.20s WALL (   47198 calls)

     General routines
     calbec       :     35.78s CPU     38.70s WALL (   49158 calls)
     fft          :      1.56s CPU      2.70s WALL (    3418 calls)
     ffts         :      0.10s CPU      0.22s WALL (     293 calls)
     fftw         :    151.69s CPU    182.85s WALL ( 1191726 calls)

     Parallel routines

     PWSCF        :   6m36.65s CPU   7m27.35s WALL


   This run was terminated on:  18: 1: 9  29Dec2024            

=------------------------------------------------------------------------------=
   JOB DONE.
=------------------------------------------------------------------------------=
