
     Program PWSCF v.7.2 starts on 29Dec2024 at 12:28:40 

     This program is part of the open-source Quantum ESPRESSO suite
     for quantum simulation of materials; please cite
         "P. Giannozzi et al., J. Phys.:Condens. Matter 21 395502 (2009);
         "P. Giannozzi et al., J. Phys.:Condens. Matter 29 465901 (2017);
         "P. Giannozzi et al., J. Chem. Phys. 152 154105 (2020);
          URL http://www.quantum-espresso.org", 
     in publications or presentations arising from this work. More details at
     http://www.quantum-espresso.org/quote

     Parallel version (MPI & OpenMP), running on       8 processor cores
     Number of MPI processes:                 8
     Threads/MPI process:                     1

     MPI processes distributed on     1 nodes
     482586 MiB available memory on the printing compute node when the environment starts

     Waiting for input...
     Reading input from standard input

     Current dimensions of program PWSCF are:
     Max number of different atomic species (ntypx) = 10
     Max number of k-points (npk) =  40000
     Max angular momentum in pseudopotentials (lmaxx) =  4

     R & G space division:  proc/nbgrp/npool/nimage =       8
     Subspace diagonalization in iterative solution of the eigenvalue problem:
     a serial algorithm will be used


     Parallelization info
     --------------------
     sticks:   dense  smooth     PW     G-vecs:    dense   smooth      PW
     Min         144     144     42                 5114     5114     816
     Max         145     145     43                 5117     5117     819
     Sum        1153    1153    341                40925    40925    6545

     Using Slab Decomposition



     bravais-lattice index     =            6
     lattice parameter (alat)  =       6.7219  a.u.
     unit-cell volume          =     423.0758 (a.u.)^3
     number of atoms/cell      =            4
     number of atomic types    =            2
     number of electrons       =        13.00
     number of Kohn-Sham states=           11
     kinetic-energy cutoff     =      80.0000  Ry
     charge density cutoff     =     320.0000  Ry
     scf convergence threshold =      1.0E-08
     mixing beta               =       0.7000
     number of iterations used =            8  plain     mixing
     energy convergence thresh.=      1.0E-04
     force convergence thresh. =      1.0E-03
     press convergence thresh. =      1.0E+00
     Exchange-correlation= PBE
                           (   1   4   3   4   0   0   0)
     nstep                     =           50


     celldm(1)=   6.721866  celldm(2)=   0.000000  celldm(3)=   1.392992
     celldm(4)=   0.000000  celldm(5)=   0.000000  celldm(6)=   0.000000

     crystal axes: (cart. coord. in units of alat)
               a(1) = (   1.000000   0.000000   0.000000 )  
               a(2) = (   0.000000   1.000000   0.000000 )  
               a(3) = (   0.000000   0.000000   1.392992 )  

     reciprocal axes: (cart. coord. in units 2 pi/alat)
               b(1) = (  1.000000  0.000000  0.000000 )  
               b(2) = (  0.000000  1.000000  0.000000 )  
               b(3) = (  0.000000  0.000000  0.717879 )  


     PseudoPot. # 1 for Si read from file:
     ../pseudo/Si_ONCV_PBE_sr.upf
     MD5 check sum: e543d271109d17c80368dfa7c482276d
     Pseudo is Norm-conserving + core correction, Zval =  4.0
     Generated using ONCVPSP code by D. R. Hamann
     Using radial grid of 1510 points,  6 beta functions with: 
                l(1) =   0
                l(2) =   0
                l(3) =   1
                l(4) =   1
                l(5) =   2
                l(6) =   2

     PseudoPot. # 2 for Li read from file:
     ../pseudo/Li_ONCV_PBE_sr.upf
     MD5 check sum: 50ff420e78310ffa21704f3361e624a4
     Pseudo is Norm-conserving, Zval =  3.0
     Generated using ONCVPSP code by D. R. Hamann
     Using radial grid of 1944 points,  4 beta functions with: 
                l(1) =   0
                l(2) =   0
                l(3) =   1
                l(4) =   1

     atomic species   valence    mass     pseudopotential
        Si             4.00    28.08550     Si( 1.00)
        Li             3.00     6.94100     Li( 1.00)

     16 Sym. Ops., with inversion, found



   Cartesian axes

     site n.     atom                  positions (alat units)
         1           Si  tau(   1) = (   0.5000000   0.5000000   0.0000000  )
         2           Li  tau(   2) = (   0.0000000   0.0000000   0.0000000  )
         3           Li  tau(   3) = (   0.0000000   0.0000000   0.6964961  )
         4           Li  tau(   4) = (   0.5000000   0.5000000   0.6964961  )

     number of k points=    60  Marzari-Vanderbilt smearing, width (Ry)=  0.0200
                       cart. coord. in units 2pi/alat
        k(    1) = (   0.0000000   0.0000000   0.0000000), wk =   0.0052083
        k(    2) = (   0.0000000   0.0000000   0.1196465), wk =   0.0104167
        k(    3) = (   0.0000000   0.0000000   0.2392931), wk =   0.0104167
        k(    4) = (   0.0000000   0.0000000  -0.3589396), wk =   0.0052083
        k(    5) = (   0.0000000   0.1250000   0.0000000), wk =   0.0208333
        k(    6) = (   0.0000000   0.1250000   0.1196465), wk =   0.0416667
        k(    7) = (   0.0000000   0.1250000   0.2392931), wk =   0.0416667
        k(    8) = (   0.0000000   0.1250000  -0.3589396), wk =   0.0208333
        k(    9) = (   0.0000000   0.2500000   0.0000000), wk =   0.0208333
        k(   10) = (   0.0000000   0.2500000   0.1196465), wk =   0.0416667
        k(   11) = (   0.0000000   0.2500000   0.2392931), wk =   0.0416667
        k(   12) = (   0.0000000   0.2500000  -0.3589396), wk =   0.0208333
        k(   13) = (   0.0000000   0.3750000   0.0000000), wk =   0.0208333
        k(   14) = (   0.0000000   0.3750000   0.1196465), wk =   0.0416667
        k(   15) = (   0.0000000   0.3750000   0.2392931), wk =   0.0416667
        k(   16) = (   0.0000000   0.3750000  -0.3589396), wk =   0.0208333
        k(   17) = (   0.0000000  -0.5000000   0.0000000), wk =   0.0104167
        k(   18) = (   0.0000000  -0.5000000   0.1196465), wk =   0.0208333
        k(   19) = (   0.0000000  -0.5000000   0.2392931), wk =   0.0208333
        k(   20) = (   0.0000000  -0.5000000  -0.3589396), wk =   0.0104167
        k(   21) = (   0.1250000   0.1250000   0.0000000), wk =   0.0208333
        k(   22) = (   0.1250000   0.1250000   0.1196465), wk =   0.0416667
        k(   23) = (   0.1250000   0.1250000   0.2392931), wk =   0.0416667
        k(   24) = (   0.1250000   0.1250000  -0.3589396), wk =   0.0208333
        k(   25) = (   0.1250000   0.2500000   0.0000000), wk =   0.0416667
        k(   26) = (   0.1250000   0.2500000   0.1196465), wk =   0.0833333
        k(   27) = (   0.1250000   0.2500000   0.2392931), wk =   0.0833333
        k(   28) = (   0.1250000   0.2500000  -0.3589396), wk =   0.0416667
        k(   29) = (   0.1250000   0.3750000   0.0000000), wk =   0.0416667
        k(   30) = (   0.1250000   0.3750000   0.1196465), wk =   0.0833333
        k(   31) = (   0.1250000   0.3750000   0.2392931), wk =   0.0833333
        k(   32) = (   0.1250000   0.3750000  -0.3589396), wk =   0.0416667
        k(   33) = (   0.1250000  -0.5000000   0.0000000), wk =   0.0208333
        k(   34) = (   0.1250000  -0.5000000   0.1196465), wk =   0.0416667
        k(   35) = (   0.1250000  -0.5000000   0.2392931), wk =   0.0416667
        k(   36) = (   0.1250000  -0.5000000  -0.3589396), wk =   0.0208333
        k(   37) = (   0.2500000   0.2500000   0.0000000), wk =   0.0208333
        k(   38) = (   0.2500000   0.2500000   0.1196465), wk =   0.0416667
        k(   39) = (   0.2500000   0.2500000   0.2392931), wk =   0.0416667
        k(   40) = (   0.2500000   0.2500000  -0.3589396), wk =   0.0208333
        k(   41) = (   0.2500000   0.3750000   0.0000000), wk =   0.0416667
        k(   42) = (   0.2500000   0.3750000   0.1196465), wk =   0.0833333
        k(   43) = (   0.2500000   0.3750000   0.2392931), wk =   0.0833333
        k(   44) = (   0.2500000   0.3750000  -0.3589396), wk =   0.0416667
        k(   45) = (   0.2500000  -0.5000000   0.0000000), wk =   0.0208333
        k(   46) = (   0.2500000  -0.5000000   0.1196465), wk =   0.0416667
        k(   47) = (   0.2500000  -0.5000000   0.2392931), wk =   0.0416667
        k(   48) = (   0.2500000  -0.5000000  -0.3589396), wk =   0.0208333
        k(   49) = (   0.3750000   0.3750000   0.0000000), wk =   0.0208333
        k(   50) = (   0.3750000   0.3750000   0.1196465), wk =   0.0416667
        k(   51) = (   0.3750000   0.3750000   0.2392931), wk =   0.0416667
        k(   52) = (   0.3750000   0.3750000  -0.3589396), wk =   0.0208333
        k(   53) = (   0.3750000  -0.5000000   0.0000000), wk =   0.0208333
        k(   54) = (   0.3750000  -0.5000000   0.1196465), wk =   0.0416667
        k(   55) = (   0.3750000  -0.5000000   0.2392931), wk =   0.0416667
        k(   56) = (   0.3750000  -0.5000000  -0.3589396), wk =   0.0208333
        k(   57) = (  -0.5000000  -0.5000000   0.0000000), wk =   0.0052083
        k(   58) = (  -0.5000000  -0.5000000   0.1196465), wk =   0.0104167
        k(   59) = (  -0.5000000  -0.5000000   0.2392931), wk =   0.0104167
        k(   60) = (  -0.5000000  -0.5000000  -0.3589396), wk =   0.0052083

     Dense  grid:    40925 G-vectors     FFT dimensions: (  40,  40,  54)

     Estimated max dynamical RAM per process >      21.95 MB

     Estimated total dynamical RAM >     175.61 MB

     Initial potential from superposition of free atoms

     starting charge      12.9857, renormalised to      13.0000
     Starting wfcs are   10 randomized atomic wfcs +    1 random wfcs

     total cpu time spent up to now is        1.2 secs

     Self-consistent Calculation

     iteration #  1     ecut=    80.00 Ry     beta= 0.70
     Davidson diagonalization with overlap
     ethr =  1.00E-02,  avg # of iterations =  6.0

     Threshold (ethr) on eigenvalues was too large:
     Diagonalizing with lowered threshold

     Davidson diagonalization with overlap
     ethr =  2.83E-04,  avg # of iterations =  3.4

     total cpu time spent up to now is        3.1 secs

     total energy              =     -51.61419127 Ry
     estimated scf accuracy    <       0.03465438 Ry

     iteration #  2     ecut=    80.00 Ry     beta= 0.70
     Davidson diagonalization with overlap
     ethr =  2.67E-04,  avg # of iterations =  2.2

     total cpu time spent up to now is        3.8 secs

     total energy              =     -51.61670513 Ry
     estimated scf accuracy    <       0.03794945 Ry

     iteration #  3     ecut=    80.00 Ry     beta= 0.70
     Davidson diagonalization with overlap
     ethr =  2.67E-04,  avg # of iterations =  1.9

     total cpu time spent up to now is        4.4 secs

     total energy              =     -51.62471515 Ry
     estimated scf accuracy    <       0.00104629 Ry

     iteration #  4     ecut=    80.00 Ry     beta= 0.70
     Davidson diagonalization with overlap
     ethr =  8.05E-06,  avg # of iterations =  3.5

     total cpu time spent up to now is        5.2 secs

     total energy              =     -51.62487421 Ry
     estimated scf accuracy    <       0.00001138 Ry

     iteration #  5     ecut=    80.00 Ry     beta= 0.70
     Davidson diagonalization with overlap
     ethr =  8.75E-08,  avg # of iterations =  3.4

     total cpu time spent up to now is        5.9 secs

     total energy              =     -51.62487848 Ry
     estimated scf accuracy    <       0.00000042 Ry

     iteration #  6     ecut=    80.00 Ry     beta= 0.70
     Davidson diagonalization with overlap
     ethr =  3.25E-09,  avg # of iterations =  2.2

     total cpu time spent up to now is        6.5 secs

     total energy              =     -51.62487854 Ry
     estimated scf accuracy    <       0.00000003 Ry

     iteration #  7     ecut=    80.00 Ry     beta= 0.70
     Davidson diagonalization with overlap
     ethr =  2.39E-10,  avg # of iterations =  2.0

     total cpu time spent up to now is        7.1 secs

     End of self-consistent calculation

          k = 0.0000 0.0000 0.0000 (  5159 PWs)   bands (ev):

   -43.7043 -42.6323 -42.3162  -4.6235   0.8551   3.6298   4.6646   4.6646
     8.3778   9.5354   9.9937

          k = 0.0000 0.0000 0.1196 (  5143 PWs)   bands (ev):

   -43.7042 -42.6323 -42.3163  -4.5934   0.4433   4.3947   4.7582   4.7582
     8.5057   9.3505   9.3810

          k = 0.0000 0.0000 0.2393 (  5138 PWs)   bands (ev):

   -43.7040 -42.6323 -42.3166  -4.5295  -0.1300   4.9802   4.9802   6.0223
     8.4335   8.4335   8.8354

          k = 0.0000 0.0000-0.3589 (  5170 PWs)   bands (ev):

   -43.7039 -42.6323 -42.3167  -4.4954  -0.3588   5.1178   5.1178   7.6767
     8.0357   8.0357   8.1790

          k = 0.0000 0.1250 0.0000 (  5141 PWs)   bands (ev):

   -43.7039 -42.6325 -42.3160  -4.5065   1.0144   3.2785   4.1594   4.8191
     8.7615   8.9141   9.4329

          k = 0.0000 0.1250 0.1196 (  5134 PWs)   bands (ev):

   -43.7038 -42.6325 -42.3161  -4.4766   0.5907   3.5987   4.7062   4.9115
     7.9763   9.2700   9.5328

          k = 0.0000 0.1250 0.2393 (  5124 PWs)   bands (ev):

   -43.7036 -42.6324 -42.3164  -4.4131   0.0117   3.9323   5.1300   6.1969
     7.1668   8.6089   9.2411

          k = 0.0000 0.1250-0.3589 (  5128 PWs)   bands (ev):

   -43.7034 -42.6324 -42.3165  -4.3793  -0.2179   4.0909   5.2648   6.6946
     7.9592   8.2164   8.4381

          k = 0.0000 0.2500 0.0000 (  5135 PWs)   bands (ev):

   -43.7029 -42.6328 -42.3155  -4.1803   1.4781   1.9017   4.2800   5.2663
     7.1826   7.8446   9.6109

          k = 0.0000 0.2500 0.1196 (  5124 PWs)   bands (ev):

   -43.7028 -42.6328 -42.3156  -4.1516   1.0056   2.0945   4.9838   5.3544
     6.2966   8.7697   9.5930

          k = 0.0000 0.2500 0.2393 (  5096 PWs)   bands (ev):

   -43.7026 -42.6328 -42.3159  -4.0910   0.4275   2.3529   5.3111   5.5608
     6.6527   9.1259   9.2850

          k = 0.0000 0.2500-0.3589 (  5100 PWs)   bands (ev):

   -43.7024 -42.6328 -42.3160  -4.0588   0.2015   2.4995   4.9507   5.6860
     8.5037   8.5111   8.7570

          k = 0.0000 0.3750 0.0000 (  5129 PWs)   bands (ev):

   -43.7019 -42.6332 -42.3150  -3.7540   0.6746   2.1677   4.7273   5.6614
     5.9170   6.6881   9.7223

          k = 0.0000 0.3750 0.1196 (  5115 PWs)   bands (ev):

   -43.7018 -42.6332 -42.3151  -3.7292   0.7596   1.7656   4.7326   5.5319
     5.9954   7.7485   9.6850

          k = 0.0000 0.3750 0.2393 (  5097 PWs)   bands (ev):

   -43.7016 -42.6332 -42.3154  -3.6771   0.9193   1.2736   3.8157   6.1744
     7.0886   9.0889   9.6455

          k = 0.0000 0.3750-0.3589 (  5106 PWs)   bands (ev):

   -43.7014 -42.6331 -42.3155  -3.6498   0.8759   1.2443   3.4243   6.2793
     8.5692   9.2860   9.4345

          k = 0.0000-0.5000 0.0000 (  5124 PWs)   bands (ev):

   -43.7015 -42.6333 -42.3148  -3.5233   0.1650   2.6464   4.8882   5.1329
     6.0387   6.3441   9.7603

          k = 0.0000-0.5000 0.1196 (  5100 PWs)   bands (ev):

   -43.7014 -42.6333 -42.3149  -3.5022   0.2712   2.2425   3.9776   5.8695
     6.4106   7.1729   9.7161

          k = 0.0000-0.5000 0.2393 (  5112 PWs)   bands (ev):

   -43.7011 -42.6333 -42.3152  -3.4583   0.5441   1.6982   2.9740   6.5587
     7.3731   8.8351   9.6026

          k = 0.0000-0.5000-0.3589 (  5072 PWs)   bands (ev):

   -43.7010 -42.6333 -42.3153  -3.4355   0.7401   1.4855   2.5258   6.6425
     8.5957   9.3782  10.0396

          k = 0.1250 0.1250 0.0000 (  5121 PWs)   bands (ev):

   -43.7035 -42.6326 -42.3158  -4.3866   1.1723   3.3575   3.4963   4.7285
     8.3977   8.7478   9.9924

          k = 0.1250 0.1250 0.1196 (  5128 PWs)   bands (ev):

   -43.7034 -42.6326 -42.3159  -4.3569   0.7369   3.6018   3.8239   5.1089
     8.0575   8.0628  10.1553

          k = 0.1250 0.1250 0.2393 (  5128 PWs)   bands (ev):

   -43.7032 -42.6325 -42.3162  -4.2940   0.1526   3.8598   4.2745   6.3587
     7.0689   7.6029  10.0535

          k = 0.1250 0.1250-0.3589 (  5128 PWs)   bands (ev):

   -43.7031 -42.6325 -42.3163  -4.2604  -0.0776   4.0276   4.4236   6.6297
     6.9766   8.2807   8.9661

          k = 0.1250 0.2500 0.0000 (  5123 PWs)   bands (ev):

   -43.7026 -42.6328 -42.3153  -4.0516   1.6311   1.9840   3.7458   4.9709
     7.2059   7.7244   9.6745

          k = 0.1250 0.2500 0.1196 (  5126 PWs)   bands (ev):

   -43.7025 -42.6328 -42.3154  -4.0232   1.1466   2.1684   4.1152   5.3524
     6.4354   8.0486   9.6841

          k = 0.1250 0.2500 0.2393 (  5113 PWs)   bands (ev):

   -43.7023 -42.6328 -42.3157  -3.9632   0.5656   2.4266   4.4842   5.4003
     6.6996   7.8771   9.9203

          k = 0.1250 0.2500-0.3589 (  5118 PWs)   bands (ev):

   -43.7022 -42.6328 -42.3158  -3.9314   0.3398   2.5780   4.6268   5.0319
     7.1626   8.6467   9.2050

          k = 0.1250 0.3750 0.0000 (  5102 PWs)   bands (ev):

   -43.7017 -42.6331 -42.3148  -3.6106   0.7435   2.3086   4.2376   5.3957
     5.8007   6.6563   8.7341

          k = 0.1250 0.3750 0.1196 (  5107 PWs)   bands (ev):

   -43.7016 -42.6331 -42.3149  -3.5863   0.8318   1.8926   4.6281   4.8315
     5.8850   7.5524   8.8000

          k = 0.1250 0.3750 0.2393 (  5101 PWs)   bands (ev):

   -43.7014 -42.6330 -42.3152  -3.5355   1.0159   1.3809   3.9163   4.9809
     6.9462   8.3513   9.0202

          k = 0.1250 0.3750-0.3589 (  5108 PWs)   bands (ev):

   -43.7013 -42.6330 -42.3153  -3.5088   1.0116   1.3166   3.5274   5.0901
     7.5255   8.6866   9.4843

          k = 0.1250-0.5000 0.0000 (  5126 PWs)   bands (ev):

   -43.7013 -42.6332 -42.3146  -3.3694   0.2246   2.7713   4.5644   5.0636
     5.7763   5.9988   8.2362

          k = 0.1250-0.5000 0.1196 (  5114 PWs)   bands (ev):

   -43.7012 -42.6332 -42.3147  -3.3492   0.3321   2.3621   4.1006   4.9417
     6.1158   7.1017   8.3845

          k = 0.1250-0.5000 0.2393 (  5094 PWs)   bands (ev):

   -43.7010 -42.6331 -42.3150  -3.3073   0.6075   1.8291   3.0842   5.2598
     7.0896   8.1763   9.0561

          k = 0.1250-0.5000-0.3589 (  5100 PWs)   bands (ev):

   -43.7009 -42.6331 -42.3151  -3.2855   0.8045   1.6229   2.6325   5.3514
     7.6971   8.4473   9.7129

          k = 0.2500 0.2500 0.0000 (  5112 PWs)   bands (ev):

   -43.7019 -42.6328 -42.3148  -3.6889   1.9714   2.0718   2.6110   5.0446
     7.0006   7.2574   8.3935

          k = 0.2500 0.2500 0.1196 (  5114 PWs)   bands (ev):

   -43.7018 -42.6328 -42.3149  -3.6621   1.5433   2.0847   2.9429   5.4563
     6.4864   6.9511   8.5203

          k = 0.2500 0.2500 0.2393 (  5118 PWs)   bands (ev):

   -43.7016 -42.6328 -42.3152  -3.6058   0.9697   2.3669   3.1831   5.4320
     5.8906   7.5006   8.7574

          k = 0.2500 0.2500-0.3589 (  5108 PWs)   bands (ev):

   -43.7015 -42.6328 -42.3154  -3.5760   0.7515   2.5574   3.2597   4.9598
     5.8867   8.3033   9.0171

          k = 0.2500 0.3750 0.0000 (  5103 PWs)   bands (ev):

   -43.7013 -42.6328 -42.3143  -3.2008   0.9195   2.7062   2.7377   5.3501
     6.1645   6.5064   7.4357

          k = 0.2500 0.3750 0.1196 (  5109 PWs)   bands (ev):

   -43.7011 -42.6328 -42.3145  -3.1791   1.0177   2.1785   3.0658   5.0806
     5.8790   7.0303   7.5116

          k = 0.2500 0.3750 0.2393 (  5108 PWs)   bands (ev):

   -43.7009 -42.6328 -42.3148  -3.1339   1.2561   1.6964   3.2382   4.2215
     6.0343   7.4486   7.9936

          k = 0.2500 0.3750-0.3589 (  5104 PWs)   bands (ev):

   -43.7008 -42.6327 -42.3149  -3.1104   1.4153   1.5035   3.3240   3.7974
     6.0135   7.5687   8.5307

          k = 0.2500-0.5000 0.0000 (  5116 PWs)   bands (ev):

   -43.7010 -42.6328 -42.3141  -2.9241   0.3812   2.9090   3.1148   5.5830
     5.7340   5.9019   7.0855

          k = 0.2500-0.5000 0.1196 (  5100 PWs)   bands (ev):

   -43.7009 -42.6328 -42.3143  -2.9078   0.4922   2.5652   3.3077   4.4397
     5.9324   6.7889   7.4163

          k = 0.2500-0.5000 0.2393 (  5114 PWs)   bands (ev):

   -43.7006 -42.6327 -42.3146  -2.8744   0.7748   2.1837   3.3931   3.4365
     6.1851   7.0939   8.0896

          k = 0.2500-0.5000-0.3589 (  5116 PWs)   bands (ev):

   -43.7005 -42.6327 -42.3147  -2.8572   0.9745   2.0338   2.9314   3.4778
     6.2415   7.2085   8.2267

          k = 0.3750 0.3750 0.0000 (  5102 PWs)   bands (ev):

   -43.7008 -42.6325 -42.3139  -2.6258   0.9813   1.4923   3.2430   5.5398
     6.2644   6.4537   6.4604

          k = 0.3750 0.3750 0.1196 (  5103 PWs)   bands (ev):

   -43.7007 -42.6325 -42.3140  -2.6119   1.0979   1.5421   3.0180   5.2839
     5.4695   6.4694   6.9392

          k = 0.3750 0.3750 0.2393 (  5114 PWs)   bands (ev):

   -43.7005 -42.6325 -42.3143  -2.5839   1.3912   1.7144   2.5275   4.3907
     5.0197   6.5993   7.4337

          k = 0.3750 0.3750-0.3589 (  5114 PWs)   bands (ev):

   -43.7003 -42.6325 -42.3144  -2.5698   1.5927   2.0277   2.0681   3.9040
     4.9300   6.6787   7.5426

          k = 0.3750-0.5000 0.0000 (  5096 PWs)   bands (ev):

   -43.7006 -42.6324 -42.3137  -2.2748   0.5612   1.3788   3.5492   5.7953
     5.8596   6.2169   6.4029

          k = 0.3750-0.5000 0.1196 (  5100 PWs)   bands (ev):

   -43.7005 -42.6324 -42.3138  -2.2706   0.6765   1.4653   3.4150   4.8774
     5.4968   6.1088   7.0698

          k = 0.3750-0.5000 0.2393 (  5104 PWs)   bands (ev):

   -43.7003 -42.6323 -42.3141  -2.2627   0.9684   1.7153   3.0291   3.8058
     5.0195   6.2421   7.1655

          k = 0.3750-0.5000-0.3589 (  5116 PWs)   bands (ev):

   -43.7002 -42.6323 -42.3142  -2.2590   1.1714   1.9438   2.7130   3.3281
     4.8576   6.3372   7.0837

          k =-0.5000-0.5000 0.0000 (  5092 PWs)   bands (ev):

   -43.7005 -42.6322 -42.3135  -1.8454   0.6447   0.6447   3.7739   5.7203
     5.9258   5.9258   7.0900

          k =-0.5000-0.5000 0.1196 (  5076 PWs)   bands (ev):

   -43.7003 -42.6322 -42.3136  -1.8585   0.7623   0.7623   3.7753   5.1243
     5.1243   5.7741   6.9871

          k =-0.5000-0.5000 0.2393 (  5128 PWs)   bands (ev):

   -43.7001 -42.6322 -42.3139  -1.8845   1.0589   1.0589   3.7780   4.0388
     4.0388   5.9129   6.7568

          k =-0.5000-0.5000-0.3589 (  5112 PWs)   bands (ev):

   -43.7000 -42.6322 -42.3141  -1.8973   1.2638   1.2638   3.5477   3.7793
     6.0156   6.6111  11.7744

     the Fermi energy is     3.7746 ev

!    total energy              =     -51.62487855 Ry
     estimated scf accuracy    <          1.3E-09 Ry
     smearing contrib. (-TS)   =       0.00011985 Ry
     internal energy E=F+TS    =     -51.62499840 Ry

     The total energy is F=E-TS. E is the sum of the following terms:
     one-electron contribution =     -23.23605711 Ry
     hartree contribution      =      10.33864679 Ry
     xc contribution           =     -13.16838790 Ry
     ewald contribution        =     -25.55920018 Ry

     convergence has been achieved in   7 iterations

     Forces acting on atoms (cartesian axes, Ry/au):

     atom    1 type  1   force =     0.00000000    0.00000000    0.00000000
     atom    2 type  2   force =     0.00000000    0.00000000    0.00000000
     atom    3 type  2   force =     0.00000000    0.00000000    0.00000000
     atom    4 type  2   force =     0.00000000    0.00000000    0.00000000
     The non-local contrib.  to forces
     atom    1 type  1   force =     0.00000000    0.00000000    0.00000000
     atom    2 type  2   force =     0.00000000    0.00000000    0.00000000
     atom    3 type  2   force =     0.00000000    0.00000000    0.00000000
     atom    4 type  2   force =     0.00000000    0.00000000    0.00000000
     The ionic contribution  to forces
     atom    1 type  1   force =     0.00000000    0.00000000   -0.00000000
     atom    2 type  2   force =    -0.00000000   -0.00000000   -0.00000000
     atom    3 type  2   force =    -0.00000000   -0.00000000    0.00000000
     atom    4 type  2   force =     0.00000000    0.00000000    0.00000000
     The local contribution  to forces
     atom    1 type  1   force =     0.00000000    0.00000000    0.00000000
     atom    2 type  2   force =     0.00000000    0.00000000    0.00000000
     atom    3 type  2   force =    -0.00000000    0.00000000    0.00000000
     atom    4 type  2   force =     0.00000000    0.00000000    0.00000000
     The core correction contribution to forces
     atom    1 type  1   force =    -0.00000000   -0.00000000   -0.00000000
     atom    2 type  2   force =     0.00000000    0.00000000    0.00000000
     atom    3 type  2   force =     0.00000000    0.00000000    0.00000000
     atom    4 type  2   force =     0.00000000    0.00000000    0.00000000
     The Hubbard contrib.    to forces
     atom    1 type  1   force =     0.00000000    0.00000000    0.00000000
     atom    2 type  2   force =     0.00000000    0.00000000    0.00000000
     atom    3 type  2   force =     0.00000000    0.00000000    0.00000000
     atom    4 type  2   force =     0.00000000    0.00000000    0.00000000
     The SCF correction term to forces
     atom    1 type  1   force =    -0.00000000    0.00000000   -0.00000000
     atom    2 type  2   force =     0.00000000   -0.00000000   -0.00000000
     atom    3 type  2   force =    -0.00000000    0.00000000   -0.00000000
     atom    4 type  2   force =    -0.00000000    0.00000000    0.00000000

     Total force =     0.000000     Total SCF correction =     0.000000


     Computing stress (Cartesian axis) and pressure

          total   stress  (Ry/bohr**3)                   (kbar)     P=       29.77
   0.00033340   0.00000000   0.00000000           49.04        0.00        0.00
   0.00000000   0.00033340   0.00000000            0.00       49.04        0.00
   0.00000000   0.00000000  -0.00005964            0.00        0.00       -8.77


     BFGS Geometry Optimization
     Energy error            =      0.0E+00 Ry
     Gradient error          =      0.0E+00 Ry/Bohr
     Cell gradient error     =      5.1E+02 kbar

     number of scf cycles    =   1
     number of bfgs steps    =   0

     enthalpy           new  =     -50.1868731814 Ry

     new trust radius        =       0.3556936954 bohr
ibrav =      6
 celldm(1) =      6.20671360
 celldm(3) =      1.37816840
Input lattice vectors:
     0.92336172     0.00000000     0.00000000
     0.00000000     0.92336172     0.00000000
     0.00000000     0.00000000     1.27254795
New lattice vectors in INITIAL alat:
     0.92336172     0.00000000     0.00000000
     0.00000000     0.92336172     0.00000000
     0.00000000     0.00000000     1.27254795
New lattice vectors in NEW alat (for information only):
     1.00000000     0.00000000     0.00000000
     0.00000000     1.00000000     0.00000000
     0.00000000     0.00000000     1.37816840
Discrepancy in bohr =     0.000000    0.000000    0.000000
     new conv_thr            =       0.0000000100 Ry

     new unit-cell volume =    329.52427 a.u.^3 (    48.83046 Ang^3 )
     density =      1.66319 g/cm^3

CELL_PARAMETERS (alat=  6.72186580)
   0.923361725   0.000000000   0.000000000
   0.000000000   0.923361725   0.000000000
   0.000000000   0.000000000   1.272547949

ATOMIC_POSITIONS (crystal)
Si            0.5000000000        0.5000000000        0.0000000000
Li            0.0000000000        0.0000000000        0.0000000000
Li            0.0000000000        0.0000000000        0.5000000000
Li            0.5000000000        0.5000000000        0.5000000000



     Writing config-only to output data dir ./output/SiLi.save/
     NEW-OLD atomic charge density approx. for the potential
     extrapolated charge    9.31337, renormalised to   13.00000

     total cpu time spent up to now is        9.2 secs

     Self-consistent Calculation

     iteration #  1     ecut=    80.00 Ry     beta= 0.70
     Davidson diagonalization with overlap
     ethr =  1.00E-06,  avg # of iterations =  9.8

     total cpu time spent up to now is       10.9 secs

     total energy              =     -51.41933895 Ry
     estimated scf accuracy    <       0.09524823 Ry

     iteration #  2     ecut=    80.00 Ry     beta= 0.70
     Davidson diagonalization with overlap
     ethr =  7.33E-04,  avg # of iterations =  2.1

     total cpu time spent up to now is       11.8 secs

     total energy              =     -51.57148669 Ry
     estimated scf accuracy    <       0.01735803 Ry

     iteration #  3     ecut=    80.00 Ry     beta= 0.70
     Davidson diagonalization with overlap
     ethr =  1.34E-04,  avg # of iterations =  1.5

     total cpu time spent up to now is       12.4 secs

     total energy              =     -51.57171567 Ry
     estimated scf accuracy    <       0.00345822 Ry

     iteration #  4     ecut=    80.00 Ry     beta= 0.70
     Davidson diagonalization with overlap
     ethr =  2.66E-05,  avg # of iterations =  2.2

     total cpu time spent up to now is       13.2 secs

     total energy              =     -51.57156862 Ry
     estimated scf accuracy    <       0.00127697 Ry

     iteration #  5     ecut=    80.00 Ry     beta= 0.70
     Davidson diagonalization with overlap
     ethr =  9.82E-06,  avg # of iterations =  1.3

     total cpu time spent up to now is       13.8 secs

     total energy              =     -51.57169281 Ry
     estimated scf accuracy    <       0.00000360 Ry

     iteration #  6     ecut=    80.00 Ry     beta= 0.70
     Davidson diagonalization with overlap
     ethr =  2.77E-08,  avg # of iterations =  3.5

     total cpu time spent up to now is       14.7 secs

     total energy              =     -51.57169552 Ry
     estimated scf accuracy    <       0.00000043 Ry

     iteration #  7     ecut=    80.00 Ry     beta= 0.70
     Davidson diagonalization with overlap
     ethr =  3.27E-09,  avg # of iterations =  2.0

     total cpu time spent up to now is       15.4 secs

     total energy              =     -51.57169557 Ry
     estimated scf accuracy    <       0.00000003 Ry

     iteration #  8     ecut=    80.00 Ry     beta= 0.70
     Davidson diagonalization with overlap
     ethr =  1.93E-10,  avg # of iterations =  2.0

     total cpu time spent up to now is       16.1 secs

     End of self-consistent calculation

          k = 0.0000 0.0000 0.0000 (  5159 PWs)   bands (ev):

   -41.7731 -40.7004 -40.5512  -3.6621   1.9041   6.2101   6.5972   6.5972
    10.1478  12.4378  13.0395

          k = 0.0000 0.0000 0.1310 (  5143 PWs)   bands (ev):

   -41.7724 -40.7003 -40.5521  -3.6326   1.5632   6.7256   6.7256   6.9735
    10.2917  12.0640  12.3930

          k = 0.0000 0.0000 0.2619 (  5138 PWs)   bands (ev):

   -41.7709 -40.7002 -40.5538  -3.5701   1.0307   7.0419   7.0419   8.7667
    10.6536  10.8076  10.8076

          k = 0.0000 0.0000-0.3929 (  5170 PWs)   bands (ev):

   -41.7702 -40.7001 -40.5546  -3.5367   0.8070   7.2505   7.2505  10.2612
    10.2612  10.6440  11.5107

          k = 0.0000 0.1354 0.0000 (  5141 PWs)   bands (ev):

   -41.7714 -40.7013 -40.5506  -3.5254   2.0961   5.2178   6.4740   6.7875
    11.2491  11.3514  12.1292

          k = 0.0000 0.1354 0.1310 (  5134 PWs)   bands (ev):

   -41.7707 -40.7012 -40.5514  -3.4952   1.7405   5.4119   6.9149   7.1776
    10.4322  11.4238  12.4754

          k = 0.0000 0.1354 0.2619 (  5124 PWs)   bands (ev):

   -41.7693 -40.7011 -40.5532  -3.4312   1.1935   5.7665   7.2280   8.8784
     9.3927  11.0145  11.6076

          k = 0.0000 0.1354-0.3929 (  5128 PWs)   bands (ev):

   -41.7686 -40.7010 -40.5540  -3.3970   0.9653   5.9784   7.4336   8.8209
    10.4726  10.8475  11.7245

          k = 0.0000 0.2707 0.0000 (  5135 PWs)   bands (ev):

   -41.7674 -40.7035 -40.5491  -3.1391   2.6590   3.3921   6.7359   7.3473
     9.3240  10.5592  12.2187

          k = 0.0000 0.2707 0.1310 (  5124 PWs)   bands (ev):

   -41.7667 -40.7034 -40.5500  -3.1078   2.2510   3.5682   7.4712   7.4794
     8.3942  11.5026  12.2116

          k = 0.0000 0.2707 0.2619 (  5096 PWs)   bands (ev):

   -41.7653 -40.7033 -40.5516  -3.0416   1.6735   3.8871   7.2602   7.7732
     9.3083  11.6278  11.9167

          k = 0.0000 0.2707-0.3929 (  5100 PWs)   bands (ev):

   -41.7646 -40.7033 -40.5525  -3.0063   1.4378   4.0809   6.7951   7.9688
    11.1044  11.3611  11.8890

          k = 0.0000 0.4061 0.0000 (  5129 PWs)   bands (ev):

   -41.7634 -40.7057 -40.5476  -2.6158   1.9126   3.5178   7.1962   7.4274
     8.2084   9.2716  12.0657

          k = 0.0000 0.4061 0.1310 (  5115 PWs)   bands (ev):

   -41.7627 -40.7057 -40.5485  -2.5863   2.0182   3.1307   6.5528   8.0101
     8.3237  10.3317  12.1899

          k = 0.0000 0.4061 0.2619 (  5097 PWs)   bands (ev):

   -41.7613 -40.7056 -40.5501  -2.5239   2.2346   2.6070   5.4970   8.5998
     9.7713  11.7860  12.3015

          k = 0.0000 0.4061-0.3929 (  5106 PWs)   bands (ev):

   -41.7606 -40.7055 -40.5509  -2.4908   2.2050   2.5805   5.0368   8.7731
    11.6141  11.6484  12.1429

          k = 0.0000-0.5415 0.0000 (  5124 PWs)   bands (ev):

   -41.7618 -40.7067 -40.5470  -2.3171   1.2872   4.1581   6.4252   7.6076
     8.5740   8.8638  11.0434

          k = 0.0000-0.5415 0.1310 (  5100 PWs)   bands (ev):

   -41.7611 -40.7066 -40.5478  -2.2911   1.4115   3.7525   5.5846   8.3952
     8.9651   9.6791  11.1984

          k = 0.0000-0.5415 0.2619 (  5112 PWs)   bands (ev):

   -41.7597 -40.7065 -40.5495  -2.2366   1.7313   3.1655   4.4869   9.2010
    10.0677  11.5710  12.1244

          k = 0.0000-0.5415-0.3929 (  5072 PWs)   bands (ev):

   -41.7589 -40.7064 -40.5503  -2.2080   1.9622   2.9289   3.9779   9.3427
    11.5903  11.6479  13.0835

          k = 0.1354 0.1354 0.0000 (  5121 PWs)   bands (ev):

   -41.7700 -40.7020 -40.5500  -3.3845   2.2868   5.0278   5.6516   6.9866
    10.9102  11.5172  12.5357

          k = 0.1354 0.1354 0.1310 (  5128 PWs)   bands (ev):

   -41.7693 -40.7019 -40.5508  -3.3537   1.9165   5.1656   6.0023   7.5075
    10.4809  10.5557  13.3081

          k = 0.1354 0.1354 0.2619 (  5128 PWs)   bands (ev):

   -41.7678 -40.7018 -40.5525  -3.2881   1.3551   5.5112   6.4211   9.0006
     9.1550  10.0169  13.2773

          k = 0.1354 0.1354-0.3929 (  5128 PWs)   bands (ev):

   -41.7671 -40.7018 -40.5534  -3.2532   1.1225   5.7471   6.5984   8.5697
     9.4265  11.0513  12.0345

          k = 0.1354 0.2707 0.0000 (  5123 PWs)   bands (ev):

   -41.7664 -40.7037 -40.5485  -2.9852   2.8451   3.4204   5.8895   7.2863
     9.3757  10.3291  12.4133

          k = 0.1354 0.2707 0.1310 (  5126 PWs)   bands (ev):

   -41.7657 -40.7037 -40.5494  -2.9533   2.4213   3.5911   6.2121   7.7561
     8.5555  10.5193  12.4574

          k = 0.1354 0.2707 0.2619 (  5113 PWs)   bands (ev):

   -41.7643 -40.7035 -40.5510  -2.8856   1.8311   3.9193   6.5887   7.3477
     9.2247  10.3002  12.6441

          k = 0.1354 0.2707-0.3929 (  5118 PWs)   bands (ev):

   -41.7636 -40.7035 -40.5519  -2.8495   1.5917   4.1268   6.7640   6.8430
     9.5679  11.2552  12.1681

          k = 0.1354 0.4061 0.0000 (  5102 PWs)   bands (ev):

   -41.7628 -40.7055 -40.5471  -2.4393   1.9581   3.6924   6.4584   7.5983
     7.7410   9.1593  11.0878

          k = 0.1354 0.4061 0.1310 (  5107 PWs)   bands (ev):

   -41.7621 -40.7054 -40.5479  -2.4093   2.0696   3.2839   6.6499   6.8482
     8.2622  10.0129  11.1768

          k = 0.1354 0.4061 0.2619 (  5101 PWs)   bands (ev):

   -41.7607 -40.7053 -40.5496  -2.3460   2.3210   2.7245   5.5998   7.1958
     9.4568  10.8276  11.4988

          k = 0.1354 0.4061-0.3929 (  5108 PWs)   bands (ev):

   -41.7600 -40.7052 -40.5504  -2.3125   2.3540   2.6405   5.1339   7.3172
    10.0412  11.0701  12.2730

          k = 0.1354-0.5415 0.0000 (  5126 PWs)   bands (ev):

   -41.7613 -40.7062 -40.5465  -2.1223   1.3238   4.3144   6.6340   6.8360
     8.1453   8.4756  10.4411

          k = 0.1354-0.5415 0.1310 (  5114 PWs)   bands (ev):

   -41.7606 -40.7061 -40.5473  -2.0964   1.4509   3.8963   5.7342   7.2208
     8.5192   9.5161  10.6237

          k = 0.1354-0.5415 0.2619 (  5094 PWs)   bands (ev):

   -41.7592 -40.7060 -40.5489  -2.0421   1.7779   3.3119   4.6044   7.5549
     9.6036  10.5074  11.5737

          k = 0.1354-0.5415-0.3929 (  5100 PWs)   bands (ev):

   -41.7585 -40.7060 -40.5498  -2.0137   2.0135   3.0794   4.0839   7.6486
    10.2860  10.7398  12.3804

          k = 0.2707 0.2707 0.0000 (  5112 PWs)   bands (ev):

   -41.7638 -40.7043 -40.5471  -2.5451   3.1538   3.3868   4.6860   7.4216
     9.1606   9.6870  10.9079

          k = 0.2707 0.2707 0.1310 (  5114 PWs)   bands (ev):

   -41.7631 -40.7042 -40.5480  -2.5122   2.9121   3.2976   4.9728   7.8313
     8.5806   9.1917  11.0158

          k = 0.2707 0.2707 0.2619 (  5118 PWs)   bands (ev):

   -41.7617 -40.7041 -40.5496  -2.4425   2.2943   3.6627   5.2363   7.2072
     8.2269   9.9366  11.2851

          k = 0.2707 0.2707-0.3929 (  5108 PWs)   bands (ev):

   -41.7610 -40.7040 -40.5505  -2.4054   2.0507   3.9185   5.3175   6.5949
     8.2262  10.6669  11.7962

          k = 0.2707 0.4061 0.0000 (  5103 PWs)   bands (ev):

   -41.7613 -40.7048 -40.5457  -1.9255   2.0548   4.1915   4.6117   7.6985
     8.0515   8.8599   9.7640

          k = 0.2707 0.4061 0.1310 (  5109 PWs)   bands (ev):

   -41.7606 -40.7047 -40.5466  -1.8952   2.1828   3.6619   4.9339   7.0146
     8.1189   9.2694   9.8648

          k = 0.2707 0.4061 0.2619 (  5108 PWs)   bands (ev):

   -41.7592 -40.7046 -40.5482  -1.8317   2.5040   3.0855   5.1252   5.9206
     8.2504   9.7036  10.4910

          k = 0.2707 0.4061-0.3929 (  5104 PWs)   bands (ev):

   -41.7585 -40.7046 -40.5490  -1.7983   2.7818   2.7970   5.2205   5.3636
     8.2530   9.8099  11.1064

          k = 0.2707-0.5415 0.0000 (  5116 PWs)   bands (ev):

   -41.7602 -40.7050 -40.5452  -1.5444   1.4173   4.7390   4.7503   7.2547
     8.0472   8.2530   9.3548

          k = 0.2707-0.5415 0.1310 (  5100 PWs)   bands (ev):

   -41.7595 -40.7050 -40.5460  -1.5202   1.5521   4.1703   5.1667   6.1474
     8.1822   9.0354   9.7236

          k = 0.2707-0.5415 0.2619 (  5114 PWs)   bands (ev):

   -41.7582 -40.7049 -40.5476  -1.4702   1.8979   3.7036   4.9282   5.3258
     8.3970   9.3198  10.5159

          k = 0.2707-0.5415-0.3929 (  5116 PWs)   bands (ev):

   -41.7575 -40.7048 -40.5484  -1.4444   2.1461   3.5276   4.3751   5.3488
     8.4748   9.4130  10.7246

          k = 0.4061 0.4061 0.0000 (  5102 PWs)   bands (ev):

   -41.7598 -40.7041 -40.5444  -1.1595   1.9661   3.1187   4.8922   7.8189
     8.4066   8.4983   8.7780

          k = 0.4061 0.4061 0.1310 (  5103 PWs)   bands (ev):

   -41.7591 -40.7041 -40.5452  -1.1341   2.1127   3.1286   4.6845   7.3628
     7.3700   8.7117   9.1936

          k = 0.4061 0.4061 0.2619 (  5114 PWs)   bands (ev):

   -41.7577 -40.7040 -40.5468  -1.0828   2.4878   3.2402   4.1486   5.9768
     7.1134   8.8148   9.8140

          k = 0.4061 0.4061-0.3929 (  5114 PWs)   bands (ev):

   -41.7570 -40.7039 -40.5477  -1.0568   2.7543   3.5135   3.6616   5.3512
     7.0744   8.8614   9.9940

          k = 0.4061-0.5415 0.0000 (  5096 PWs)   bands (ev):

   -41.7592 -40.7039 -40.5438  -0.6201   1.5196   2.7626   5.3204   8.0655
     8.0772   8.2515   8.4978

          k = 0.4061-0.5415 0.1310 (  5100 PWs)   bands (ev):

   -41.7585 -40.7038 -40.5447  -0.6081   1.6630   2.8368   5.2025   6.6776
     7.5154   8.3905   9.2614

          k = 0.4061-0.5415 0.2619 (  5104 PWs)   bands (ev):

   -41.7571 -40.7037 -40.5463  -0.5866   2.0309   3.0959   4.7103   5.3424
     6.9876   8.4670   9.5007

          k = 0.4061-0.5415-0.3929 (  5116 PWs)   bands (ev):

   -41.7564 -40.7037 -40.5471  -0.5772   2.2938   3.3799   4.2519   4.7423
     6.8799   8.5094   9.5107

          k =-0.5415-0.5415 0.0000 (  5092 PWs)   bands (ev):

   -41.7587 -40.7034 -40.5433   0.2173   1.5649   1.5649   5.6291   8.0800
     8.0954   8.0954   9.1586

          k =-0.5415-0.5415 0.1310 (  5076 PWs)   bands (ev):

   -41.7580 -40.7033 -40.5441   0.1789   1.7124   1.7124   5.6993   6.9608
     6.9608   8.1040   9.1307

          k =-0.5415-0.5415 0.2619 (  5128 PWs)   bands (ev):

   -41.7567 -40.7032 -40.5457   0.1046   2.0906   2.0906   5.5616   5.5616
     5.8367   8.1570   9.0697

          k =-0.5415-0.5415-0.3929 (  5112 PWs)   bands (ev):

   -41.7560 -40.7032 -40.5465   0.0686   2.3605   2.3605   4.9319   4.9319
     5.9040   8.1865   9.0360

     the Fermi energy is     5.5037 ev

!    total energy              =     -51.57169557 Ry
     estimated scf accuracy    <          7.9E-10 Ry
     smearing contrib. (-TS)   =       0.00039665 Ry
     internal energy E=F+TS    =     -51.57209222 Ry

     The total energy is F=E-TS. E is the sum of the following terms:
     one-electron contribution =     -20.05233950 Ry
     hartree contribution      =       9.67334541 Ry
     xc contribution           =     -13.41658985 Ry
     ewald contribution        =     -27.77650828 Ry

     convergence has been achieved in   8 iterations

     Forces acting on atoms (cartesian axes, Ry/au):

     atom    1 type  1   force =     0.00000000    0.00000000    0.00000000
     atom    2 type  2   force =     0.00000000    0.00000000    0.00000000
     atom    3 type  2   force =     0.00000000    0.00000000    0.00000000
     atom    4 type  2   force =     0.00000000    0.00000000    0.00000000
     The non-local contrib.  to forces
     atom    1 type  1   force =     0.00000000    0.00000000    0.00000000
     atom    2 type  2   force =     0.00000000    0.00000000    0.00000000
     atom    3 type  2   force =     0.00000000    0.00000000    0.00000000
     atom    4 type  2   force =     0.00000000    0.00000000    0.00000000
     The ionic contribution  to forces
     atom    1 type  1   force =     0.00000000   -0.00000000   -0.00000000
     atom    2 type  2   force =    -0.00000000   -0.00000000   -0.00000000
     atom    3 type  2   force =    -0.00000000   -0.00000000    0.00000000
     atom    4 type  2   force =     0.00000000    0.00000000   -0.00000000
     The local contribution  to forces
     atom    1 type  1   force =    -0.00000000   -0.00000000   -0.00000000
     atom    2 type  2   force =    -0.00000000    0.00000000    0.00000000
     atom    3 type  2   force =    -0.00000000    0.00000000    0.00000000
     atom    4 type  2   force =     0.00000000    0.00000000    0.00000000
     The core correction contribution to forces
     atom    1 type  1   force =    -0.00000000   -0.00000000    0.00000000
     atom    2 type  2   force =     0.00000000    0.00000000    0.00000000
     atom    3 type  2   force =     0.00000000    0.00000000    0.00000000
     atom    4 type  2   force =     0.00000000    0.00000000    0.00000000
     The Hubbard contrib.    to forces
     atom    1 type  1   force =     0.00000000    0.00000000    0.00000000
     atom    2 type  2   force =     0.00000000    0.00000000    0.00000000
     atom    3 type  2   force =     0.00000000    0.00000000    0.00000000
     atom    4 type  2   force =     0.00000000    0.00000000    0.00000000
     The SCF correction term to forces
     atom    1 type  1   force =    -0.00000000    0.00000000    0.00000000
     atom    2 type  2   force =     0.00000000   -0.00000000    0.00000000
     atom    3 type  2   force =    -0.00000000   -0.00000000    0.00000000
     atom    4 type  2   force =    -0.00000000    0.00000000   -0.00000000

     Total force =     0.000000     Total SCF correction =     0.000000


     Computing stress (Cartesian axis) and pressure

          total   stress  (Ry/bohr**3)                   (kbar)     P=      164.42
   0.00122558   0.00000000   0.00000000          180.29        0.00        0.00
   0.00000000   0.00122558   0.00000000            0.00      180.29        0.00
   0.00000000   0.00000000   0.00090192            0.00        0.00      132.68

     Energy error            =      2.6E-01 Ry
     Gradient error          =      0.0E+00 Ry/Bohr
     Cell gradient error     =      3.7E+02 kbar

     number of scf cycles    =   2
     number of bfgs steps    =   1

     enthalpy           old  =     -50.1868731814 Ry
     enthalpy           new  =     -50.4516653496 Ry

     CASE: enthalpy          _new < enthalpy          _old

     new trust radius        =       0.5154381328 bohr
ibrav =      6
 celldm(1) =      5.45598054
 celldm(3) =      1.34521783
Input lattice vectors:
     0.81167650     0.00000000     0.00000000
     0.00000000     0.81167650     0.00000000
     0.00000000     0.00000000     1.09188171
New lattice vectors in INITIAL alat:
     0.81167650     0.00000000     0.00000000
     0.00000000     0.81167650     0.00000000
     0.00000000     0.00000000     1.09188171
New lattice vectors in NEW alat (for information only):
     1.00000000     0.00000000     0.00000000
     0.00000000     1.00000000     0.00000000
     0.00000000     0.00000000     1.34521783
Discrepancy in bohr =     0.000000    0.000000    0.000000
     new conv_thr            =            1.0E-10 Ry

     new unit-cell volume =    218.47968 a.u.^3 (    32.37535 Ang^3 )
     density =      2.50853 g/cm^3

CELL_PARAMETERS (alat=  6.72186580)
   0.811676505   0.000000000   0.000000000
   0.000000000   0.811676505   0.000000000
   0.000000000   0.000000000   1.091881711

ATOMIC_POSITIONS (crystal)
Si            0.5000000000        0.5000000000        0.0000000000
Li            0.0000000000        0.0000000000        0.0000000000
Li            0.0000000000        0.0000000000        0.5000000000
Li            0.5000000000        0.5000000000        0.5000000000



     Writing config-only to output data dir ./output/SiLi.save/
     NEW-OLD atomic charge density approx. for the potential

     negative rho (up, down):  2.705E-03 0.000E+00
     extrapolated charge    6.39988, renormalised to   13.00000

     total cpu time spent up to now is       18.0 secs

     Self-consistent Calculation

     iteration #  1     ecut=    80.00 Ry     beta= 0.70
     Davidson diagonalization with overlap
     ethr =  1.00E-06,  avg # of iterations = 10.3

     negative rho (up, down):  1.374E-06 0.000E+00

     total cpu time spent up to now is       19.7 secs

     total energy              =     -50.84938267 Ry
     estimated scf accuracy    <       0.68431773 Ry

     iteration #  2     ecut=    80.00 Ry     beta= 0.70
     Davidson diagonalization with overlap
     ethr =  5.26E-03,  avg # of iterations =  2.0

     total cpu time spent up to now is       20.5 secs

     total energy              =     -51.25959524 Ry
     estimated scf accuracy    <       0.09959386 Ry

     iteration #  3     ecut=    80.00 Ry     beta= 0.70
     Davidson diagonalization with overlap
     ethr =  7.66E-04,  avg # of iterations =  2.0

     total cpu time spent up to now is       21.1 secs

     total energy              =     -51.27922179 Ry
     estimated scf accuracy    <       0.02252750 Ry

     iteration #  4     ecut=    80.00 Ry     beta= 0.70
     Davidson diagonalization with overlap
     ethr =  1.73E-04,  avg # of iterations =  2.1

     total cpu time spent up to now is       21.7 secs

     total energy              =     -51.28305998 Ry
     estimated scf accuracy    <       0.00110952 Ry

     iteration #  5     ecut=    80.00 Ry     beta= 0.70
     Davidson diagonalization with overlap
     ethr =  8.53E-06,  avg # of iterations =  2.7

     total cpu time spent up to now is       22.3 secs

     total energy              =     -51.28322204 Ry
     estimated scf accuracy    <       0.00002630 Ry

     iteration #  6     ecut=    80.00 Ry     beta= 0.70
     Davidson diagonalization with overlap
     ethr =  2.02E-07,  avg # of iterations =  2.2

     total cpu time spent up to now is       23.0 secs

     total energy              =     -51.28322587 Ry
     estimated scf accuracy    <       0.00000089 Ry

     iteration #  7     ecut=    80.00 Ry     beta= 0.70
     Davidson diagonalization with overlap
     ethr =  6.82E-09,  avg # of iterations =  2.1

     total cpu time spent up to now is       23.6 secs

     total energy              =     -51.28322600 Ry
     estimated scf accuracy    <       0.00000001 Ry

     iteration #  8     ecut=    80.00 Ry     beta= 0.70
     Davidson diagonalization with overlap
     ethr =  7.82E-11,  avg # of iterations =  3.1

     total cpu time spent up to now is       24.3 secs

     total energy              =     -51.28322600 Ry
     estimated scf accuracy    <          5.2E-10 Ry

     iteration #  9     ecut=    80.00 Ry     beta= 0.70
     Davidson diagonalization with overlap
     ethr =  4.01E-12,  avg # of iterations =  2.3

     total cpu time spent up to now is       24.9 secs

     End of self-consistent calculation

          k = 0.0000 0.0000 0.0000 (  5159 PWs)   bands (ev):

   -37.8663 -37.3594 -36.9533  -1.2538   4.3346  10.6322  10.6322  12.1225
    13.7174  18.5147  19.5957

          k = 0.0000 0.0000 0.1526 (  5143 PWs)   bands (ev):

   -37.8432 -37.3823 -36.9543  -1.2632   4.1683  10.8358  10.8358  12.8494
    13.8963  17.7129  18.6157

          k = 0.0000 0.0000 0.3053 (  5138 PWs)   bands (ev):

   -37.7878 -37.4375 -36.9560  -1.2826   3.8788  11.3686  11.3686  14.3325
    14.7276  15.7372  15.7372

          k = 0.0000 0.0000-0.4579 (  5170 PWs)   bands (ev):

   -37.7519 -37.4734 -36.9567  -1.2926   3.7508  11.7666  11.7666  14.8464
    14.8464  16.4656  19.0118

          k = 0.0000 0.1540 0.0000 (  5141 PWs)   bands (ev):

   -37.8515 -37.3535 -36.9680  -1.1057   4.5894   8.8374  10.8852  12.2111
    15.6230  16.7145  18.2833

          k = 0.0000 0.1540 0.1526 (  5134 PWs)   bands (ev):

   -37.8281 -37.3767 -36.9689  -1.1104   4.4002   9.0405  11.0879  12.9386
    15.5461  15.7699  18.6404

          k = 0.0000 0.1540 0.3053 (  5124 PWs)   bands (ev):

   -37.7716 -37.4330 -36.9705  -1.1204   4.0743   9.5428  11.6173  13.9063
    14.8326  16.0038  16.1040

          k = 0.0000 0.1540-0.4579 (  5128 PWs)   bands (ev):

   -37.7344 -37.4702 -36.9712  -1.1256   3.9311   9.8938  12.0111  13.1477
    15.1178  16.2920  16.5846

          k = 0.0000 0.3080 0.0000 (  5135 PWs)   bands (ev):

   -37.8142 -37.3370 -37.0070  -0.6833   5.3444   6.5102  11.6414  12.4016
    13.8262  16.3759  17.6735

          k = 0.0000 0.3080 0.1526 (  5124 PWs)   bands (ev):

   -37.7900 -37.3611 -37.0078  -0.6763   5.0804   6.7136  11.8413  12.7730
    13.1798  17.0774  17.9621

          k = 0.0000 0.3080 0.3053 (  5096 PWs)   bands (ev):

   -37.7304 -37.4209 -37.0090  -0.6622   4.6550   7.1730  11.3455  12.3606
    15.0716  16.7981  17.2331

          k = 0.0000 0.3080-0.4579 (  5100 PWs)   bands (ev):

   -37.6892 -37.4624 -37.0094  -0.6551   4.4734   7.4774  10.6793  12.7423
    15.9262  16.4837  17.8287

          k = 0.0000 0.4620 0.0000 (  5129 PWs)   bands (ev):

   -37.7744 -37.3153 -37.0537  -0.0970   4.7222   6.5398  11.2072  12.7496
    12.8820  14.9132  17.1223

          k = 0.0000 0.4620 0.1526 (  5115 PWs)   bands (ev):

   -37.7493 -37.3410 -37.0538  -0.0790   4.8718   6.2270  10.3757  13.0769
    13.5570  15.9356  17.3049

          k = 0.0000 0.4620 0.3053 (  5097 PWs)   bands (ev):

   -37.6856 -37.4062 -37.0537  -0.0417   5.2312   5.7307   9.1291  13.5793
    15.3494  17.3451  17.7610

          k = 0.0000 0.4620-0.4579 (  5106 PWs)   bands (ev):

   -37.6380 -37.4545 -37.0536  -0.0225   5.3749   5.6230   8.5451  13.9422
    16.2966  17.2350  18.0701

          k = 0.0000-0.6160 0.0000 (  5124 PWs)   bands (ev):

   -37.7571 -37.3034 -37.0768   0.2501   3.9699   7.5587   9.7001  13.0682
    14.1760  14.2093  15.3232

          k = 0.0000-0.6160 0.1526 (  5100 PWs)   bands (ev):

   -37.7316 -37.3303 -37.0762   0.2707   4.1305   7.1823   8.9665  13.8759
    14.3627  15.2738  15.5158

          k = 0.0000-0.6160 0.3053 (  5112 PWs)   bands (ev):

   -37.6658 -37.3986 -37.0750   0.3133   4.5471   6.5894   7.7703  14.8422
    15.4746  16.0004  17.4982

          k = 0.0000-0.6160-0.4579 (  5072 PWs)   bands (ev):

   -37.6143 -37.4513 -37.0744   0.3353   4.8541   6.3414   7.1623  15.1852
    16.1946  16.3334  18.3704

          k = 0.1540 0.1540 0.0000 (  5121 PWs)   bands (ev):

   -37.8382 -37.3478 -36.9808  -0.9503   4.8433   8.1875  10.2742  12.4466
    16.1630  17.0937  17.5172

          k = 0.1540 0.1540 0.1526 (  5128 PWs)   bands (ev):

   -37.8145 -37.3712 -36.9817  -0.9503   4.6301   8.3915  10.5095  13.1082
    15.4875  15.7711  17.3743

          k = 0.1540 0.1540 0.3053 (  5128 PWs)   bands (ev):

   -37.7571 -37.4286 -36.9832  -0.9506   4.2670   8.9206  10.9805  13.4891
    14.6127  15.1983  17.7931

          k = 0.1540 0.1540-0.4579 (  5128 PWs)   bands (ev):

   -37.7187 -37.4670 -36.9838  -0.9509   4.1085   9.3081  11.2580  12.5986
    14.3715  16.5449  18.0675

          k = 0.1540 0.3080 0.0000 (  5123 PWs)   bands (ev):

   -37.8048 -37.3321 -37.0148  -0.5058   5.5946   6.3498  10.5062  12.6848
    13.9448  15.9100  17.8287

          k = 0.1540 0.3080 0.1526 (  5126 PWs)   bands (ev):

   -37.7805 -37.3564 -37.0155  -0.4939   5.3024   6.5589  10.7565  12.8724
    13.3649  15.7167  17.9137

          k = 0.1540 0.3080 0.3053 (  5113 PWs)   bands (ev):

   -37.7203 -37.4170 -37.0165  -0.4695   4.8387   7.0505  11.1082  11.4511
    14.5783  15.5285  18.0756

          k = 0.1540 0.3080-0.4579 (  5118 PWs)   bands (ev):

   -37.6781 -37.4595 -37.0169  -0.4570   4.6417   7.3909  10.6114  11.4163
    14.5871  16.3620  18.7247

          k = 0.1540 0.4620 0.0000 (  5102 PWs)   bands (ev):

   -37.7696 -37.3121 -37.0550   0.1178   4.6631   6.7798  11.2577  11.4414
    13.0319  14.5985  15.9251

          k = 0.1540 0.4620 0.1526 (  5107 PWs)   bands (ev):

   -37.7445 -37.3379 -37.0550   0.1412   4.8261   6.4260  10.5228  11.6083
    13.5588  15.3228  16.0513

          k = 0.1540 0.4620 0.3053 (  5101 PWs)   bands (ev):

   -37.6807 -37.4032 -37.0548   0.1895   5.2354   5.8644   9.2161  11.9742
    14.7065  15.9343  16.7920

          k = 0.1540 0.4620-0.4579 (  5108 PWs)   bands (ev):

   -37.6328 -37.4519 -37.0546   0.2146   5.5273   5.6161   8.5985  12.0946
    15.3015  15.8142  18.2626

          k = 0.1540-0.6160 0.0000 (  5126 PWs)   bands (ev):

   -37.7544 -37.3015 -37.0745   0.4965   3.9135   7.7761   9.9743  11.8022
    13.3576  13.9215  14.9842

          k = 0.1540-0.6160 0.1526 (  5114 PWs)   bands (ev):

   -37.7289 -37.3283 -37.0739   0.5222   4.0822   7.3627   9.1685  12.2032
    13.7202  14.6776  15.3913

          k = 0.1540-0.6160 0.3053 (  5094 PWs)   bands (ev):

   -37.6633 -37.3963 -37.0727   0.5751   4.5204   6.7395   7.8929  12.4963
    14.9122  15.1878  17.0305

          k = 0.1540-0.6160-0.4579 (  5100 PWs)   bands (ev):

   -37.6122 -37.4487 -37.0721   0.6025   4.8445   6.4846   7.2496  12.5373
    15.3803  15.7443  18.0001

          k = 0.3080 0.3080 0.0000 (  5112 PWs)   bands (ev):

   -37.7817 -37.3191 -37.0351   0.0046   5.6555   6.3321   9.3483  12.8020
    13.7593  14.9309  16.0312

          k = 0.3080 0.3080 0.1526 (  5114 PWs)   bands (ev):

   -37.7570 -37.3441 -37.0355   0.0296   5.8637   5.9555   9.6013  12.9718
    13.0124  14.0768  16.1370

          k = 0.3080 0.3080 0.3053 (  5118 PWs)   bands (ev):

   -37.6951 -37.4069 -37.0359   0.0816   5.3823   6.4072   9.8622  10.9347
    13.2322  15.0655  16.6465

          k = 0.3080 0.3080-0.4579 (  5108 PWs)   bands (ev):

   -37.6502 -37.4525 -37.0360   0.1086   5.1459   6.8109   9.9254  10.0219
    13.3029  15.4642  17.7036

          k = 0.3080 0.4620 0.0000 (  5103 PWs)   bands (ev):

   -37.7578 -37.3040 -37.0582   0.7423   4.4766   7.4793   9.0248  12.0796
    12.9157  13.9549  14.6960

          k = 0.3080 0.4620 0.1526 (  5109 PWs)   bands (ev):

   -37.7327 -37.3300 -37.0580   0.7813   4.6688   6.9601   9.3306  11.0573
    13.0101  14.1206  14.8652

          k = 0.3080 0.4620 0.3053 (  5108 PWs)   bands (ev):

   -37.6688 -37.3959 -37.0575   0.8627   5.1686   6.2830   9.2444   9.7421
    13.0858  14.4509  15.8222

          k = 0.3080 0.4620-0.4579 (  5104 PWs)   bands (ev):

   -37.6202 -37.4454 -37.0572   0.9052   5.5591   5.9786   8.6625   9.5316
    13.2321  14.4950  16.5734

          k = 0.3080-0.6160 0.0000 (  5116 PWs)   bands (ev):

   -37.7477 -37.2969 -37.0690   1.2291   3.7748   8.3958   9.0230  10.7934
    13.1096  13.3700  14.2583

          k = 0.3080-0.6160 0.1526 (  5100 PWs)   bands (ev):

   -37.7224 -37.3234 -37.0684   1.2706   3.9623   7.7406   9.5275   9.7305
    13.0127  13.8642  14.7362

          k = 0.3080-0.6160 0.3053 (  5114 PWs)   bands (ev):

   -37.6575 -37.3909 -37.0672   1.3560   4.4515   7.1173   8.2197   9.6358
    13.2061  14.0442  15.6938

          k = 0.3080-0.6160-0.4579 (  5116 PWs)   bands (ev):

   -37.6070 -37.4425 -37.0667   1.3998   4.8165   6.8977   7.4781   9.5327
    13.4295  14.0927  16.0422

          k = 0.4620 0.4620 0.0000 (  5102 PWs)   bands (ev):

   -37.7460 -37.2958 -37.0618   1.6831   4.0958   7.2121   8.5227  12.5729
    12.8170  13.3714  13.8650

          k = 0.4620 0.4620 0.1526 (  5103 PWs)   bands (ev):

   -37.7209 -37.3220 -37.0614   1.7462   4.3070   6.9442   8.5133  11.3892
    11.8255  13.5074  14.1894

          k = 0.4620 0.4620 0.3053 (  5114 PWs)   bands (ev):

   -37.6567 -37.3885 -37.0604   1.8770   4.8611   6.6866   7.9798   9.3336
    11.8243  13.5803  14.9400

          k = 0.4620 0.4620-0.4579 (  5114 PWs)   bands (ev):

   -37.6073 -37.4390 -37.0599   1.9446   5.2779   6.7003   7.5337   8.4054
    11.9937  13.5772  15.2504

          k = 0.4620-0.6160 0.0000 (  5096 PWs)   bands (ev):

   -37.7410 -37.2923 -37.0634   2.4135   3.6326   6.5051   9.2544  12.1336
    12.9222  12.9695  13.6123

          k = 0.4620-0.6160 0.1526 (  5100 PWs)   bands (ev):

   -37.7159 -37.3186 -37.0629   2.4898   3.8378   6.4102   9.2297  10.4619
    11.8704  13.3314  14.0716

          k = 0.4620-0.6160 0.3053 (  5104 PWs)   bands (ev):

   -37.6516 -37.3854 -37.0617   2.6404   4.3760   6.4634   8.3792   8.6073
    11.5312  13.2867  14.5619

          k = 0.4620-0.6160-0.4579 (  5116 PWs)   bands (ev):

   -37.6019 -37.4363 -37.0612   2.7127   4.7813   6.8393   7.4896   7.7396
    11.6775  13.2632  14.7362

          k =-0.6160-0.6160 0.0000 (  5092 PWs)   bands (ev):

   -37.7382 -37.2904 -37.0611   3.5728   3.5728   4.8943   9.7640  12.8460
    12.8460  13.3513  13.5133

          k =-0.6160-0.6160 0.1526 (  5076 PWs)   bands (ev):

   -37.7132 -37.3166 -37.0606   3.7850   3.7850   4.7322  10.0625  10.8562
    10.8562  13.1631  13.7971

          k =-0.6160-0.6160 0.3053 (  5128 PWs)   bands (ev):

   -37.6492 -37.3831 -37.0595   4.3428   4.3428   4.4477   8.7945   8.7945
    10.6364  13.0277  14.1276

          k =-0.6160-0.6160-0.4579 (  5112 PWs)   bands (ev):

   -37.5998 -37.4337 -37.0589   4.3204   4.7644   4.7644   7.8610   7.8610
    10.9176  12.9865  14.2684

     the Fermi energy is     9.4401 ev

!    total energy              =     -51.28322600 Ry
     estimated scf accuracy    <          2.5E-11 Ry
     smearing contrib. (-TS)   =      -0.00013127 Ry
     internal energy E=F+TS    =     -51.28309473 Ry

     The total energy is F=E-TS. E is the sum of the following terms:
     one-electron contribution =     -14.15335106 Ry
     hartree contribution      =       8.61641765 Ry
     xc contribution           =     -13.90856919 Ry
     ewald contribution        =     -31.83759213 Ry

     convergence has been achieved in   9 iterations

     Forces acting on atoms (cartesian axes, Ry/au):

     atom    1 type  1   force =     0.00000000    0.00000000    0.00000000
     atom    2 type  2   force =     0.00000000    0.00000000    0.00000000
     atom    3 type  2   force =     0.00000000    0.00000000    0.00000000
     atom    4 type  2   force =     0.00000000    0.00000000    0.00000000
     The non-local contrib.  to forces
     atom    1 type  1   force =     0.00000000    0.00000000    0.00000000
     atom    2 type  2   force =     0.00000000    0.00000000    0.00000000
     atom    3 type  2   force =     0.00000000    0.00000000    0.00000000
     atom    4 type  2   force =     0.00000000    0.00000000    0.00000000
     The ionic contribution  to forces
     atom    1 type  1   force =    -0.00000000   -0.00000000   -0.00000000
     atom    2 type  2   force =    -0.00000000   -0.00000000   -0.00000000
     atom    3 type  2   force =    -0.00000000   -0.00000000   -0.00000000
     atom    4 type  2   force =    -0.00000000   -0.00000000   -0.00000000
     The local contribution  to forces
     atom    1 type  1   force =    -0.00000000   -0.00000000   -0.00000000
     atom    2 type  2   force =    -0.00000000    0.00000000   -0.00000000
     atom    3 type  2   force =    -0.00000000    0.00000000    0.00000000
     atom    4 type  2   force =     0.00000000    0.00000000    0.00000000
     The core correction contribution to forces
     atom    1 type  1   force =     0.00000000    0.00000000   -0.00000000
     atom    2 type  2   force =     0.00000000    0.00000000    0.00000000
     atom    3 type  2   force =     0.00000000    0.00000000    0.00000000
     atom    4 type  2   force =     0.00000000    0.00000000    0.00000000
     The Hubbard contrib.    to forces
     atom    1 type  1   force =     0.00000000    0.00000000    0.00000000
     atom    2 type  2   force =     0.00000000    0.00000000    0.00000000
     atom    3 type  2   force =     0.00000000    0.00000000    0.00000000
     atom    4 type  2   force =     0.00000000    0.00000000    0.00000000
     The SCF correction term to forces
     atom    1 type  1   force =    -0.00000000   -0.00000000    0.00000000
     atom    2 type  2   force =     0.00000000   -0.00000000   -0.00000000
     atom    3 type  2   force =     0.00000000    0.00000000   -0.00000000
     atom    4 type  2   force =     0.00000000   -0.00000000   -0.00000000

     Total force =     0.000000     Total SCF correction =     0.000000


     Computing stress (Cartesian axis) and pressure

          total   stress  (Ry/bohr**3)                   (kbar)     P=      725.36
   0.00437257   0.00000000   0.00000000          643.23        0.00        0.00
   0.00000000   0.00437257   0.00000000            0.00      643.23        0.00
   0.00000000   0.00000000   0.00604761            0.00        0.00      889.63

     Energy error            =      8.9E-02 Ry
     Gradient error          =      0.0E+00 Ry/Bohr
     Cell gradient error     =      3.9E+02 kbar

     number of scf cycles    =   3
     number of bfgs steps    =   2

     enthalpy           old  =     -50.4516653496 Ry
     enthalpy           new  =     -50.5406286584 Ry

     CASE: enthalpy          _new < enthalpy          _old

     new trust radius        =       0.2027592321 bohr
ibrav =      6
 celldm(1) =      5.67031727
 celldm(3) =      1.38314645
Input lattice vectors:
     0.84356300     0.00000000     0.00000000
     0.00000000     0.84356300     0.00000000
     0.00000000     0.00000000     1.16677117
New lattice vectors in INITIAL alat:
     0.84356300     0.00000000     0.00000000
     0.00000000     0.84356300     0.00000000
     0.00000000     0.00000000     1.16677117
New lattice vectors in NEW alat (for information only):
     1.00000000     0.00000000     0.00000000
     0.00000000     1.00000000     0.00000000
     0.00000000     0.00000000     1.38314645
Discrepancy in bohr =     0.000000    0.000000    0.000000
     new conv_thr            =            1.0E-10 Ry

     new unit-cell volume =    252.16816 a.u.^3 (    37.36747 Ang^3 )
     density =      2.17340 g/cm^3

CELL_PARAMETERS (alat=  6.72186580)
   0.843563000   0.000000000   0.000000000
   0.000000000   0.843563000   0.000000000
   0.000000000   0.000000000   1.166771172

ATOMIC_POSITIONS (crystal)
Si            0.5000000000        0.5000000000        0.0000000000
Li            0.0000000000        0.0000000000        0.0000000000
Li            0.0000000000        0.0000000000        0.5000000000
Li            0.5000000000        0.5000000000        0.5000000000



     Writing config-only to output data dir ./output/SiLi.save/
     NEW-OLD atomic charge density approx. for the potential
     extrapolated charge   14.73483, renormalised to   13.00000

     total cpu time spent up to now is       26.7 secs

     Self-consistent Calculation

     iteration #  1     ecut=    80.00 Ry     beta= 0.70
     Davidson diagonalization with overlap
     ethr =  1.00E-06,  avg # of iterations =  7.4

     total cpu time spent up to now is       28.1 secs

     total energy              =     -51.38184638 Ry
     estimated scf accuracy    <       0.01204692 Ry

     iteration #  2     ecut=    80.00 Ry     beta= 0.70
     Davidson diagonalization with overlap
     ethr =  9.27E-05,  avg # of iterations =  2.8

     total cpu time spent up to now is       28.8 secs

     total energy              =     -51.41904071 Ry
     estimated scf accuracy    <       0.01870208 Ry

     iteration #  3     ecut=    80.00 Ry     beta= 0.70
     Davidson diagonalization with overlap
     ethr =  9.27E-05,  avg # of iterations =  1.5

     total cpu time spent up to now is       29.3 secs

     total energy              =     -51.42065811 Ry
     estimated scf accuracy    <       0.00270333 Ry

     iteration #  4     ecut=    80.00 Ry     beta= 0.70
     Davidson diagonalization with overlap
     ethr =  2.08E-05,  avg # of iterations =  1.1

     total cpu time spent up to now is       29.8 secs

     total energy              =     -51.41930047 Ry
     estimated scf accuracy    <       0.00214946 Ry

     iteration #  5     ecut=    80.00 Ry     beta= 0.70
     Davidson diagonalization with overlap
     ethr =  1.65E-05,  avg # of iterations =  1.9

     total cpu time spent up to now is       30.4 secs

     total energy              =     -51.41949556 Ry
     estimated scf accuracy    <       0.00001579 Ry

     iteration #  6     ecut=    80.00 Ry     beta= 0.70
     Davidson diagonalization with overlap
     ethr =  1.21E-07,  avg # of iterations =  3.3

     total cpu time spent up to now is       31.1 secs

     total energy              =     -51.41949563 Ry
     estimated scf accuracy    <       0.00001965 Ry

     iteration #  7     ecut=    80.00 Ry     beta= 0.70
     Davidson diagonalization with overlap
     ethr =  1.21E-07,  avg # of iterations =  2.0

     total cpu time spent up to now is       31.7 secs

     total energy              =     -51.41949816 Ry
     estimated scf accuracy    <       0.00000077 Ry

     iteration #  8     ecut=    80.00 Ry     beta= 0.70
     Davidson diagonalization with overlap
     ethr =  5.94E-09,  avg # of iterations =  1.8

     total cpu time spent up to now is       32.2 secs

     total energy              =     -51.41949824 Ry
     estimated scf accuracy    <          7.4E-09 Ry

     iteration #  9     ecut=    80.00 Ry     beta= 0.70
     Davidson diagonalization with overlap
     ethr =  5.66E-11,  avg # of iterations =  2.5

     total cpu time spent up to now is       32.9 secs

     total energy              =     -51.41949824 Ry
     estimated scf accuracy    <          7.2E-10 Ry

     iteration # 10     ecut=    80.00 Ry     beta= 0.70
     Davidson diagonalization with overlap
     ethr =  5.55E-12,  avg # of iterations =  2.0

     total cpu time spent up to now is       33.5 secs

     End of self-consistent calculation

          k = 0.0000 0.0000 0.0000 (  5159 PWs)   bands (ev):

   -39.2620 -38.5268 -38.3724  -2.2815   3.2570   9.2262   9.2262   9.6143
    12.4421  16.3484  16.9905

          k = 0.0000 0.0000 0.1428 (  5143 PWs)   bands (ev):

   -39.2564 -38.5327 -38.3724  -2.2714   3.0340   9.3920   9.3920  10.3340
    12.5974  15.5851  16.4049

          k = 0.0000 0.0000 0.2857 (  5138 PWs)   bands (ev):

   -39.2448 -38.5449 -38.3723  -2.2507   2.6543   9.8126   9.8126  12.1583
    12.9755  13.9589  13.9589

          k = 0.0000 0.0000-0.4285 (  5170 PWs)   bands (ev):

   -39.2389 -38.5512 -38.3722  -2.2399   2.4880  10.1063  10.1063  13.2452
    13.2452  13.9511  16.5824

          k = 0.0000 0.1482 0.0000 (  5141 PWs)   bands (ev):

   -39.2534 -38.5247 -38.3791  -2.1311   3.4927   7.5697   9.4597   9.7591
    14.0837  14.7562  15.7857

          k = 0.0000 0.1482 0.1428 (  5134 PWs)   bands (ev):

   -39.2477 -38.5307 -38.3791  -2.1184   3.2506   7.7496   9.6246  10.4684
    13.6357  14.2087  15.8283

          k = 0.0000 0.1482 0.2857 (  5124 PWs)   bands (ev):

   -39.2362 -38.5429 -38.3790  -2.0919   2.8434   8.1657  10.0422  12.1462
    12.3833  14.2074  14.4722

          k = 0.0000 0.1482-0.4285 (  5128 PWs)   bands (ev):

   -39.2303 -38.5491 -38.3789  -2.0782   2.6662   8.4388  10.3326  11.6037
    13.4976  14.1051  14.6229

          k = 0.0000 0.2964 0.0000 (  5135 PWs)   bands (ev):

   -39.2319 -38.5196 -38.3960  -1.7029   4.1893   5.3708  10.0004  10.1553
    12.1130  14.0031  15.6869

          k = 0.0000 0.2964 0.1428 (  5124 PWs)   bands (ev):

   -39.2263 -38.5256 -38.3959  -1.6836   3.8846   5.5487  10.3173  10.7294
    11.1198  14.9266  15.7828

          k = 0.0000 0.2964 0.2857 (  5096 PWs)   bands (ev):

   -39.2147 -38.5379 -38.3957  -1.6434   3.4039   5.9308   9.8138  10.7252
    12.6166  14.9482  15.2717

          k = 0.0000 0.2964-0.4285 (  5100 PWs)   bands (ev):

   -39.2088 -38.5442 -38.3956  -1.6224   3.2002   6.1729   9.2485  11.0058
    14.2508  14.4034  15.4786

          k = 0.0000 0.4445 0.0000 (  5129 PWs)   bands (ev):

   -39.2096 -38.5143 -38.4140  -1.1104   3.6494   5.2830   9.7068  10.4154
    11.2788  12.5619  15.3778

          k = 0.0000 0.4445 0.1428 (  5115 PWs)   bands (ev):

   -39.2039 -38.5204 -38.4138  -1.0862   3.7744   4.9491   8.8750  11.2154
    11.4350  13.6146  15.5301

          k = 0.0000 0.4445 0.2857 (  5097 PWs)   bands (ev):

   -39.1923 -38.5329 -38.4135  -1.0355   4.0518   4.4519   7.7256  11.8241
    13.0472  15.1517  15.8829

          k = 0.0000 0.4445-0.4285 (  5106 PWs)   bands (ev):

   -39.1864 -38.5393 -38.4133  -1.0089   4.0786   4.4087   7.2092  12.0863
    14.4449  15.4795  16.1756

          k = 0.0000-0.5927 0.0000 (  5124 PWs)   bands (ev):

   -39.2000 -38.5120 -38.4219  -0.7607   2.9178   6.1834   8.3552  10.7973
    11.8276  12.3301  13.8607

          k = 0.0000-0.5927 0.1428 (  5100 PWs)   bands (ev):

   -39.1944 -38.5182 -38.4216  -0.7369   3.0574   5.8004   7.6039  11.6003
    12.4744  12.8949  14.0284

          k = 0.0000-0.5927 0.2857 (  5112 PWs)   bands (ev):

   -39.1827 -38.5308 -38.4212  -0.6873   3.4156   5.2126   6.4730  12.8277
    13.3060  14.4507  14.9991

          k = 0.0000-0.5927-0.4285 (  5072 PWs)   bands (ev):

   -39.1767 -38.5372 -38.4210  -0.6615   3.6725   4.9695   5.9266  13.0580
    14.4028  14.7413  15.6197

          k = 0.1482 0.1482 0.0000 (  5121 PWs)   bands (ev):

   -39.2457 -38.5227 -38.3848  -1.9747   3.7273   7.0670   8.6146  10.1248
    14.2384  15.0331  15.5425

          k = 0.1482 0.1482 0.1428 (  5128 PWs)   bands (ev):

   -39.2400 -38.5286 -38.3847  -1.9592   3.4655   7.2367   8.8848  10.7154
    13.5628  13.8550  15.6888

          k = 0.1482 0.1482 0.2857 (  5128 PWs)   bands (ev):

   -39.2285 -38.5409 -38.3846  -1.9270   3.0303   7.6680   9.3174  11.8883
    12.3200  13.1874  16.0444

          k = 0.1482 0.1482-0.4285 (  5128 PWs)   bands (ev):

   -39.2226 -38.5472 -38.3845  -1.9102   2.8423   7.9700   9.5380  11.1549
    12.6091  14.1855  16.2708

          k = 0.1482 0.2964 0.0000 (  5123 PWs)   bands (ev):

   -39.2267 -38.5178 -38.3989  -1.5277   4.4202   5.2900   8.8113  10.4140
    12.2150  13.6134  15.9377

          k = 0.1482 0.2964 0.1428 (  5126 PWs)   bands (ev):

   -39.2210 -38.5237 -38.3988  -1.5056   4.0929   5.4693   9.0964  10.8882
    11.3144  13.7120  16.0003

          k = 0.1482 0.2964 0.2857 (  5113 PWs)   bands (ev):

   -39.2095 -38.5360 -38.3986  -1.4594   3.5840   5.8729   9.4700   9.8906
    12.4266  13.4604  16.0701

          k = 0.1482 0.2964-0.4285 (  5118 PWs)   bands (ev):

   -39.2036 -38.5424 -38.3985  -1.4351   3.3698   6.1394   9.2316   9.6916
    12.7643  14.2526  15.9965

          k = 0.1482 0.4445 0.0000 (  5102 PWs)   bands (ev):

   -39.2070 -38.5126 -38.4139  -0.9026   3.6393   5.5038   9.4871   9.9224
    10.8344  12.3271  14.2207

          k = 0.1482 0.4445 0.1428 (  5107 PWs)   bands (ev):

   -39.2013 -38.5187 -38.4137  -0.8755   3.7745   5.1372   9.0139   9.8637
    11.3313  13.1538  14.3257

          k = 0.1482 0.4445 0.2857 (  5101 PWs)   bands (ev):

   -39.1898 -38.5312 -38.4134  -0.8186   4.0999   4.5810   7.8238  10.2255
    12.6075  13.9719  14.7861

          k = 0.1482 0.4445-0.4285 (  5108 PWs)   bands (ev):

   -39.1838 -38.5376 -38.4132  -0.7888   4.2372   4.4319   7.2866  10.3385
    13.3540  13.9915  15.8861

          k = 0.1482-0.5927 0.0000 (  5126 PWs)   bands (ev):

   -39.1986 -38.5105 -38.4204  -0.5251   2.9046   6.3835   8.6088   9.9679
    11.2102  11.6280  13.3824

          k = 0.1482-0.5927 0.1428 (  5114 PWs)   bands (ev):

   -39.1929 -38.5166 -38.4202  -0.4988   3.0498   5.9752   7.7881  10.3927
    11.5605  12.5829  13.6073

          k = 0.1482-0.5927 0.2857 (  5094 PWs)   bands (ev):

   -39.1814 -38.5291 -38.4198  -0.4442   3.4224   5.3706   6.5970  10.6928
    12.7967  13.4568  14.8482

          k = 0.1482-0.5927-0.4285 (  5100 PWs)   bands (ev):

   -39.1754 -38.5356 -38.4195  -0.4158   3.6900   5.1247   6.0267  10.7495
    13.6626  13.6786  15.8765

          k = 0.2964 0.2964 0.0000 (  5112 PWs)   bands (ev):

   -39.2138 -38.5132 -38.4061  -1.0234   4.7424   5.0990   7.6106  10.5244
    12.0255  12.7416  14.2198

          k = 0.2964 0.2964 0.1428 (  5114 PWs)   bands (ev):

   -39.2082 -38.5192 -38.4060  -0.9941   4.7026   4.9168   7.8676  10.8921
    11.2295  12.1503  14.3112

          k = 0.2964 0.2964 0.2857 (  5118 PWs)   bands (ev):

   -39.1967 -38.5315 -38.4057  -0.9325   4.1165   5.3633   8.1292   9.5209
    11.3280  12.9635  14.6339

          k = 0.2964 0.2964-0.4285 (  5108 PWs)   bands (ev):

   -39.1908 -38.5379 -38.4056  -0.9000   3.8765   5.6814   8.1999   8.7662
    11.3965  13.5808  15.3420

          k = 0.2964 0.4445 0.0000 (  5103 PWs)   bands (ev):

   -39.2006 -38.5086 -38.4137  -0.2958   3.5762   6.1445   7.3665  10.5070
    10.6985  11.8141  12.9067

          k = 0.2964 0.4445 0.1428 (  5109 PWs)   bands (ev):

   -39.1950 -38.5147 -38.4135  -0.2606   3.7355   5.6429   7.6596   9.4652
    10.9942  12.1601  13.0292

          k = 0.2964 0.4445 0.2857 (  5108 PWs)   bands (ev):

   -39.1836 -38.5270 -38.4131  -0.1866   4.1422   5.0005   7.7587   8.1986
    11.2129  12.6234  13.7514

          k = 0.2964 0.4445-0.4285 (  5104 PWs)   bands (ev):

   -39.1777 -38.5334 -38.4129  -0.1477   4.4579   4.7075   7.4311   7.9030
    11.3295  12.7146  14.4686

          k = 0.2964-0.5927 0.0000 (  5116 PWs)   bands (ev):

   -39.1951 -38.5067 -38.4169   0.1788   2.8705   6.9513   7.4203   9.3657
    10.9619  11.2144  12.4507

          k = 0.2964-0.5927 0.1428 (  5100 PWs)   bands (ev):

   -39.1895 -38.5128 -38.4167   0.2121   3.0292   6.3610   7.8496   8.2959
    11.0329  11.9613  12.7869

          k = 0.2964-0.5927 0.2857 (  5114 PWs)   bands (ev):

   -39.1780 -38.5252 -38.4163   0.2806   3.4373   5.7889   6.9309   7.9926
    11.3286  12.2602  13.6929

          k = 0.2964-0.5927-0.4285 (  5116 PWs)   bands (ev):

   -39.1722 -38.5315 -38.4160   0.3160   3.7313   5.5796   6.2938   7.9568
    11.5245  12.3248  14.0309

          k = 0.4445 0.4445 0.0000 (  5102 PWs)   bands (ev):

   -39.1942 -38.5046 -38.4135   0.6274   3.3009   5.6267   7.0883  10.6856
    10.9599  11.2959  11.9766

          k = 0.4445 0.4445 0.1428 (  5103 PWs)   bands (ev):

   -39.1887 -38.5106 -38.4133   0.6726   3.4781   5.4992   6.9602   9.7632
    10.0644  11.6448  12.2437

          k = 0.4445 0.4445 0.2857 (  5114 PWs)   bands (ev):

   -39.1773 -38.5229 -38.4129   0.7657   3.9345   5.3914   6.4385   8.0367
     9.9872  11.7717  12.9572

          k = 0.4445 0.4445-0.4285 (  5114 PWs)   bands (ev):

   -39.1715 -38.5292 -38.4126   0.8135   4.2637   5.4625   6.0365   7.2686
    10.0746  11.7836  13.2480

          k = 0.4445-0.5927 0.0000 (  5096 PWs)   bands (ev):

   -39.1915 -38.5030 -38.4134   1.3418   2.8331   5.0053   7.7288  10.6015
    10.8513  10.8984  11.6755

          k = 0.4445-0.5927 0.1428 (  5100 PWs)   bands (ev):

   -39.1860 -38.5089 -38.4132   1.3857   3.0056   4.9993   7.6352   8.9389
    10.1099  11.4697  12.1640

          k = 0.4445-0.5927 0.2857 (  5104 PWs)   bands (ev):

   -39.1747 -38.5212 -38.4128   1.4693   3.4501   5.1547   6.9386   7.3361
     9.7355  11.4646  12.6194

          k = 0.4445-0.5927-0.4285 (  5116 PWs)   bands (ev):

   -39.1689 -38.5275 -38.4125   1.5081   3.7714   5.4688   6.2687   6.6112
     9.7815  11.4539  12.7512

          k =-0.5927-0.5927 0.0000 (  5092 PWs)   bands (ev):

   -39.1901 -38.5014 -38.4119   2.8166   2.8166   3.1046   8.1811  10.8085
    10.8085  11.3640  11.8511

          k =-0.5927-0.5927 0.1428 (  5076 PWs)   bands (ev):

   -39.1846 -38.5074 -38.4117   2.9948   2.9948   3.0087   8.3721   9.2692
     9.2692  11.2867  11.9828

          k =-0.5927-0.5927 0.2857 (  5128 PWs)   bands (ev):

   -39.1734 -38.5196 -38.4113   2.8323   3.4546   3.4546   7.5369   7.5369
     8.7463  11.1912  12.1879

          k =-0.5927-0.5927-0.4285 (  5112 PWs)   bands (ev):

   -39.1676 -38.5258 -38.4111   2.7504   3.7876   3.7876   6.7643   6.7643
     8.9310  11.1569  12.2772

     the Fermi energy is     7.9186 ev

!    total energy              =     -51.41949824 Ry
     estimated scf accuracy    <          2.4E-11 Ry
     smearing contrib. (-TS)   =      -0.00035518 Ry
     internal energy E=F+TS    =     -51.41914306 Ry

     The total energy is F=E-TS. E is the sum of the following terms:
     one-electron contribution =     -16.30020369 Ry
     hartree contribution      =       8.97232510 Ry
     xc contribution           =     -13.72233494 Ry
     ewald contribution        =     -30.36892953 Ry

     convergence has been achieved in  10 iterations

     Forces acting on atoms (cartesian axes, Ry/au):

     atom    1 type  1   force =     0.00000000    0.00000000    0.00000000
     atom    2 type  2   force =     0.00000000    0.00000000    0.00000000
     atom    3 type  2   force =     0.00000000    0.00000000    0.00000000
     atom    4 type  2   force =     0.00000000    0.00000000    0.00000000
     The non-local contrib.  to forces
     atom    1 type  1   force =     0.00000000    0.00000000    0.00000000
     atom    2 type  2   force =     0.00000000    0.00000000    0.00000000
     atom    3 type  2   force =     0.00000000    0.00000000    0.00000000
     atom    4 type  2   force =     0.00000000    0.00000000    0.00000000
     The ionic contribution  to forces
     atom    1 type  1   force =    -0.00000000   -0.00000000   -0.00000000
     atom    2 type  2   force =    -0.00000000   -0.00000000   -0.00000000
     atom    3 type  2   force =    -0.00000000   -0.00000000   -0.00000000
     atom    4 type  2   force =    -0.00000000   -0.00000000   -0.00000000
     The local contribution  to forces
     atom    1 type  1   force =    -0.00000000   -0.00000000    0.00000000
     atom    2 type  2   force =    -0.00000000    0.00000000   -0.00000000
     atom    3 type  2   force =    -0.00000000    0.00000000    0.00000000
     atom    4 type  2   force =     0.00000000    0.00000000    0.00000000
     The core correction contribution to forces
     atom    1 type  1   force =     0.00000000    0.00000000    0.00000000
     atom    2 type  2   force =     0.00000000    0.00000000    0.00000000
     atom    3 type  2   force =     0.00000000    0.00000000    0.00000000
     atom    4 type  2   force =     0.00000000    0.00000000    0.00000000
     The Hubbard contrib.    to forces
     atom    1 type  1   force =     0.00000000    0.00000000    0.00000000
     atom    2 type  2   force =     0.00000000    0.00000000    0.00000000
[...]
        k(   53) = (   0.4489747  -0.5986329   0.0000000), wk =   0.0208333
        k(   54) = (   0.4489747  -0.5986329   0.1439296), wk =   0.0416667
        k(   55) = (   0.4489747  -0.5986329   0.2878592), wk =   0.0416667
        k(   56) = (   0.4489747  -0.5986329  -0.4317888), wk =   0.0208333
        k(   57) = (  -0.5986329  -0.5986329   0.0000000), wk =   0.0052083
        k(   58) = (  -0.5986329  -0.5986329   0.1439296), wk =   0.0104167
        k(   59) = (  -0.5986329  -0.5986329   0.2878592), wk =   0.0104167
        k(   60) = (  -0.5986329  -0.5986329  -0.4317888), wk =   0.0052083

     Dense  grid:    23709 G-vectors     FFT dimensions: (  32,  32,  45)

     Estimated max dynamical RAM per process >      17.61 MB

     Estimated total dynamical RAM >     140.92 MB

     Initial potential from superposition of free atoms

     starting charge      12.9857, renormalised to      13.0000
     Starting wfcs are   10 randomized atomic wfcs +    1 random wfcs

     total cpu time spent up to now is       52.8 secs

     Self-consistent Calculation

     iteration #  1     ecut=    80.00 Ry     beta= 0.70
     Davidson diagonalization with overlap
     c_bands:  1 eigenvalues not converged
     c_bands:  1 eigenvalues not converged
     c_bands:  1 eigenvalues not converged
     c_bands:  1 eigenvalues not converged
     c_bands:  1 eigenvalues not converged
     c_bands:  1 eigenvalues not converged
     c_bands:  1 eigenvalues not converged
     c_bands:  2 eigenvalues not converged
     c_bands:  1 eigenvalues not converged
     c_bands:  1 eigenvalues not converged
     c_bands:  1 eigenvalues not converged
     c_bands:  1 eigenvalues not converged
     c_bands:  1 eigenvalues not converged
     ethr =  1.00E-06,  avg # of iterations = 16.0

     total cpu time spent up to now is       53.9 secs

     total energy              =     -51.39389777 Ry
     estimated scf accuracy    <       0.02322577 Ry

     iteration #  2     ecut=    80.00 Ry     beta= 0.70
     Davidson diagonalization with overlap
     ethr =  1.79E-04,  avg # of iterations =  2.0

     total cpu time spent up to now is       54.2 secs

     total energy              =     -51.39521089 Ry
     estimated scf accuracy    <       0.00744343 Ry

     iteration #  3     ecut=    80.00 Ry     beta= 0.70
     Davidson diagonalization with overlap
     ethr =  5.73E-05,  avg # of iterations =  2.0

     total cpu time spent up to now is       54.6 secs

     total energy              =     -51.39699930 Ry
     estimated scf accuracy    <       0.00147136 Ry

     iteration #  4     ecut=    80.00 Ry     beta= 0.70
     Davidson diagonalization with overlap
     ethr =  1.13E-05,  avg # of iterations =  1.5

     total cpu time spent up to now is       54.9 secs

     total energy              =     -51.39724862 Ry
     estimated scf accuracy    <       0.00000452 Ry

     iteration #  5     ecut=    80.00 Ry     beta= 0.70
     Davidson diagonalization with overlap
     ethr =  3.47E-08,  avg # of iterations =  3.3

     total cpu time spent up to now is       55.3 secs

     total energy              =     -51.39725112 Ry
     estimated scf accuracy    <       0.00000030 Ry

     iteration #  6     ecut=    80.00 Ry     beta= 0.70
     Davidson diagonalization with overlap
     ethr =  2.34E-09,  avg # of iterations =  1.8

     total cpu time spent up to now is       55.6 secs

     total energy              =     -51.39725117 Ry
     estimated scf accuracy    <          9.0E-09 Ry

     iteration #  7     ecut=    80.00 Ry     beta= 0.70
     Davidson diagonalization with overlap
     ethr =  6.94E-11,  avg # of iterations =  2.2

     total cpu time spent up to now is       56.0 secs

     total energy              =     -51.39725117 Ry
     estimated scf accuracy    <          1.9E-10 Ry

     iteration #  8     ecut=    80.00 Ry     beta= 0.70
     Davidson diagonalization with overlap
     ethr =  1.44E-12,  avg # of iterations =  2.8

     total cpu time spent up to now is       56.3 secs

     End of self-consistent calculation

          k = 0.0000 0.0000 0.0000 (  2951 PWs)   bands (ev):

   -38.9877 -38.3058 -38.1156  -2.1124   3.4028   9.5454   9.5454   9.9941
    12.7096  16.8140  17.4340

          k = 0.0000 0.0000 0.1439 (  2946 PWs)   bands (ev):

   -38.9809 -38.3129 -38.1157  -2.1060   3.1961   9.7145   9.7145  10.7040
    12.8651  15.9877  15.9877

          k = 0.0000 0.0000 0.2879 (  2930 PWs)   bands (ev):

   -38.9666 -38.3278 -38.1158  -2.0930   2.8416  10.1443  10.1443  12.5149
    13.2421  14.3289  14.3289

          k = 0.0000 0.0000-0.4318 (  2950 PWs)   bands (ev):

   -38.9592 -38.3355 -38.1158  -2.0863   2.6858  10.4458  10.4458  13.4840
    13.6001  13.6001  14.2732

          k = 0.0000 0.1497 0.0000 (  2940 PWs)   bands (ev):

   -38.9775 -38.3033 -38.1239  -1.9612   3.6438   7.8442   9.7838  10.1306
    14.4153  15.1516  16.1957

          k = 0.0000 0.1497 0.1439 (  2944 PWs)   bands (ev):

   -38.9706 -38.3105 -38.1239  -1.9519   3.4175   8.0247   9.9519  10.8327
    14.0026  14.5382  16.2361

          k = 0.0000 0.1497 0.2879 (  2955 PWs)   bands (ev):

   -38.9562 -38.3254 -38.1240  -1.9326   3.0339   8.4464  10.3787  12.4955
    12.7256  14.5823  14.8067

          k = 0.0000 0.1497-0.4318 (  2956 PWs)   bands (ev):

   -38.9488 -38.3332 -38.1240  -1.9226   2.8664   8.7244  10.6768  11.9303
    13.8575  14.4247  14.9616

          k = 0.0000 0.2993 0.0000 (  2958 PWs)   bands (ev):

   -38.9518 -38.2973 -38.1448  -1.5305   4.3567   5.6057  10.3647  10.4944
    12.4322  14.3781  16.1009

          k = 0.0000 0.2993 0.1439 (  2959 PWs)   bands (ev):

   -38.9448 -38.3046 -38.1448  -1.5138   4.0664   5.7839  10.6597  11.0872
    11.4306  15.3025  16.2107

          k = 0.0000 0.2993 0.2879 (  2949 PWs)   bands (ev):

   -38.9304 -38.3197 -38.1448  -1.4791   3.6041   6.1709  10.1092  11.0769
    12.9660  15.3381  15.6636

          k = 0.0000 0.2993-0.4318 (  2944 PWs)   bands (ev):

   -38.9228 -38.3276 -38.1447  -1.4610   3.4076   6.4167   9.5357  11.3650
    14.6255  14.7137  15.8963

          k = 0.0000 0.4490 0.0000 (  2968 PWs)   bands (ev):

   -38.9247 -38.2909 -38.1676  -0.9340   3.8603   5.4794   9.9635  10.7712
    11.6472  12.9218  15.7785

          k = 0.0000 0.4490 0.1439 (  2960 PWs)   bands (ev):

   -38.9176 -38.2984 -38.1675  -0.9113   3.9866   5.1546   9.1370  11.5656
    11.8069  13.9730  15.9325

          k = 0.0000 0.4490 0.2879 (  2954 PWs)   bands (ev):

   -38.9030 -38.3140 -38.1671  -0.8639   4.2676   4.6676   7.9830  12.2059
    13.3915  15.5318  16.2965

          k = 0.0000 0.4490-0.4318 (  2962 PWs)   bands (ev):

   -38.8953 -38.3221 -38.1670  -0.8391   4.2989   4.6252   7.4634  12.4761
    14.7581  15.8773  16.0998

          k = 0.0000-0.5986 0.0000 (  2956 PWs)   bands (ev):

   -38.9130 -38.2880 -38.1777  -0.5814   3.1194   6.4152   8.5656  11.1468
    12.1857  12.7539  14.1962

          k = 0.0000-0.5986 0.1439 (  2954 PWs)   bands (ev):

   -38.9059 -38.2956 -38.1775  -0.5585   3.2599   6.0369   7.8264  11.9474
    12.9024  13.2468  14.3641

          k = 0.0000-0.5986 0.2879 (  2952 PWs)   bands (ev):

   -38.8911 -38.3115 -38.1770  -0.5110   3.6199   5.4532   6.6993  13.2677
    13.6456  14.7847  15.3686

          k = 0.0000-0.5986-0.4318 (  2960 PWs)   bands (ev):

   -38.8834 -38.3197 -38.1767  -0.4862   3.8778   5.2113   6.1527  13.5081
    14.7170  15.0713  16.0639

          k = 0.1497 0.1497 0.0000 (  2967 PWs)   bands (ev):

   -38.9683 -38.3010 -38.1309  -1.8037   3.8838   7.3101   8.9593  10.4866
    14.6274  15.4114  15.9113

          k = 0.1497 0.1497 0.1439 (  2955 PWs)   bands (ev):

   -38.9614 -38.3082 -38.1309  -1.7913   3.6371   7.4824   9.2262  11.0742
    13.9077  14.2402  16.0545

          k = 0.1497 0.1497 0.2879 (  2960 PWs)   bands (ev):

   -38.9470 -38.3232 -38.1309  -1.7656   3.2239   7.9201   9.6631  12.2045
    12.6773  13.5539  16.4111

          k = 0.1497 0.1497-0.4318 (  2962 PWs)   bands (ev):

   -38.9396 -38.3310 -38.1309  -1.7523   3.0447   8.2267   9.8882  11.4593
    12.9815  14.5003  16.5239

          k = 0.1497 0.2993 0.0000 (  2959 PWs)   bands (ev):

   -38.9455 -38.2951 -38.1486  -1.3535   4.5930   5.5106   9.1590  10.7698
    12.5413  13.9708  16.3536

          k = 0.1497 0.2993 0.1439 (  2963 PWs)   bands (ev):

   -38.9385 -38.3025 -38.1485  -1.3337   4.2794   5.6909   9.4432  11.2349
    11.6287  14.0741  16.4142

          k = 0.1497 0.2993 0.2879 (  2970 PWs)   bands (ev):

   -38.9240 -38.3176 -38.1484  -1.2922   3.7868   6.1006   9.8131  10.1871
    12.7765  13.8200  16.4683

          k = 0.1497 0.2993-0.4318 (  2966 PWs)   bands (ev):

   -38.9165 -38.3255 -38.1484  -1.2706   3.5788   6.3717   9.5102  10.0430
    13.1402  14.5641  16.4166

          k = 0.1497 0.4490 0.0000 (  2961 PWs)   bands (ev):

   -38.9216 -38.2890 -38.1677  -0.7232   3.8421   5.7058   9.8478  10.1846
    11.1832  12.6723  14.5944

          k = 0.1497 0.4490 0.1439 (  2959 PWs)   bands (ev):

   -38.9146 -38.2965 -38.1675  -0.6972   3.9792   5.3469   9.2800  10.2276
    11.6690  13.5005  14.6998

          k = 0.1497 0.4490 0.2879 (  2961 PWs)   bands (ev):

   -38.8999 -38.3120 -38.1672  -0.6429   4.3101   4.7974   8.0802  10.5895
    12.9515  14.3270  15.1701

          k = 0.1497 0.4490-0.4318 (  2960 PWs)   bands (ev):

   -38.8923 -38.3201 -38.1670  -0.6144   4.4584   4.6425   7.5378  10.6992
    13.7400  14.3148  16.2898

          k = 0.1497-0.5986 0.0000 (  2950 PWs)   bands (ev):

   -38.9113 -38.2863 -38.1761  -0.3418   3.0990   6.6207   8.8246  10.3427
    11.5531  11.9725  13.7327

          k = 0.1497-0.5986 0.1439 (  2956 PWs)   bands (ev):

   -38.9043 -38.2939 -38.1758  -0.3161   3.2454   6.2154   8.0147  10.7789
    11.8919  12.9185  13.9597

          k = 0.1497-0.5986 0.2879 (  2960 PWs)   bands (ev):

   -38.8896 -38.3097 -38.1753  -0.2627   3.6208   5.6121   6.8240  11.0690
    13.1522  13.7936  15.2150

          k = 0.1497-0.5986-0.4318 (  2960 PWs)   bands (ev):

   -38.8819 -38.3179 -38.1751  -0.2349   3.8899   5.3663   6.2519  11.1177
    13.9982  14.0702  16.4864

          k = 0.2993 0.2993 0.0000 (  2963 PWs)   bands (ev):

   -38.9300 -38.2899 -38.1579  -0.8439   4.9324   5.2885   7.9655  10.8693
    12.3587  13.0723  14.6123

          k = 0.2993 0.2993 0.1439 (  2965 PWs)   bands (ev):

   -38.9230 -38.2972 -38.1578  -0.8160   4.9033   5.1092   8.2206  11.2318
    11.5234  12.4902  14.7012

          k = 0.2993 0.2993 0.2879 (  2981 PWs)   bands (ev):

   -38.9085 -38.3125 -38.1576  -0.7573   4.3273   5.5620   8.4808   9.7861
    11.6874  13.2914  15.0251

          k = 0.2993 0.2993-0.4318 (  2976 PWs)   bands (ev):

   -38.9010 -38.3205 -38.1575  -0.7264   4.0907   5.8843   8.5493   9.0198
    11.7705  13.9006  15.7352

          k = 0.2993 0.4490 0.0000 (  2955 PWs)   bands (ev):

   -38.9140 -38.2844 -38.1678  -0.1080   3.7574   6.3641   7.7091  10.7864
    11.0262  12.1330  13.2816

          k = 0.2993 0.4490 0.1439 (  2969 PWs)   bands (ev):

   -38.9071 -38.2919 -38.1677  -0.0728   3.9193   5.8683   7.9970   9.7401
    11.3114  12.4832  13.4044

          k = 0.2993 0.4490 0.2879 (  2975 PWs)   bands (ev):

   -38.8926 -38.3074 -38.1673   0.0011   4.3328   5.2234   8.0629   8.4781
    11.5568  12.9558  14.1238

          k = 0.2993 0.4490-0.4318 (  2978 PWs)   bands (ev):

   -38.8850 -38.3154 -38.1671   0.0399   4.6515   4.9307   7.6708   8.2304
    11.6941  13.0474  14.8506

          k = 0.2993-0.5986 0.0000 (  2954 PWs)   bands (ev):

   -38.9073 -38.2821 -38.1721   0.3737   3.0471   7.2052   7.7554   9.5981
    11.2768  11.5350  12.8208

          k = 0.2993-0.5986 0.1439 (  2964 PWs)   bands (ev):

   -38.9003 -38.2897 -38.1719   0.4077   3.2077   6.6167   8.1811   8.5335
    11.3464  12.2890  13.1443

          k = 0.2993-0.5986 0.2879 (  2970 PWs)   bands (ev):

   -38.8858 -38.3053 -38.1714   0.4780   3.6205   6.0328   7.1589   8.3174
    11.6671  12.6013  14.0556

          k = 0.2993-0.5986-0.4318 (  2980 PWs)   bands (ev):

   -38.8783 -38.3134 -38.1712   0.5143   3.9175   5.8193   6.5159   8.2731
    11.8847  12.6639  14.4114

          k = 0.4490 0.4490 0.0000 (  2976 PWs)   bands (ev):

   -38.9065 -38.2799 -38.1681   0.8270   3.4609   5.9463   7.3392  10.9946
    11.2535  11.5961  12.3601

          k = 0.4490 0.4490 0.1439 (  2974 PWs)   bands (ev):

   -38.8995 -38.2873 -38.1679   0.8745   3.6406   5.7927   7.2282  10.0264
    10.3724  11.9717  12.6080

          k = 0.4490 0.4490 0.2879 (  2980 PWs)   bands (ev):

   -38.8852 -38.3028 -38.1674   0.9725   4.1035   5.6461   6.7178   8.2710
    10.3269  12.1155  13.3192

          k = 0.4490 0.4490-0.4318 (  2986 PWs)   bands (ev):

   -38.8777 -38.3108 -38.1672   1.0231   4.4370   5.6880   6.3307   7.4913
    10.4327  12.1260  13.6229

          k = 0.4490-0.5986 0.0000 (  2972 PWs)   bands (ev):

   -38.9033 -38.2780 -38.1682   1.5529   2.9912   5.3022   8.0104  10.8629
    11.1486  11.2002  12.0598

          k = 0.4490-0.5986 0.1439 (  2982 PWs)   bands (ev):

   -38.8964 -38.2854 -38.1680   1.6016   3.1661   5.2819   7.9181   9.1882
    10.4012  11.8222  12.5052

          k = 0.4490-0.5986 0.2879 (  2978 PWs)   bands (ev):

   -38.8821 -38.3008 -38.1675   1.6954   3.6166   5.4163   7.1934   7.5625
    10.0639  11.8159  12.9816

          k = 0.4490-0.5986-0.4318 (  2980 PWs)   bands (ev):

   -38.8746 -38.3088 -38.1673   1.7396   3.9422   5.7308   6.4994   6.8274
    10.1318  11.8017  13.1263

          k =-0.5986-0.5986 0.0000 (  2992 PWs)   bands (ev):

   -38.9016 -38.2763 -38.1666   2.9669   2.9669   3.4550   8.4834  11.0986
    11.0986  11.7586  12.1585

          k =-0.5986-0.5986 0.1439 (  2984 PWs)   bands (ev):

   -38.8948 -38.2837 -38.1663   3.1476   3.1476   3.3510   8.6899   9.5222
     9.5222  11.6587  12.3191

          k =-0.5986-0.5986 0.2879 (  2996 PWs)   bands (ev):

   -38.8805 -38.2990 -38.1659   3.1607   3.6139   3.6139   7.7609   7.7609
     9.0940  11.5478  12.5527

          k =-0.5986-0.5986-0.4318 (  2984 PWs)   bands (ev):

   -38.8731 -38.3069 -38.1656   3.0730   3.9514   3.9514   6.9766   6.9766
     9.2936  11.5095  12.6529

     the Fermi energy is     8.2121 ev

!    total energy              =     -51.39725117 Ry
     estimated scf accuracy    <          1.7E-12 Ry
     smearing contrib. (-TS)   =      -0.00032626 Ry
     internal energy E=F+TS    =     -51.39692491 Ry

     The total energy is F=E-TS. E is the sum of the following terms:
     one-electron contribution =     -15.89372874 Ry
     hartree contribution      =       8.90120063 Ry
     xc contribution           =     -13.75599136 Ry
     ewald contribution        =     -30.64840544 Ry

     convergence has been achieved in   8 iterations

     Forces acting on atoms (cartesian axes, Ry/au):

     atom    1 type  1   force =     0.00000000    0.00000000    0.00000000
     atom    2 type  2   force =     0.00000000    0.00000000    0.00000000
     atom    3 type  2   force =     0.00000000    0.00000000    0.00000000
     atom    4 type  2   force =     0.00000000    0.00000000    0.00000000
     The non-local contrib.  to forces
     atom    1 type  1   force =     0.00000000    0.00000000    0.00000000
     atom    2 type  2   force =     0.00000000    0.00000000    0.00000000
     atom    3 type  2   force =     0.00000000    0.00000000    0.00000000
     atom    4 type  2   force =     0.00000000    0.00000000    0.00000000
     The ionic contribution  to forces
     atom    1 type  1   force =     0.00000000    0.00000000   -0.00000000
     atom    2 type  2   force =    -0.00000000   -0.00000000   -0.00000000
     atom    3 type  2   force =    -0.00000000   -0.00000000    0.00000000
     atom    4 type  2   force =     0.00000000    0.00000000    0.00000000
     The local contribution  to forces
     atom    1 type  1   force =    -0.00000000   -0.00000000   -0.00000000
     atom    2 type  2   force =    -0.00000000    0.00000000   -0.00000000
     atom    3 type  2   force =    -0.00000000    0.00000000    0.00000000
     atom    4 type  2   force =     0.00000000    0.00000000    0.00000000
     The core correction contribution to forces
     atom    1 type  1   force =    -0.00000000   -0.00000000   -0.00000000
     atom    2 type  2   force =     0.00000000    0.00000000    0.00000000
     atom    3 type  2   force =     0.00000000    0.00000000    0.00000000
     atom    4 type  2   force =     0.00000000    0.00000000    0.00000000
     The Hubbard contrib.    to forces
     atom    1 type  1   force =     0.00000000    0.00000000    0.00000000
     atom    2 type  2   force =     0.00000000    0.00000000    0.00000000
     atom    3 type  2   force =     0.00000000    0.00000000    0.00000000
     atom    4 type  2   force =     0.00000000    0.00000000    0.00000000
     The SCF correction term to forces
     atom    1 type  1   force =    -0.00000000   -0.00000000   -0.00000000
     atom    2 type  2   force =    -0.00000000    0.00000000    0.00000000
     atom    3 type  2   force =    -0.00000000   -0.00000000   -0.00000000
     atom    4 type  2   force =     0.00000000    0.00000000   -0.00000000

     Total force =     0.000000     Total SCF correction =     0.000000


     Computing stress (Cartesian axis) and pressure

          total   stress  (Ry/bohr**3)                   (kbar)     P=      500.07
   0.00339809   0.00000000   0.00000000          499.88        0.00        0.00
   0.00000000   0.00339809   0.00000000            0.00      499.88        0.00
   0.00000000   0.00000000   0.00340205            0.00        0.00      500.46


     Writing all to output data dir ./output/SiLi.save/

     init_run     :      1.15s CPU      1.42s WALL (       2 calls)
     electrons    :     37.60s CPU     42.17s WALL (       8 calls)
     update_pot   :      2.56s CPU      2.62s WALL (       6 calls)
     forces       :      2.08s CPU      2.16s WALL (       8 calls)
     stress       :      8.01s CPU      8.45s WALL (       8 calls)

     Called by init_run:
     wfcinit      :      0.30s CPU      0.30s WALL (       2 calls)
     potinit      :      0.32s CPU      0.47s WALL (       2 calls)
     hinit0       :      0.50s CPU      0.55s WALL (       2 calls)

     Called by electrons:
     c_bands      :     32.32s CPU     35.88s WALL (      64 calls)
     sum_band     :      4.75s CPU      5.02s WALL (      64 calls)
     v_of_rho     :      0.55s CPU      1.26s WALL (      69 calls)
     mix_rho      :      0.03s CPU      0.14s WALL (      64 calls)

     Called by c_bands:
     init_us_2    :      1.31s CPU      1.42s WALL (    8760 calls)
     init_us_2:cp :      1.30s CPU      1.42s WALL (    8760 calls)
     cegterg      :     29.93s CPU     31.14s WALL (    3840 calls)

     Called by *egterg:
     cdiaghg      :      1.96s CPU      2.05s WALL (   13997 calls)
     h_psi        :     24.75s CPU     25.72s WALL (   14657 calls)
     g_psi        :      0.16s CPU      0.17s WALL (   10697 calls)

     Called by h_psi:
     h_psi:calbec :      1.76s CPU      1.84s WALL (   14657 calls)
     vloc_psi     :     21.57s CPU     22.41s WALL (   14657 calls)
     add_vuspsi   :      1.28s CPU      1.33s WALL (   14657 calls)

     General routines
     calbec       :      2.14s CPU      2.22s WALL (   17057 calls)
     fft          :      0.75s CPU      1.70s WALL (     891 calls)
     ffts         :      0.02s CPU      0.05s WALL (      64 calls)
     fftw         :     22.10s CPU     22.89s WALL (  273534 calls)

     Parallel routines

     PWSCF        :     51.65s CPU     57.37s WALL


   This run was terminated on:  12:29:37  29Dec2024            

=------------------------------------------------------------------------------=
   JOB DONE.
=------------------------------------------------------------------------------=
