
     Program PWSCF v.7.2 starts on 29Dec2024 at 11:28:17 

     This program is part of the open-source Quantum ESPRESSO suite
     for quantum simulation of materials; please cite
         "P. Giannozzi et al., J. Phys.:Condens. Matter 21 395502 (2009);
         "P. Giannozzi et al., J. Phys.:Condens. Matter 29 465901 (2017);
         "P. Giannozzi et al., J. Chem. Phys. 152 154105 (2020);
          URL http://www.quantum-espresso.org", 
     in publications or presentations arising from this work. More details at
     http://www.quantum-espresso.org/quote

     Parallel version (MPI & OpenMP), running on       8 processor cores
     Number of MPI processes:                 8
     Threads/MPI process:                     1

     MPI processes distributed on     1 nodes
     482900 MiB available memory on the printing compute node when the environment starts

     Waiting for input...
     Reading input from standard input

     Current dimensions of program PWSCF are:
     Max number of different atomic species (ntypx) = 10
     Max number of k-points (npk) =  40000
     Max angular momentum in pseudopotentials (lmaxx) =  4

     R & G space division:  proc/nbgrp/npool/nimage =       8
     Subspace diagonalization in iterative solution of the eigenvalue problem:
     a serial algorithm will be used


     Parallelization info
     --------------------
     sticks:   dense  smooth     PW     G-vecs:    dense   smooth      PW
     Min          91      91     26                 1617     1617     263
     Max          92      92     27                 1618     1618     266
     Sum         733     733    211                12939    12939    2109

     Using Slab Decomposition



     bravais-lattice index     =            2
     lattice parameter (alat)  =       8.1303  a.u.
     unit-cell volume          =     134.3584 (a.u.)^3
     number of atoms/cell      =            4
     number of atomic types    =            2
     number of electrons       =        15.00
     number of Kohn-Sham states=           12
     kinetic-energy cutoff     =      80.0000  Ry
     charge density cutoff     =     320.0000  Ry
     scf convergence threshold =      1.0E-08
     mixing beta               =       0.7000
     number of iterations used =            8  plain     mixing
     energy convergence thresh.=      1.0E-04
     force convergence thresh. =      1.0E-03
     press convergence thresh. =      1.0E+00
     Exchange-correlation= PBE
                           (   1   4   3   4   0   0   0)
     nstep                     =           50


     celldm(1)=   8.130331  celldm(2)=   0.000000  celldm(3)=   0.000000
     celldm(4)=   0.000000  celldm(5)=   0.000000  celldm(6)=   0.000000

     crystal axes: (cart. coord. in units of alat)
               a(1) = (  -0.500000   0.000000   0.500000 )  
               a(2) = (   0.000000   0.500000   0.500000 )  
               a(3) = (  -0.500000   0.500000   0.000000 )  

     reciprocal axes: (cart. coord. in units 2 pi/alat)
               b(1) = ( -1.000000 -1.000000  1.000000 )  
               b(2) = (  1.000000  1.000000  1.000000 )  
               b(3) = ( -1.000000  1.000000 -1.000000 )  


     PseudoPot. # 1 for Si read from file:
     ../pseudo/Si_ONCV_PBE_sr.upf
     MD5 check sum: e543d271109d17c80368dfa7c482276d
     Pseudo is Norm-conserving + core correction, Zval =  4.0
     Generated using ONCVPSP code by D. R. Hamann
     Using radial grid of 1510 points,  6 beta functions with: 
                l(1) =   0
                l(2) =   0
                l(3) =   1
                l(4) =   1
                l(5) =   2
                l(6) =   2

     PseudoPot. # 2 for Li read from file:
     ../pseudo/Li_ONCV_PBE_sr.upf
     MD5 check sum: 50ff420e78310ffa21704f3361e624a4
     Pseudo is Norm-conserving, Zval =  3.0
     Generated using ONCVPSP code by D. R. Hamann
     Using radial grid of 1944 points,  4 beta functions with: 
                l(1) =   0
                l(2) =   0
                l(3) =   1
                l(4) =   1

     atomic species   valence    mass     pseudopotential
        Si             4.00    28.08550     Si( 1.00)
        Li             3.00     6.94100     Li( 1.00)

     48 Sym. Ops., with inversion, found



   Cartesian axes

     site n.     atom                  positions (alat units)
         1           Si  tau(   1) = (   0.2500000   0.2500000   0.2500000  )
         2           Si  tau(   2) = (   0.7500000   0.7500000   0.7500000  )
         3           Si  tau(   3) = (   0.0000000   0.0000000   0.5000000  )
         4           Li  tau(   4) = (   0.0000000   0.0000000   0.0000000  )

     number of k points=     8  Marzari-Vanderbilt smearing, width (Ry)=  0.0200
                       cart. coord. in units 2pi/alat
        k(    1) = (   0.0000000   0.0000000   0.0000000), wk =   0.0312500
        k(    2) = (  -0.2500000   0.2500000  -0.2500000), wk =   0.2500000
        k(    3) = (   0.5000000  -0.5000000   0.5000000), wk =   0.1250000
        k(    4) = (   0.0000000   0.5000000   0.0000000), wk =   0.1875000
        k(    5) = (   0.7500000  -0.2500000   0.7500000), wk =   0.7500000
        k(    6) = (   0.5000000   0.0000000   0.5000000), wk =   0.3750000
        k(    7) = (   0.0000000  -1.0000000   0.0000000), wk =   0.0937500
        k(    8) = (  -0.5000000  -1.0000000   0.0000000), wk =   0.1875000

     Dense  grid:    12939 G-vectors     FFT dimensions: (  36,  36,  36)

     Estimated max dynamical RAM per process >      13.37 MB

     Estimated total dynamical RAM >     106.92 MB

     Initial potential from superposition of free atoms

     starting charge      14.9936, renormalised to      15.0000
     Starting wfcs are   14 randomized atomic wfcs

     total cpu time spent up to now is        0.6 secs

     Self-consistent Calculation

     iteration #  1     ecut=    80.00 Ry     beta= 0.70
     Davidson diagonalization with overlap
     ethr =  1.00E-02,  avg # of iterations =  5.1

     Threshold (ethr) on eigenvalues was too large:
     Diagonalizing with lowered threshold

     Davidson diagonalization with overlap
     ethr =  5.26E-04,  avg # of iterations =  2.6

     total cpu time spent up to now is        0.7 secs

     total energy              =     -37.41375963 Ry
     estimated scf accuracy    <       0.08099133 Ry

     iteration #  2     ecut=    80.00 Ry     beta= 0.70
     Davidson diagonalization with overlap
     ethr =  5.40E-04,  avg # of iterations =  2.2

     total cpu time spent up to now is        0.8 secs

     total energy              =     -37.41953362 Ry
     estimated scf accuracy    <       0.00438157 Ry

     iteration #  3     ecut=    80.00 Ry     beta= 0.70
     Davidson diagonalization with overlap
     ethr =  2.92E-05,  avg # of iterations =  5.8

     total cpu time spent up to now is        0.8 secs

     total energy              =     -37.41985703 Ry
     estimated scf accuracy    <       0.00021496 Ry

     iteration #  4     ecut=    80.00 Ry     beta= 0.70
     Davidson diagonalization with overlap
     ethr =  1.43E-06,  avg # of iterations =  4.9

     total cpu time spent up to now is        0.9 secs

     total energy              =     -37.41987604 Ry
     estimated scf accuracy    <       0.00000120 Ry

     iteration #  5     ecut=    80.00 Ry     beta= 0.70
     Davidson diagonalization with overlap
     ethr =  8.02E-09,  avg # of iterations =  4.0

     total cpu time spent up to now is        1.0 secs

     total energy              =     -37.41987715 Ry
     estimated scf accuracy    <       0.00000013 Ry

     iteration #  6     ecut=    80.00 Ry     beta= 0.70
     Davidson diagonalization with overlap
     ethr =  8.39E-10,  avg # of iterations =  2.1

     total cpu time spent up to now is        1.0 secs

     total energy              =     -37.41987719 Ry
     estimated scf accuracy    <       0.00000002 Ry

     iteration #  7     ecut=    80.00 Ry     beta= 0.70
     Davidson diagonalization with overlap
     ethr =  1.61E-10,  avg # of iterations =  1.6

     total cpu time spent up to now is        1.1 secs

     End of self-consistent calculation

          k = 0.0000 0.0000 0.0000 (  1639 PWs)   bands (ev):

   -21.8932   4.8359  21.8250  21.8250  21.8250  22.1385  22.1385  22.1385
    27.4620  27.4620  30.9721  30.9721

          k =-0.2500 0.2500-0.2500 (  1624 PWs)   bands (ev):

   -21.8551   5.8332  15.2587  19.9249  19.9249  23.2733  23.2733  26.2397
    26.6826  26.6826  31.3433  37.6528

          k = 0.5000-0.5000 0.5000 (  1622 PWs)   bands (ev):

   -21.8172   7.9009  10.9913  20.1284  20.1284  20.6441  20.6441  26.3613
    32.6392  32.6392  32.7668  35.4140

          k = 0.0000 0.5000 0.0000 (  1612 PWs)   bands (ev):

   -21.8436   6.2066  17.0590  17.0590  18.3062  20.3334  22.7170  29.4176
    29.7553  29.7553  32.8668  32.8668

          k = 0.7500-0.2500 0.7500 (  1623 PWs)   bands (ev):

   -21.8069   8.5100  12.1832  15.3832  16.6580  21.4371  26.1242  26.6782
    31.0203  33.2080  35.2828  36.7606

          k = 0.5000 0.0000 0.5000 (  1624 PWs)   bands (ev):

   -21.8184   7.5272  13.3649  14.9528  18.7084  22.8086  25.2847  25.5645
    29.8471  31.8189  34.2313  34.2428

          k = 0.0000-1.0000 0.0000 (  1604 PWs)   bands (ev):

   -21.7964   9.8906  11.5310  15.4338  15.4338  18.9864  23.1576  33.9894
    35.3353  35.3353  35.8510  35.8510

          k =-0.5000-1.0000 0.0000 (  1628 PWs)   bands (ev):

   -21.7955  11.3138  11.6531  11.6531  15.4938  25.6105  25.6105  26.2023
    28.1377  35.4011  37.2649  37.2649

     the Fermi energy is    26.4402 ev

!    total energy              =     -37.41987719 Ry
     estimated scf accuracy    <          5.9E-10 Ry
     smearing contrib. (-TS)   =       0.00093554 Ry
     internal energy E=F+TS    =     -37.42081274 Ry

     The total energy is F=E-TS. E is the sum of the following terms:
     one-electron contribution =      26.43054033 Ry
     hartree contribution      =       2.64726224 Ry
     xc contribution           =     -15.80215424 Ry
     ewald contribution        =     -50.69646106 Ry

     convergence has been achieved in   7 iterations

     Forces acting on atoms (cartesian axes, Ry/au):

     atom    1 type  1   force =    -0.00000000   -0.00000000   -0.00000000
     atom    2 type  1   force =     0.00000000    0.00000000    0.00000000
     atom    3 type  1   force =     0.00000000    0.00000000    0.00000000
     atom    4 type  2   force =     0.00000000    0.00000000    0.00000000
     The non-local contrib.  to forces
     atom    1 type  1   force =    -0.00000000    0.00000000   -0.00000000
     atom    2 type  1   force =    -0.00000000   -0.00000000    0.00000000
     atom    3 type  1   force =    -0.00000000   -0.00000000    0.00000000
     atom    4 type  2   force =     0.00000000   -0.00000000    0.00000000
     The ionic contribution  to forces
     atom    1 type  1   force =    -0.00000000   -0.00000000   -0.00000000
     atom    2 type  1   force =     0.00000000    0.00000000    0.00000000
     atom    3 type  1   force =    -0.00000000   -0.00000000    0.00000000
     atom    4 type  2   force =    -0.00000000   -0.00000000   -0.00000000
     The local contribution  to forces
     atom    1 type  1   force =    -0.00000000    0.00000000    0.00000000
     atom    2 type  1   force =     0.00000000   -0.00000000   -0.00000000
     atom    3 type  1   force =     0.00000000   -0.00000000   -0.00000000
     atom    4 type  2   force =    -0.00000000    0.00000000    0.00000000
     The core correction contribution to forces
     atom    1 type  1   force =     0.00000000   -0.00000000    0.00000000
     atom    2 type  1   force =    -0.00000000   -0.00000000   -0.00000000
     atom    3 type  1   force =    -0.00000000    0.00000000   -0.00000000
     atom    4 type  2   force =     0.00000000    0.00000000    0.00000000
     The Hubbard contrib.    to forces
     atom    1 type  1   force =     0.00000000    0.00000000    0.00000000
     atom    2 type  1   force =     0.00000000    0.00000000    0.00000000
     atom    3 type  1   force =     0.00000000    0.00000000    0.00000000
     atom    4 type  2   force =     0.00000000    0.00000000    0.00000000
     The SCF correction term to forces
     atom    1 type  1   force =    -0.00000000    0.00000000   -0.00000000
     atom    2 type  1   force =     0.00000000   -0.00000000    0.00000000
     atom    3 type  1   force =     0.00000000   -0.00000000    0.00000000
     atom    4 type  2   force =     0.00000000   -0.00000000   -0.00000000

     Total force =     0.000000     Total SCF correction =     0.000000


     Computing stress (Cartesian axis) and pressure

          total   stress  (Ry/bohr**3)                   (kbar)     P=     6553.43
   0.04454929  -0.00000000  -0.00000000         6553.43       -0.00       -0.00
   0.00000000   0.04454929   0.00000000            0.00     6553.43        0.00
  -0.00000000   0.00000000   0.04454929           -0.00        0.00     6553.43


     BFGS Geometry Optimization
     Energy error            =      0.0E+00 Ry
     Gradient error          =      2.6E-33 Ry/Bohr
     Cell gradient error     =      6.1E+03 kbar

     number of scf cycles    =   1
     number of bfgs steps    =   0

     enthalpy           new  =     -36.9632024143 Ry

     new trust radius        =       0.5000000000 bohr
ibrav =      2
 celldm(1) =      9.88387185
Input lattice vectors:
    -0.60783945     0.00000000     0.60783945
    -0.00000000     0.60783945     0.60783945
    -0.60783945     0.60783945     0.00000000
New lattice vectors in INITIAL alat:
    -0.60783945     0.00000000     0.60783945
     0.00000000     0.60783945     0.60783945
    -0.60783945     0.60783945     0.00000000
New lattice vectors in NEW alat (for information only):
    -0.50000000     0.00000000     0.50000000
     0.00000000     0.50000000     0.50000000
    -0.50000000     0.50000000     0.00000000
Discrepancy in bohr =     0.000000    0.000000    0.000000
     new conv_thr            =       0.0000000100 Ry

     new unit-cell volume =    241.39114 a.u.^3 (    35.77048 Ang^3 )
     density =      4.23358 g/cm^3

CELL_PARAMETERS (alat=  8.13033099)
  -0.607839451   0.000000000   0.607839451
   0.000000000   0.607839451   0.607839451
  -0.607839451   0.607839451   0.000000000

ATOMIC_POSITIONS (crystal)
Si           -0.2500000000        0.7500000000       -0.2500000000
Si           -0.7500000000        2.2500000000       -0.7500000000
Si            0.5000000000        0.5000000000       -0.5000000000
Li            0.0000000000        0.0000000000        0.0000000000



     Writing config-only to output data dir ./output/SiLi.save/
     NEW-OLD atomic charge density approx. for the potential
     extrapolated charge   21.64816, renormalised to   15.00000

     total cpu time spent up to now is        1.5 secs

     Self-consistent Calculation

     iteration #  1     ecut=    80.00 Ry     beta= 0.70
     Davidson diagonalization with overlap
     ethr =  1.00E-06,  avg # of iterations = 12.0

     total cpu time spent up to now is        1.7 secs

     total energy              =     -39.24738695 Ry
     estimated scf accuracy    <       0.04737600 Ry

     iteration #  2     ecut=    80.00 Ry     beta= 0.70
     Davidson diagonalization with overlap
     ethr =  3.16E-04,  avg # of iterations =  3.1

     total cpu time spent up to now is        1.8 secs

     total energy              =     -39.39350900 Ry
     estimated scf accuracy    <       0.05170003 Ry

     iteration #  3     ecut=    80.00 Ry     beta= 0.70
     Davidson diagonalization with overlap
     ethr =  3.16E-04,  avg # of iterations =  1.0

     total cpu time spent up to now is        1.8 secs

     total energy              =     -39.38393273 Ry
     estimated scf accuracy    <       0.01503983 Ry

     iteration #  4     ecut=    80.00 Ry     beta= 0.70
     Davidson diagonalization with overlap
     ethr =  1.00E-04,  avg # of iterations =  2.5

     total cpu time spent up to now is        1.9 secs

     total energy              =     -39.38700084 Ry
     estimated scf accuracy    <       0.00168162 Ry

     iteration #  5     ecut=    80.00 Ry     beta= 0.70
     Davidson diagonalization with overlap
     ethr =  1.12E-05,  avg # of iterations =  1.4

     total cpu time spent up to now is        1.9 secs

     total energy              =     -39.38699802 Ry
     estimated scf accuracy    <       0.00017310 Ry

     iteration #  6     ecut=    80.00 Ry     beta= 0.70
     Davidson diagonalization with overlap
     ethr =  1.15E-06,  avg # of iterations =  3.9

     total cpu time spent up to now is        2.0 secs

     total energy              =     -39.38703128 Ry
     estimated scf accuracy    <       0.00000038 Ry

     iteration #  7     ecut=    80.00 Ry     beta= 0.70
     Davidson diagonalization with overlap
     ethr =  2.56E-09,  avg # of iterations =  3.5

     total cpu time spent up to now is        2.1 secs

     total energy              =     -39.38703181 Ry
     estimated scf accuracy    <       0.00000003 Ry

     iteration #  8     ecut=    80.00 Ry     beta= 0.70
     Davidson diagonalization with overlap
     ethr =  1.74E-10,  avg # of iterations =  2.0

     total cpu time spent up to now is        2.2 secs

     End of self-consistent calculation

          k = 0.0000 0.0000 0.0000 (  1639 PWs)   bands (ev):

   -31.0279  -1.7053  11.7400  11.7400  11.7400  12.1553  12.1553  12.1553
    17.4357  17.4357  17.4357  17.7034

          k =-0.2056 0.2056-0.2056 (  1624 PWs)   bands (ev):

   -31.0237  -0.8531   6.4895  10.3946  10.3946  12.9348  13.0393  13.0393
    15.9380  15.9380  16.8185  20.0388

          k = 0.4113-0.4113 0.4113 (  1622 PWs)   bands (ev):

   -31.0207   1.0202   2.8890  10.1978  10.1978  11.6138  11.6138  12.4359
    17.2357  20.5726  20.5726  21.3131

          k = 0.0000 0.4113 0.0000 (  1612 PWs)   bands (ev):

   -31.0214  -0.5567   8.3799   8.3799   8.5018   9.3524  12.9897  16.8872
    16.8872  19.0105  19.6725  19.6878

          k = 0.6169-0.2056 0.6169 (  1623 PWs)   bands (ev):

   -31.0204   1.3463   4.0765   6.4532   8.0718  10.7010  14.8689  15.5305
    16.8915  20.2571  20.5983  22.2822

          k = 0.4113 0.0000 0.4113 (  1624 PWs)   bands (ev):

   -31.0213   0.5440   5.0966   6.1368   9.5342  11.8836  14.1412  15.4105
    15.8203  18.3431  19.5473  20.6562

          k = 0.0000-0.8226 0.0000 (  1604 PWs)   bands (ev):

   -31.0170   2.5469   3.3078   7.1728   7.1728   8.1407  12.4044  20.5662
    20.5662  21.7203  21.7203  22.0316

          k =-0.4113-0.8226 0.0000 (  1628 PWs)   bands (ev):

   -31.0204   3.3724   3.8294   3.8294   6.7129  13.7606  13.7606  15.1455
    16.4780  20.8920  22.8167  22.8167

     the Fermi energy is    15.4553 ev

!    total energy              =     -39.38703181 Ry
     estimated scf accuracy    <          5.3E-09 Ry
     smearing contrib. (-TS)   =      -0.00195954 Ry
     internal energy E=F+TS    =     -39.38507227 Ry

     The total energy is F=E-TS. E is the sum of the following terms:
     one-electron contribution =      13.31053416 Ry
     hartree contribution      =       2.83311408 Ry
     xc contribution           =     -13.82653990 Ry
     ewald contribution        =     -41.70218061 Ry

     convergence has been achieved in   8 iterations

     Forces acting on atoms (cartesian axes, Ry/au):

     atom    1 type  1   force =    -0.00000000   -0.00000000   -0.00000000
     atom    2 type  1   force =    -0.00000000   -0.00000000    0.00000000
     atom    3 type  1   force =     0.00000000   -0.00000000    0.00000000
     atom    4 type  2   force =     0.00000000    0.00000000    0.00000000
     The non-local contrib.  to forces
     atom    1 type  1   force =     0.00000000    0.00000000   -0.00000000
     atom    2 type  1   force =     0.00000000    0.00000000    0.00000000
     atom    3 type  1   force =    -0.00000000    0.00000000    0.00000000
     atom    4 type  2   force =    -0.00000000   -0.00000000   -0.00000000
     The ionic contribution  to forces
     atom    1 type  1   force =    -0.00000000   -0.00000000   -0.00000000
     atom    2 type  1   force =     0.00000000    0.00000000    0.00000000
     atom    3 type  1   force =    -0.00000000   -0.00000000   -0.00000000
     atom    4 type  2   force =    -0.00000000   -0.00000000   -0.00000000
     The local contribution  to forces
     atom    1 type  1   force =     0.00000000    0.00000000    0.00000000
     atom    2 type  1   force =    -0.00000000   -0.00000000   -0.00000000
     atom    3 type  1   force =    -0.00000000    0.00000000   -0.00000000
     atom    4 type  2   force =    -0.00000000    0.00000000    0.00000000
     The core correction contribution to forces
     atom    1 type  1   force =     0.00000000    0.00000000    0.00000000
     atom    2 type  1   force =    -0.00000000   -0.00000000   -0.00000000
     atom    3 type  1   force =     0.00000000    0.00000000   -0.00000000
     atom    4 type  2   force =     0.00000000    0.00000000    0.00000000
     The Hubbard contrib.    to forces
     atom    1 type  1   force =     0.00000000    0.00000000    0.00000000
     atom    2 type  1   force =     0.00000000    0.00000000    0.00000000
     atom    3 type  1   force =     0.00000000    0.00000000    0.00000000
     atom    4 type  2   force =     0.00000000    0.00000000    0.00000000
     The SCF correction term to forces
     atom    1 type  1   force =    -0.00000000   -0.00000000   -0.00000000
     atom    2 type  1   force =     0.00000000    0.00000000    0.00000000
     atom    3 type  1   force =    -0.00000000    0.00000000    0.00000000
     atom    4 type  2   force =     0.00000000    0.00000000   -0.00000000

     Total force =     0.000000     Total SCF correction =     0.000000


     Computing stress (Cartesian axis) and pressure

          total   stress  (Ry/bohr**3)                   (kbar)     P=      821.45
   0.00558412   0.00000000   0.00000000          821.45        0.00        0.00
   0.00000000   0.00558412  -0.00000000            0.00      821.45       -0.00
   0.00000000  -0.00000000   0.00558412            0.00       -0.00      821.45

     Energy error            =      1.6E+00 Ry
     Gradient error          =      2.2E-31 Ry/Bohr
     Cell gradient error     =      3.2E+02 kbar

     number of scf cycles    =   2
     number of bfgs steps    =   1

     enthalpy           old  =     -36.9632024143 Ry
     enthalpy           new  =     -38.5665599995 Ry

     CASE: enthalpy          _new < enthalpy          _old

     new trust radius        =       0.0469491615 bohr
ibrav =      2
 celldm(1) =     10.03320778
Input lattice vectors:
    -0.61702333    -0.00000000     0.61702333
     0.00000000     0.61702333     0.61702333
    -0.61702333     0.61702333    -0.00000000
New lattice vectors in INITIAL alat:
    -0.61702333     0.00000000     0.61702333
     0.00000000     0.61702333     0.61702333
    -0.61702333     0.61702333     0.00000000
New lattice vectors in NEW alat (for information only):
    -0.50000000     0.00000000     0.50000000
     0.00000000     0.50000000     0.50000000
    -0.50000000     0.50000000     0.00000000
Discrepancy in bohr =     0.000000    0.000000    0.000000
     new conv_thr            =            1.0E-10 Ry

     new unit-cell volume =    252.49886 a.u.^3 (    37.41647 Ang^3 )
     density =      4.04734 g/cm^3

CELL_PARAMETERS (alat=  8.13033099)
  -0.617023328   0.000000000   0.617023328
   0.000000000   0.617023328   0.617023328
  -0.617023328   0.617023328   0.000000000

ATOMIC_POSITIONS (crystal)
Si           -0.2500000000        0.7500000000       -0.2500000000
Si           -0.7500000000        2.2500000000       -0.7500000000
Si            0.5000000000        0.5000000000       -0.5000000000
Li            0.0000000000        0.0000000000        0.0000000000



     Writing config-only to output data dir ./output/SiLi.save/
     NEW-OLD atomic charge density approx. for the potential
     extrapolated charge   15.65959, renormalised to   15.00000

     total cpu time spent up to now is        2.6 secs

     Self-consistent Calculation

     iteration #  1     ecut=    80.00 Ry     beta= 0.70
     Davidson diagonalization with overlap
     ethr =  1.00E-06,  avg # of iterations =  6.5

     total cpu time spent up to now is        2.7 secs

     total energy              =     -39.44148247 Ry
     estimated scf accuracy    <       0.00043729 Ry

     iteration #  2     ecut=    80.00 Ry     beta= 0.70
     Davidson diagonalization with overlap
     ethr =  2.92E-06,  avg # of iterations =  3.0

     total cpu time spent up to now is        2.8 secs

     total energy              =     -39.44292942 Ry
     estimated scf accuracy    <       0.00040819 Ry

     iteration #  3     ecut=    80.00 Ry     beta= 0.70
     Davidson diagonalization with overlap
     ethr =  2.72E-06,  avg # of iterations =  1.0

     total cpu time spent up to now is        2.8 secs

     total energy              =     -39.44289278 Ry
     estimated scf accuracy    <       0.00010330 Ry

     iteration #  4     ecut=    80.00 Ry     beta= 0.70
     Davidson diagonalization with overlap
     ethr =  6.89E-07,  avg # of iterations =  2.0

     total cpu time spent up to now is        2.9 secs

     total energy              =     -39.44288686 Ry
     estimated scf accuracy    <       0.00001679 Ry

     iteration #  5     ecut=    80.00 Ry     beta= 0.70
     Davidson diagonalization with overlap
     ethr =  1.12E-07,  avg # of iterations =  2.1

     total cpu time spent up to now is        3.0 secs

     total energy              =     -39.44289018 Ry
     estimated scf accuracy    <       0.00000040 Ry

     iteration #  6     ecut=    80.00 Ry     beta= 0.70
     Davidson diagonalization with overlap
     ethr =  2.67E-09,  avg # of iterations =  2.4

     total cpu time spent up to now is        3.0 secs

     total energy              =     -39.44289026 Ry
     estimated scf accuracy    <          9.8E-09 Ry

     iteration #  7     ecut=    80.00 Ry     beta= 0.70
     Davidson diagonalization with overlap
     ethr =  6.51E-11,  avg # of iterations =  3.1

     total cpu time spent up to now is        3.1 secs

     total energy              =     -39.44289026 Ry
     estimated scf accuracy    <          1.7E-09 Ry

     iteration #  8     ecut=    80.00 Ry     beta= 0.70
     Davidson diagonalization with overlap
     ethr =  1.15E-11,  avg # of iterations =  2.0

     total cpu time spent up to now is        3.2 secs

     total energy              =     -39.44289026 Ry
     estimated scf accuracy    <          2.1E-10 Ry

     iteration #  9     ecut=    80.00 Ry     beta= 0.70
     Davidson diagonalization with overlap
     ethr =  1.40E-12,  avg # of iterations =  2.9

     total cpu time spent up to now is        3.2 secs

     total energy              =     -39.44453956 Ry
     estimated scf accuracy    <       0.00003603 Ry

     iteration # 10     ecut=    80.00 Ry     beta= 0.70
     Davidson diagonalization with overlap
     ethr =  1.40E-12,  avg # of iterations =  2.4

     total cpu time spent up to now is        3.3 secs

     total energy              =     -39.44453974 Ry
     estimated scf accuracy    <       0.00003604 Ry

     iteration # 11     ecut=    80.00 Ry     beta= 0.70
     Davidson diagonalization with overlap
     ethr =  1.40E-12,  avg # of iterations =  1.0

     total cpu time spent up to now is        3.3 secs

     total energy              =     -39.44453974 Ry
     estimated scf accuracy    <       0.00003605 Ry

     iteration # 12     ecut=    80.00 Ry     beta= 0.70
     Davidson diagonalization with overlap
     ethr =  1.40E-12,  avg # of iterations =  1.0

     total cpu time spent up to now is        3.4 secs

     total energy              =     -39.44453976 Ry
     estimated scf accuracy    <       0.00003604 Ry

     iteration # 13     ecut=    80.00 Ry     beta= 0.70
     Davidson diagonalization with overlap
     ethr =  1.40E-12,  avg # of iterations =  1.0

     total cpu time spent up to now is        3.4 secs

     total energy              =     -39.44453972 Ry
     estimated scf accuracy    <       0.00003609 Ry

     iteration # 14     ecut=    80.00 Ry     beta= 0.70
     Davidson diagonalization with overlap
     ethr =  1.40E-12,  avg # of iterations =  1.0

     total cpu time spent up to now is        3.5 secs

     total energy              =     -39.44453973 Ry
     estimated scf accuracy    <       0.00003601 Ry

     iteration # 15     ecut=    80.00 Ry     beta= 0.70
     Davidson diagonalization with overlap
     ethr =  1.40E-12,  avg # of iterations =  1.0

     total cpu time spent up to now is        3.6 secs

     total energy              =     -39.44453973 Ry
     estimated scf accuracy    <       0.00003602 Ry

     iteration # 16     ecut=    80.00 Ry     beta= 0.70
     Davidson diagonalization with overlap
     ethr =  1.40E-12,  avg # of iterations =  1.0

     total cpu time spent up to now is        3.6 secs

     total energy              =     -39.44454009 Ry
     estimated scf accuracy    <       0.00003602 Ry

     iteration # 17     ecut=    80.00 Ry     beta= 0.70
     Davidson diagonalization with overlap
     ethr =  1.40E-12,  avg # of iterations =  4.0

     total cpu time spent up to now is        3.7 secs

     total energy              =     -39.44451958 Ry
     estimated scf accuracy    <       0.00003689 Ry

     iteration # 18     ecut=    80.00 Ry     beta= 0.70
     Davidson diagonalization with overlap
     ethr =  1.40E-12,  avg # of iterations =  9.8

     total cpu time spent up to now is        3.9 secs

     total energy              =     -39.44452511 Ry
     estimated scf accuracy    <       0.00000029 Ry

     iteration # 19     ecut=    80.00 Ry     beta= 0.70
     Davidson diagonalization with overlap
     ethr =  1.40E-12,  avg # of iterations =  6.4

     total cpu time spent up to now is        4.0 secs

     total energy              =     -39.44452513 Ry
     estimated scf accuracy    <          9.1E-09 Ry

     iteration # 20     ecut=    80.00 Ry     beta= 0.70
     Davidson diagonalization with overlap
     ethr =  1.40E-12,  avg # of iterations =  4.8

     total cpu time spent up to now is        4.0 secs

     total energy              =     -39.44452513 Ry
     estimated scf accuracy    <          2.7E-10 Ry

     iteration # 21     ecut=    80.00 Ry     beta= 0.70
     Davidson diagonalization with overlap
     ethr =  1.40E-12,  avg # of iterations =  2.0

     total cpu time spent up to now is        4.1 secs

     End of self-consistent calculation

          k = 0.0000 0.0000 0.0000 (  1639 PWs)   bands (ev):

   -31.7210  -2.0212  11.1484  11.1484  11.1484  11.5618  11.5618  11.5618
    14.0739  16.6520  16.6520  16.6520

          k =-0.2026 0.2026-0.2026 (  1624 PWs)   bands (ev):

   -31.7169  -1.1877   5.9882   9.8408   9.8408  12.0997  12.4226  12.4226
    15.2940  15.2940  15.8830  19.0489

          k = 0.4052-0.4052 0.4052 (  1622 PWs)   bands (ev):

   -31.7144   0.6453   2.4645   9.6331   9.6331  11.0716  11.0716  11.5856
    16.2973  19.8335  19.8335  20.4449

          k = 0.0000 0.4052 0.0000 (  1612 PWs)   bands (ev):

   -31.7143  -0.8984   7.8882   7.8882   7.9195   8.6918  12.3926  16.1051
    16.1051  18.3714  18.5998  18.8878

          k = 0.6078-0.2026 0.6078 (  1623 PWs)   bands (ev):

   -31.7145   0.9605   3.6270   5.9404   7.5870  10.0617  14.1753  14.8525
    16.0393  19.3130  19.8085  21.3315

          k = 0.4052 0.0000 0.4052 (  1624 PWs)   bands (ev):

   -31.7152   0.1772   4.6243   5.6433   9.0047  11.2155  13.4884  14.7858
    14.9556  17.4910  18.6479  19.8143

          k = 0.0000-0.8103 0.0000 (  1604 PWs)   bands (ev):

   -31.7104   2.1401   2.8573   6.7131   6.7131   7.4975  11.7580  19.6595
    19.6595  20.8401  20.8401  21.3076

          k =-0.4052-0.8103 0.0000 (  1628 PWs)   bands (ev):

   -31.7150   2.9256   3.3890   3.3890   6.2444  13.0485  13.0485  14.4422
    15.7716  19.9985  21.9016  21.9016

     the Fermi energy is    14.7738 ev

!    total energy              =     -39.44452513 Ry
     estimated scf accuracy    <          3.3E-11 Ry
     smearing contrib. (-TS)   =      -0.00255273 Ry
     internal energy E=F+TS    =     -39.44197241 Ry

     The total energy is F=E-TS. E is the sum of the following terms:
     one-electron contribution =      12.48743047 Ry
     hartree contribution      =       2.85352365 Ry
     xc contribution           =     -13.70144800 Ry
     ewald contribution        =     -41.08147853 Ry

     convergence has been achieved in  21 iterations

     Forces acting on atoms (cartesian axes, Ry/au):

     atom    1 type  1   force =     0.00000000   -0.00000000   -0.00000000
     atom    2 type  1   force =    -0.00000000    0.00000000    0.00000000
     atom    3 type  1   force =     0.00000000    0.00000000    0.00000000
     atom    4 type  2   force =    -0.00000000   -0.00000000    0.00000000
     The non-local contrib.  to forces
     atom    1 type  1   force =    -0.00000000   -0.00000000    0.00000000
     atom    2 type  1   force =     0.00000000    0.00000000   -0.00000000
     atom    3 type  1   force =     0.00000000    0.00000000    0.00000000
     atom    4 type  2   force =     0.00000000    0.00000000   -0.00000000
     The ionic contribution  to forces
     atom    1 type  1   force =     0.00000000   -0.00000000   -0.00000000
     atom    2 type  1   force =    -0.00000000    0.00000000   -0.00000000
     atom    3 type  1   force =     0.00000000   -0.00000000   -0.00000000
     atom    4 type  2   force =    -0.00000000   -0.00000000   -0.00000000
     The local contribution  to forces
     atom    1 type  1   force =    -0.00000000    0.00000000   -0.00000000
     atom    2 type  1   force =    -0.00000000   -0.00000000   -0.00000000
     atom    3 type  1   force =    -0.00000000    0.00000000   -0.00000000
     atom    4 type  2   force =    -0.00000000    0.00000000    0.00000000
     The core correction contribution to forces
     atom    1 type  1   force =    -0.00000000   -0.00000000   -0.00000000
     atom    2 type  1   force =    -0.00000000   -0.00000000   -0.00000000
     atom    3 type  1   force =    -0.00000000    0.00000000   -0.00000000
     atom    4 type  2   force =     0.00000000    0.00000000    0.00000000
     The Hubbard contrib.    to forces
     atom    1 type  1   force =     0.00000000    0.00000000    0.00000000
     atom    2 type  1   force =     0.00000000    0.00000000    0.00000000
     atom    3 type  1   force =     0.00000000    0.00000000    0.00000000
     atom    4 type  2   force =     0.00000000    0.00000000    0.00000000
     The SCF correction term to forces
     atom    1 type  1   force =     0.00000000    0.00000000    0.00000000
     atom    2 type  1   force =    -0.00000000   -0.00000000   -0.00000000
     atom    3 type  1   force =     0.00000000   -0.00000000    0.00000000
     atom    4 type  2   force =     0.00000000   -0.00000000    0.00000000

     Total force =     0.000000     Total SCF correction =     0.000000


     Computing stress (Cartesian axis) and pressure

          total   stress  (Ry/bohr**3)                   (kbar)     P=      677.48
   0.00460539   0.00000000   0.00000000          677.48        0.00        0.00
   0.00000000   0.00460539   0.00000000            0.00      677.48        0.00
  -0.00000000   0.00000000   0.00460539           -0.00        0.00      677.48

     Energy error            =      2.0E-02 Ry
     Gradient error          =      9.3E-32 Ry/Bohr
     Cell gradient error     =      1.8E+02 kbar

     number of scf cycles    =   3
     number of bfgs steps    =   2

     enthalpy           old  =     -38.5665599995 Ry
     enthalpy           new  =     -38.5862989399 Ry

     CASE: enthalpy          _new < enthalpy          _old

     new trust radius        =       0.0520327615 bohr
ibrav =      2
 celldm(1) =     10.19747729
Input lattice vectors:
    -0.62712559     0.00000000     0.62712559
    -0.00000000     0.62712559     0.62712559
    -0.62712559     0.62712559     0.00000000
New lattice vectors in INITIAL alat:
    -0.62712559     0.00000000     0.62712559
     0.00000000     0.62712559     0.62712559
    -0.62712559     0.62712559     0.00000000
New lattice vectors in NEW alat (for information only):
    -0.50000000     0.00000000     0.50000000
     0.00000000     0.50000000     0.50000000
    -0.50000000     0.50000000     0.00000000
Discrepancy in bohr =     0.000000    0.000000    0.000000
     new conv_thr            =            1.0E-10 Ry

     new unit-cell volume =    265.10520 a.u.^3 (    39.28454 Ang^3 )
     density =      3.85488 g/cm^3

CELL_PARAMETERS (alat=  8.13033099)
  -0.627125593   0.000000000   0.627125593
   0.000000000   0.627125593   0.627125593
  -0.627125593   0.627125593   0.000000000

ATOMIC_POSITIONS (crystal)
Si           -0.2500000000        0.7500000000       -0.2500000000
Si           -0.7500000000        2.2500000000       -0.7500000000
Si            0.5000000000        0.5000000000       -0.5000000000
Li            0.0000000000       -0.0000000000       -0.0000000000



     Writing config-only to output data dir ./output/SiLi.save/
     NEW-OLD atomic charge density approx. for the potential
     extrapolated charge   15.71298, renormalised to   15.00000

     total cpu time spent up to now is        4.5 secs

     Self-consistent Calculation

     iteration #  1     ecut=    80.00 Ry     beta= 0.70
     Davidson diagonalization with overlap
     ethr =  1.00E-06,  avg # of iterations =  6.8

     total cpu time spent up to now is        4.7 secs

     total energy              =     -39.49474085 Ry
     estimated scf accuracy    <       0.00062581 Ry

     iteration #  2     ecut=    80.00 Ry     beta= 0.70
     Davidson diagonalization with overlap
     ethr =  4.17E-06,  avg # of iterations =  3.0

     total cpu time spent up to now is        4.7 secs

     total energy              =     -39.49645130 Ry
     estimated scf accuracy    <       0.00044188 Ry

     iteration #  3     ecut=    80.00 Ry     beta= 0.70
     Davidson diagonalization with overlap
     ethr =  2.95E-06,  avg # of iterations =  1.0

     total cpu time spent up to now is        4.8 secs

     total energy              =     -39.49642691 Ry
     estimated scf accuracy    <       0.00009825 Ry

     iteration #  4     ecut=    80.00 Ry     beta= 0.70
     Davidson diagonalization with overlap
     ethr =  6.55E-07,  avg # of iterations =  1.2

     total cpu time spent up to now is        4.8 secs

     total energy              =     -39.49641308 Ry
     estimated scf accuracy    <       0.00002453 Ry

     iteration #  5     ecut=    80.00 Ry     beta= 0.70
     Davidson diagonalization with overlap
     ethr =  1.64E-07,  avg # of iterations =  2.1

     total cpu time spent up to now is        4.9 secs

     total energy              =     -39.49641793 Ry
     estimated scf accuracy    <       0.00000168 Ry

     iteration #  6     ecut=    80.00 Ry     beta= 0.70
     Davidson diagonalization with overlap
     ethr =  1.12E-08,  avg # of iterations =  2.0

     total cpu time spent up to now is        5.0 secs

     total energy              =     -39.49641818 Ry
     estimated scf accuracy    <       0.00000001 Ry

     iteration #  7     ecut=    80.00 Ry     beta= 0.70
     Davidson diagonalization with overlap
     ethr =  6.90E-11,  avg # of iterations =  3.6

     total cpu time spent up to now is        5.0 secs

     total energy              =     -39.49641819 Ry
     estimated scf accuracy    <          3.7E-10 Ry

     iteration #  8     ecut=    80.00 Ry     beta= 0.70
     Davidson diagonalization with overlap
     ethr =  2.47E-12,  avg # of iterations =  2.4

     total cpu time spent up to now is        5.1 secs

     End of self-consistent calculation

          k = 0.0000 0.0000 0.0000 (  1639 PWs)   bands (ev):

   -32.4731  -2.3395  10.5319  10.5319  10.5319  10.9505  10.9505  10.9505
    12.9169  15.8311  15.8311  15.8311

          k =-0.1993 0.1993-0.1993 (  1624 PWs)   bands (ev):

   -32.4689  -1.5266   5.4671   9.2687   9.2687  11.2260  11.7797  11.7797
    14.6198  14.6198  14.8933  18.0231

          k = 0.3986-0.3986 0.3986 (  1622 PWs)   bands (ev):

   -32.4668   0.2628   2.0270   9.0533   9.0533  10.5021  10.5021  10.7004
    15.3107  19.0616  19.0616  19.5344

          k =-0.0000 0.3986-0.0000 (  1612 PWs)   bands (ev):

   -32.4658  -1.2449   7.3177   7.3807   7.3807   7.9948  11.7658  15.2936
    15.2936  17.4733  17.7024  18.0611

          k = 0.5980-0.1993 0.5980 (  1623 PWs)   bands (ev):

   -32.4672   0.5660   3.1620   5.4092   7.0872   9.3931  13.4477  14.1432
    15.1545  18.3173  18.9790  20.3356

          k = 0.3986-0.0000 0.3986 (  1624 PWs)   bands (ev):

   -32.4678  -0.1966   4.1319   5.1354   8.4581  10.5152  12.8059  14.0535
    14.1337  16.5953  17.7041  18.9315

          k = 0.0000-0.7973 0.0000 (  1604 PWs)   bands (ev):

   -32.4622   1.7177   2.4006   6.2398   6.2398   6.8213  11.0841  18.7112
    18.7112  19.9187  19.9187  20.5454

          k =-0.3986-0.7973 0.0000 (  1628 PWs)   bands (ev):

   -32.4683   2.4718   2.9308   2.9308   5.7634  12.3031  12.3031  13.7026
    15.0380  19.0644  20.9405  20.9405

     the Fermi energy is    14.0358 ev

!    total energy              =     -39.49641819 Ry
     estimated scf accuracy    <          4.4E-11 Ry
     smearing contrib. (-TS)   =      -0.00261399 Ry
     internal energy E=F+TS    =     -39.49380420 Ry

     The total energy is F=E-TS. E is the sum of the following terms:
     one-electron contribution =      11.61798062 Ry
     hartree contribution      =       2.87814672 Ry
     xc contribution           =     -13.57022779 Ry
     ewald contribution        =     -40.41970375 Ry

     convergence has been achieved in   8 iterations

     Forces acting on atoms (cartesian axes, Ry/au):

     atom    1 type  1   force =     0.00000000   -0.00000000    0.00000000
     atom    2 type  1   force =    -0.00000000    0.00000000   -0.00000000
     atom    3 type  1   force =     0.00000000    0.00000000    0.00000000
     atom    4 type  2   force =    -0.00000000   -0.00000000   -0.00000000
     The non-local contrib.  to forces
     atom    1 type  1   force =     0.00000000    0.00000000   -0.00000000
     atom    2 type  1   force =    -0.00000000   -0.00000000    0.00000000
     atom    3 type  1   force =     0.00000000    0.00000000    0.00000000
     atom    4 type  2   force =     0.00000000    0.00000000    0.00000000
     The ionic contribution  to forces
     atom    1 type  1   force =    -0.00000000   -0.00000000   -0.00000000
     atom    2 type  1   force =    -0.00000000   -0.00000000   -0.00000000
     atom    3 type  1   force =    -0.00000000   -0.00000000   -0.00000000
     atom    4 type  2   force =    -0.00000000   -0.00000000   -0.00000000
     The local contribution  to forces
     atom    1 type  1   force =    -0.00000000    0.00000000   -0.00000000
     atom    2 type  1   force =    -0.00000000   -0.00000000   -0.00000000
     atom    3 type  1   force =    -0.00000000   -0.00000000   -0.00000000
     atom    4 type  2   force =    -0.00000000    0.00000000    0.00000000
     The core correction contribution to forces
     atom    1 type  1   force =    -0.00000000   -0.00000000   -0.00000000
     atom    2 type  1   force =    -0.00000000    0.00000000    0.00000000
     atom    3 type  1   force =    -0.00000000    0.00000000   -0.00000000
     atom    4 type  2   force =     0.00000000    0.00000000    0.00000000
     The Hubbard contrib.    to forces
     atom    1 type  1   force =     0.00000000    0.00000000    0.00000000
     atom    2 type  1   force =     0.00000000    0.00000000    0.00000000
     atom    3 type  1   force =     0.00000000    0.00000000    0.00000000
     atom    4 type  2   force =     0.00000000    0.00000000    0.00000000
     The SCF correction term to forces
     atom    1 type  1   force =     0.00000000   -0.00000000   -0.00000000
     atom    2 type  1   force =     0.00000000    0.00000000    0.00000000
     atom    3 type  1   force =    -0.00000000   -0.00000000   -0.00000000
     atom    4 type  2   force =     0.00000000   -0.00000000    0.00000000

     Total force =     0.000000     Total SCF correction =     0.000000


     Computing stress (Cartesian axis) and pressure

          total   stress  (Ry/bohr**3)                   (kbar)     P=      539.81
   0.00366956   0.00000000   0.00000000          539.81        0.00        0.00
   0.00000000   0.00366956  -0.00000000            0.00      539.81       -0.00
   0.00000000  -0.00000000   0.00366956            0.00       -0.00      539.81

     Energy error            =      9.0E-03 Ry
     Gradient error          =      6.3E-31 Ry/Bohr
     Cell gradient error     =      4.0E+01 kbar

     number of scf cycles    =   4
     number of bfgs steps    =   3

     enthalpy           old  =     -38.5862989399 Ry
     enthalpy           new  =     -38.5953439231 Ry

     CASE: enthalpy          _new < enthalpy          _old

     new trust radius        =       0.0158219384 bohr
ibrav =      2
 celldm(1) =     10.24702383
Input lattice vectors:
    -0.63017261    -0.00000000     0.63017261
     0.00000000     0.63017261     0.63017261
    -0.63017261     0.63017261    -0.00000000
New lattice vectors in INITIAL alat:
    -0.63017261     0.00000000     0.63017261
     0.00000000     0.63017261     0.63017261
    -0.63017261     0.63017261     0.00000000
New lattice vectors in NEW alat (for information only):
    -0.50000000     0.00000000     0.50000000
     0.00000000     0.50000000     0.50000000
    -0.50000000     0.50000000     0.00000000
Discrepancy in bohr =     0.000000    0.000000    0.000000
     new conv_thr            =            1.0E-10 Ry

     new unit-cell volume =    268.98821 a.u.^3 (    39.85994 Ang^3 )
     density =      3.79923 g/cm^3

CELL_PARAMETERS (alat=  8.13033099)
  -0.630172612   0.000000000   0.630172612
   0.000000000   0.630172612   0.630172612
  -0.630172612   0.630172612   0.000000000

ATOMIC_POSITIONS (crystal)
Si           -0.2500000000        0.7500000000       -0.2500000000
Si           -0.7500000000        2.2500000000       -0.7500000000
Si            0.5000000000        0.5000000000       -0.5000000000
Li            0.0000000000       -0.0000000000        0.0000000000



     Writing config-only to output data dir ./output/SiLi.save/
     NEW-OLD atomic charge density approx. for the potential
     extrapolated charge   15.21644, renormalised to   15.00000

     total cpu time spent up to now is        5.5 secs

     Self-consistent Calculation

     iteration #  1     ecut=    80.00 Ry     beta= 0.70
     Davidson diagonalization with overlap
     ethr =  1.00E-06,  avg # of iterations =  4.9

     total cpu time spent up to now is        5.6 secs

     total energy              =     -39.51002799 Ry
     estimated scf accuracy    <       0.00005973 Ry

     iteration #  2     ecut=    80.00 Ry     beta= 0.70
     Davidson diagonalization with overlap
     ethr =  3.98E-07,  avg # of iterations =  2.8

     total cpu time spent up to now is        5.7 secs

     total energy              =     -39.51018507 Ry
     estimated scf accuracy    <       0.00003780 Ry

     iteration #  3     ecut=    80.00 Ry     beta= 0.70
     Davidson diagonalization with overlap
     ethr =  2.52E-07,  avg # of iterations =  1.0

     total cpu time spent up to now is        5.8 secs

     total energy              =     -39.51018305 Ry
     estimated scf accuracy    <       0.00000811 Ry

     iteration #  4     ecut=    80.00 Ry     beta= 0.70
     Davidson diagonalization with overlap
     ethr =  5.41E-08,  avg # of iterations =  1.4

     total cpu time spent up to now is        5.8 secs

     total energy              =     -39.51018209 Ry
     estimated scf accuracy    <       0.00000184 Ry

     iteration #  5     ecut=    80.00 Ry     beta= 0.70
     Davidson diagonalization with overlap
     ethr =  1.23E-08,  avg # of iterations =  2.1

     total cpu time spent up to now is        5.9 secs

     total energy              =     -39.51018248 Ry
     estimated scf accuracy    <       0.00000010 Ry

     iteration #  6     ecut=    80.00 Ry     beta= 0.70
     Davidson diagonalization with overlap
     ethr =  6.54E-10,  avg # of iterations =  2.2

     total cpu time spent up to now is        5.9 secs

     total energy              =     -39.51018250 Ry
     estimated scf accuracy    <          4.3E-10 Ry

     iteration #  7     ecut=    80.00 Ry     beta= 0.70
     Davidson diagonalization with overlap
     ethr =  2.90E-12,  avg # of iterations =  4.1

     total cpu time spent up to now is        6.0 secs

     End of self-consistent calculation

          k = 0.0000 0.0000 0.0000 (  1639 PWs)   bands (ev):

   -32.6966  -2.4303  10.3532  10.3532  10.3532  10.7728  10.7728  10.7728
    12.5823  15.5924  15.5924  15.5924

          k =-0.1984 0.1984-0.1984 (  1624 PWs)   bands (ev):

   -32.6923  -1.6236   5.3157   9.1029   9.1029  10.9707  11.5926  11.5926
    14.4231  14.4231  14.6039  17.7262

          k = 0.3967-0.3967 0.3967 (  1622 PWs)   bands (ev):

   -32.6903   0.1525   1.9009   8.8856   8.8856  10.3362  10.3362  10.4425
    15.0234  18.8364  18.8364  19.2685

          k =-0.0000 0.3967-0.0000 (  1612 PWs)   bands (ev):

   -32.6891  -1.3442   7.1426   7.2339   7.2339   7.7913  11.5825  15.0577
    15.0577  17.1486  17.5072  17.8198

          k = 0.5951-0.1984 0.5951 (  1623 PWs)   bands (ev):

   -32.6909   0.4524   3.0274   5.2549   6.9426   9.1986  13.2349  13.9364
    14.8974  18.0268  18.7362  20.0446

          k = 0.3967-0.0000 0.3967 (  1624 PWs)   bands (ev):

   -32.6914  -0.3040   3.9888   4.9883   8.2998  10.3110  12.6075  13.7907
    13.9433  16.3331  17.4294  18.6733

          k = 0.0000-0.7934 0.0000 (  1604 PWs)   bands (ev):

   -32.6855   1.5954   2.2688   6.1030   6.1030   6.6244  10.8878  18.4348
    18.4348  19.6495  19.6495  20.3231

          k =-0.3967-0.7934 0.0000 (  1628 PWs)   bands (ev):

   -32.6921   2.3407   2.7979   2.7979   5.6248  12.0861  12.0861  13.4860
    14.8244  18.7920  20.6590  20.6590

     the Fermi energy is    13.8118 ev

!    total energy              =     -39.51018250 Ry
     estimated scf accuracy    <          2.7E-11 Ry
     smearing contrib. (-TS)   =      -0.00220108 Ry
     internal energy E=F+TS    =     -39.50798141 Ry

     The total energy is F=E-TS. E is the sum of the following terms:
     one-electron contribution =      11.36226636 Ry
     hartree contribution      =       2.88600215 Ry
     xc contribution           =     -13.53198399 Ry
     ewald contribution        =     -40.22426594 Ry

     convergence has been achieved in   7 iterations

     Forces acting on atoms (cartesian axes, Ry/au):

     atom    1 type  1   force =    -0.00000000    0.00000000   -0.00000000
     atom    2 type  1   force =     0.00000000   -0.00000000    0.00000000
     atom    3 type  1   force =    -0.00000000   -0.00000000    0.00000000
     atom    4 type  2   force =     0.00000000    0.00000000    0.00000000
     The non-local contrib.  to forces
     atom    1 type  1   force =     0.00000000    0.00000000   -0.00000000
     atom    2 type  1   force =     0.00000000    0.00000000    0.00000000
     atom    3 type  1   force =     0.00000000    0.00000000    0.00000000
     atom    4 type  2   force =     0.00000000   -0.00000000   -0.00000000
     The ionic contribution  to forces
     atom    1 type  1   force =    -0.00000000   -0.00000000   -0.00000000
     atom    2 type  1   force =    -0.00000000   -0.00000000   -0.00000000
     atom    3 type  1   force =     0.00000000   -0.00000000   -0.00000000
     atom    4 type  2   force =    -0.00000000   -0.00000000   -0.00000000
     The local contribution  to forces
     atom    1 type  1   force =     0.00000000   -0.00000000   -0.00000000
     atom    2 type  1   force =    -0.00000000   -0.00000000   -0.00000000
     atom    3 type  1   force =    -0.00000000   -0.00000000   -0.00000000
     atom    4 type  2   force =    -0.00000000    0.00000000    0.00000000
     The core correction contribution to forces
     atom    1 type  1   force =    -0.00000000   -0.00000000    0.00000000
     atom    2 type  1   force =    -0.00000000   -0.00000000   -0.00000000
     atom    3 type  1   force =    -0.00000000    0.00000000   -0.00000000
     atom    4 type  2   force =     0.00000000    0.00000000    0.00000000
     The Hubbard contrib.    to forces
     atom    1 type  1   force =     0.00000000    0.00000000    0.00000000
     atom    2 type  1   force =     0.00000000    0.00000000    0.00000000
     atom    3 type  1   force =     0.00000000    0.00000000    0.00000000
     atom    4 type  2   force =     0.00000000    0.00000000    0.00000000
     The SCF correction term to forces
     atom    1 type  1   force =    -0.00000000    0.00000000    0.00000000
     atom    2 type  1   force =     0.00000000   -0.00000000   -0.00000000
     atom    3 type  1   force =    -0.00000000    0.00000000   -0.00000000
     atom    4 type  2   force =     0.00000000   -0.00000000    0.00000000

     Total force =     0.000000     Total SCF correction =     0.000000


     Computing stress (Cartesian axis) and pressure

          total   stress  (Ry/bohr**3)                   (kbar)     P=      503.41
   0.00342211  -0.00000000   0.00000000          503.41       -0.00        0.00
   0.00000000   0.00342211  -0.00000000            0.00      503.41       -0.00
   0.00000000  -0.00000000   0.00342211            0.00       -0.00      503.41

     Energy error            =      5.7E-04 Ry
     Gradient error          =      1.3E-31 Ry/Bohr
     Cell gradient error     =      3.4E+00 kbar

     number of scf cycles    =   5
     number of bfgs steps    =   4

     enthalpy           old  =     -38.5953439231 Ry
     enthalpy           new  =     -38.5959101471 Ry

     CASE: enthalpy          _new < enthalpy          _old

     new trust radius        =       0.0015012035 bohr
ibrav =      2
 celldm(1) =     10.25171348
Input lattice vectors:
    -0.63046102    -0.00000000     0.63046102
     0.00000000     0.63046102     0.63046102
    -0.63046102     0.63046102    -0.00000000
New lattice vectors in INITIAL alat:
    -0.63046102     0.00000000     0.63046102
     0.00000000     0.63046102     0.63046102
    -0.63046102     0.63046102     0.00000000
New lattice vectors in NEW alat (for information only):
    -0.50000000     0.00000000     0.50000000
     0.00000000     0.50000000     0.50000000
    -0.50000000     0.50000000     0.00000000
Discrepancy in bohr =     0.000000    0.000000    0.000000
     new conv_thr            =            1.0E-10 Ry

     new unit-cell volume =    269.35770 a.u.^3 (    39.91469 Ang^3 )
     density =      3.79402 g/cm^3

CELL_PARAMETERS (alat=  8.13033099)
  -0.630461017   0.000000000   0.630461017
   0.000000000   0.630461017   0.630461017
  -0.630461017   0.630461017   0.000000000

ATOMIC_POSITIONS (crystal)
Si           -0.2500000000        0.7500000000       -0.2500000000
Si           -0.7500000000        2.2500000000       -0.7500000000
Si            0.5000000000        0.5000000000       -0.5000000000
Li            0.0000000000       -0.0000000000        0.0000000000



     Writing config-only to output data dir ./output/SiLi.save/
     NEW-OLD atomic charge density approx. for the potential
     extrapolated charge   15.02057, renormalised to   15.00000

     total cpu time spent up to now is        6.5 secs

     Self-consistent Calculation

     iteration #  1     ecut=    80.00 Ry     beta= 0.70
     Davidson diagonalization with overlap
     ethr =  1.00E-06,  avg # of iterations =  1.0

     Threshold (ethr) on eigenvalues was too large:
     Diagonalizing with lowered threshold

     Davidson diagonalization with overlap
     ethr =  3.32E-09,  avg # of iterations =  4.5

     total cpu time spent up to now is        6.6 secs

     total energy              =     -39.51144130 Ry
     estimated scf accuracy    <       0.00000053 Ry

     iteration #  2     ecut=    80.00 Ry     beta= 0.70
     Davidson diagonalization with overlap
     ethr =  3.54E-09,  avg # of iterations =  2.9

     total cpu time spent up to now is        6.7 secs

     total energy              =     -39.51144269 Ry
     estimated scf accuracy    <       0.00000034 Ry

     iteration #  3     ecut=    80.00 Ry     beta= 0.70
     Davidson diagonalization with overlap
     ethr =  2.25E-09,  avg # of iterations =  1.0

     total cpu time spent up to now is        6.7 secs

     total energy              =     -39.51144267 Ry
     estimated scf accuracy    <       0.00000007 Ry

     iteration #  4     ecut=    80.00 Ry     beta= 0.70
     Davidson diagonalization with overlap
     ethr =  4.78E-10,  avg # of iterations =  1.9

     total cpu time spent up to now is        6.8 secs

     total energy              =     -39.51144267 Ry
     estimated scf accuracy    <       0.00000001 Ry

     iteration #  5     ecut=    80.00 Ry     beta= 0.70
     Davidson diagonalization with overlap
     ethr =  9.75E-11,  avg # of iterations =  2.0

     total cpu time spent up to now is        6.8 secs

     total energy              =     -39.51144267 Ry
     estimated scf accuracy    <          4.6E-10 Ry

     iteration #  6     ecut=    80.00 Ry     beta= 0.70
     Davidson diagonalization with overlap
     ethr =  3.07E-12,  avg # of iterations =  2.4

     total cpu time spent up to now is        6.9 secs

     End of self-consistent calculation

          k = 0.0000 0.0000 0.0000 (  1639 PWs)   bands (ev):

   -32.7175  -2.4388  10.3364  10.3364  10.3364  10.7562  10.7562  10.7562
    12.5510  15.5700  15.5700  15.5700

          k =-0.1983 0.1983-0.1983 (  1624 PWs)   bands (ev):

   -32.7132  -1.6327   5.3015   9.0873   9.0873  10.9467  11.5750  11.5750
    14.4046  14.4046  14.5767  17.6984

          k = 0.3965-0.3965 0.3965 (  1622 PWs)   bands (ev):

   -32.7112   0.1421   1.8890   8.8698   8.8698  10.3207  10.3207  10.4183
    14.9965  18.8153  18.8153  19.2435

          k =-0.0000 0.3965-0.0000 (  1612 PWs)   bands (ev):

   -32.7100  -1.3535   7.1261   7.2201   7.2201   7.7722  11.5653  15.0355
    15.0355  17.1181  17.4888  17.7971

          k = 0.5948-0.1983 0.5948 (  1623 PWs)   bands (ev):

   -32.7118   0.4417   3.0147   5.2404   6.9290   9.1804  13.2150  13.9170
    14.8733  17.9995  18.7134  20.0173

          k = 0.3965-0.0000 0.3965 (  1624 PWs)   bands (ev):

   -32.7123  -0.3141   3.9754   4.9745   8.2850  10.2918  12.5889  13.7661
    13.9254  16.3085  17.4036  18.6490

          k = 0.0000-0.7931 0.0000 (  1604 PWs)   bands (ev):

   -32.7064   1.5839   2.2565   6.0902   6.0902   6.6059  10.8694  18.4089
    18.4089  19.6242  19.6242  20.3022

          k =-0.3965-0.7931 0.0000 (  1628 PWs)   bands (ev):

   -32.7131   2.3284   2.7854   2.7854   5.6118  12.0657  12.0657  13.4657
    14.8044  18.7663  20.6325  20.6325

     the Fermi energy is    13.7905 ev

!    total energy              =     -39.51144267 Ry
     estimated scf accuracy    <          8.0E-12 Ry
     smearing contrib. (-TS)   =      -0.00215201 Ry
     internal energy E=F+TS    =     -39.50929066 Ry

     The total energy is F=E-TS. E is the sum of the following terms:
     one-electron contribution =      11.33820329 Ry
     hartree contribution      =       2.88675882 Ry
     xc contribution           =     -13.52838744 Ry
     ewald contribution        =     -40.20586533 Ry

     convergence has been achieved in   6 iterations

     Forces acting on atoms (cartesian axes, Ry/au):

     atom    1 type  1   force =    -0.00000000    0.00000000   -0.00000000
     atom    2 type  1   force =    -0.00000000    0.00000000    0.00000000
     atom    3 type  1   force =     0.00000000    0.00000000    0.00000000
     atom    4 type  2   force =     0.00000000    0.00000000    0.00000000
     The non-local contrib.  to forces
     atom    1 type  1   force =    -0.00000000    0.00000000   -0.00000000
     atom    2 type  1   force =     0.00000000   -0.00000000    0.00000000
     atom    3 type  1   force =     0.00000000    0.00000000    0.00000000
     atom    4 type  2   force =    -0.00000000    0.00000000   -0.00000000
     The ionic contribution  to forces
     atom    1 type  1   force =    -0.00000000   -0.00000000   -0.00000000
     atom    2 type  1   force =    -0.00000000   -0.00000000   -0.00000000
     atom    3 type  1   force =     0.00000000   -0.00000000   -0.00000000
     atom    4 type  2   force =    -0.00000000   -0.00000000   -0.00000000
     The local contribution  to forces
     atom    1 type  1   force =    -0.00000000   -0.00000000   -0.00000000
     atom    2 type  1   force =    -0.00000000   -0.00000000   -0.00000000
     atom    3 type  1   force =    -0.00000000   -0.00000000   -0.00000000
     atom    4 type  2   force =    -0.00000000    0.00000000    0.00000000
     The core correction contribution to forces
     atom    1 type  1   force =     0.00000000   -0.00000000    0.00000000
     atom    2 type  1   force =    -0.00000000    0.00000000    0.00000000
     atom    3 type  1   force =    -0.00000000   -0.00000000    0.00000000
     atom    4 type  2   force =     0.00000000    0.00000000    0.00000000
     The Hubbard contrib.    to forces
     atom    1 type  1   force =     0.00000000    0.00000000    0.00000000
     atom    2 type  1   force =     0.00000000    0.00000000    0.00000000
     atom    3 type  1   force =     0.00000000    0.00000000    0.00000000
     atom    4 type  2   force =     0.00000000    0.00000000    0.00000000
     The SCF correction term to forces
     atom    1 type  1   force =     0.00000000   -0.00000000   -0.00000000
     atom    2 type  1   force =    -0.00000000   -0.00000000    0.00000000
     atom    3 type  1   force =     0.00000000   -0.00000000    0.00000000
     atom    4 type  2   force =     0.00000000    0.00000000    0.00000000

     Total force =     0.000000     Total SCF correction =     0.000000


     Computing stress (Cartesian axis) and pressure

          total   stress  (Ry/bohr**3)                   (kbar)     P=      500.04
   0.00339918   0.00000000   0.00000000          500.04        0.00        0.00
   0.00000000   0.00339918   0.00000000            0.00      500.04        0.00
   0.00000000   0.00000000   0.00339918            0.00        0.00      500.04

     Energy error            =      4.3E-06 Ry
     Gradient error          =      2.6E-31 Ry/Bohr
     Cell gradient error     =      3.7E-02 kbar
ibrav =      2
 celldm(1) =     10.25171348
Input lattice vectors:
    -0.63046102     0.00000000     0.63046102
     0.00000000     0.63046102     0.63046102
    -0.63046102     0.63046102     0.00000000
New lattice vectors in INITIAL alat:
    -0.63046102     0.00000000     0.63046102
     0.00000000     0.63046102     0.63046102
    -0.63046102     0.63046102     0.00000000
New lattice vectors in NEW alat (for information only):
    -0.50000000     0.00000000     0.50000000
     0.00000000     0.50000000     0.50000000
    -0.50000000     0.50000000     0.00000000
Discrepancy in bohr =     0.000000    0.000000    0.000000

     bfgs converged in   6 scf cycles and   5 bfgs steps
     (criteria: energy <  1.0E-04 Ry, force <  1.0E-03 Ry/Bohr, cell <  1.0E+00 kbar)

     End of BFGS Geometry Optimization

     Final enthalpy           =     -38.5959144695 Ry

     File ./output/SiLi.bfgs deleted, as requested
Begin final coordinates
     new unit-cell volume =    269.35770 a.u.^3 (    39.91469 Ang^3 )
     density =      3.79402 g/cm^3

CELL_PARAMETERS (alat=  8.13033099)
  -0.630461017   0.000000000   0.630461017
   0.000000000   0.630461017   0.630461017
  -0.630461017   0.630461017   0.000000000

ATOMIC_POSITIONS (crystal)
Si           -0.2500000000        0.7500000000       -0.2500000000
Si           -0.7500000000        2.2500000000       -0.7500000000
Si            0.5000000000        0.5000000000       -0.5000000000
Li            0.0000000000       -0.0000000000        0.0000000000
End final coordinates



     Writing config-only to output data dir ./output/SiLi.save/

     Final scf calculation at the relaxed structure.
     The G-vectors are recalculated for the final unit cell
     Results may differ from those at the preceding step.

     Parallelization info
     --------------------
     sticks:   dense  smooth     PW     G-vecs:    dense   smooth      PW
     Min         144     144     42                 3264     3264     501
     Max         145     145     43                 3267     3267     503
     Sum        1159    1159    337                26133    26133    4015

     Using Slab Decomposition



     bravais-lattice index     =            2
     lattice parameter (alat)  =       8.1303  a.u.
     unit-cell volume          =     269.3577 (a.u.)^3
     number of atoms/cell      =            4
     number of atomic types    =            2
     number of electrons       =        15.00
     number of Kohn-Sham states=           12
     kinetic-energy cutoff     =      80.0000  Ry
     charge density cutoff     =     320.0000  Ry
     scf convergence threshold =      1.0E-10
     mixing beta               =       0.7000
     number of iterations used =            8  plain     mixing
     press convergence thresh. =      1.0E+00
     Exchange-correlation= PBE
                           (   1   4   3   4   0   0   0)

     celldm(1)=   8.130331  celldm(2)=   0.000000  celldm(3)=   0.000000
     celldm(4)=   0.000000  celldm(5)=   0.000000  celldm(6)=   0.000000

     crystal axes: (cart. coord. in units of alat)
               a(1) = (  -0.630461   0.000000   0.630461 )  
               a(2) = (   0.000000   0.630461   0.630461 )  
               a(3) = (  -0.630461   0.630461   0.000000 )  

     reciprocal axes: (cart. coord. in units 2 pi/alat)
               b(1) = ( -0.793070 -0.793070  0.793070 )  
               b(2) = (  0.793070  0.793070  0.793070 )  
               b(3) = ( -0.793070  0.793070 -0.793070 )  


     PseudoPot. # 1 for Si read from file:
     ../pseudo/Si_ONCV_PBE_sr.upf
     MD5 check sum: e543d271109d17c80368dfa7c482276d
     Pseudo is Norm-conserving + core correction, Zval =  4.0
     Generated using ONCVPSP code by D. R. Hamann
     Using radial grid of 1510 points,  6 beta functions with: 
                l(1) =   0
                l(2) =   0
                l(3) =   1
                l(4) =   1
                l(5) =   2
                l(6) =   2

     PseudoPot. # 2 for Li read from file:
     ../pseudo/Li_ONCV_PBE_sr.upf
     MD5 check sum: 50ff420e78310ffa21704f3361e624a4
     Pseudo is Norm-conserving, Zval =  3.0
     Generated using ONCVPSP code by D. R. Hamann
     Using radial grid of 1944 points,  4 beta functions with: 
                l(1) =   0
                l(2) =   0
                l(3) =   1
                l(4) =   1

     atomic species   valence    mass     pseudopotential
        Si             4.00    28.08550     Si( 1.00)
        Li             3.00     6.94100     Li( 1.00)

     48 Sym. Ops., with inversion, found



   Cartesian axes

     site n.     atom                  positions (alat units)
         1           Si  tau(   1) = (   0.3152305   0.3152305   0.3152305  )
         2           Si  tau(   2) = (   0.9456915   0.9456915   0.9456915  )
         3           Si  tau(   3) = (  -0.0000000   0.0000000   0.6304610  )
         4           Li  tau(   4) = (  -0.0000000  -0.0000000  -0.0000000  )

     number of k points=     8  Marzari-Vanderbilt smearing, width (Ry)=  0.0200
                       cart. coord. in units 2pi/alat
        k(    1) = (   0.0000000   0.0000000   0.0000000), wk =   0.0312500
        k(    2) = (  -0.1982676   0.1982676  -0.1982676), wk =   0.2500000
        k(    3) = (   0.3965352  -0.3965352   0.3965352), wk =   0.1250000
        k(    4) = (  -0.0000000   0.3965352  -0.0000000), wk =   0.1875000
        k(    5) = (   0.5948028  -0.1982676   0.5948028), wk =   0.7500000
        k(    6) = (   0.3965352  -0.0000000   0.3965352), wk =   0.3750000
        k(    7) = (   0.0000000  -0.7930704   0.0000000), wk =   0.0937500
        k(    8) = (  -0.3965352  -0.7930704   0.0000000), wk =   0.1875000

     Dense  grid:    26133 G-vectors     FFT dimensions: (  45,  45,  45)

     Estimated max dynamical RAM per process >      15.19 MB

     Estimated total dynamical RAM >     121.55 MB

     Initial potential from superposition of free atoms

     starting charge      14.9936, renormalised to      15.0000
     Starting wfcs are   14 randomized atomic wfcs

     total cpu time spent up to now is        7.6 secs

     Self-consistent Calculation

     iteration #  1     ecut=    80.00 Ry     beta= 0.70
     Davidson diagonalization with overlap
     c_bands:  1 eigenvalues not converged
     c_bands:  2 eigenvalues not converged
     c_bands:  1 eigenvalues not converged
     c_bands:  1 eigenvalues not converged
     ethr =  1.00E-06,  avg # of iterations = 17.9

     total cpu time spent up to now is        8.1 secs

     total energy              =     -39.52193856 Ry
     estimated scf accuracy    <       0.01849117 Ry

     iteration #  2     ecut=    80.00 Ry     beta= 0.70
     Davidson diagonalization with overlap
     ethr =  1.23E-04,  avg # of iterations =  1.0

     total cpu time spent up to now is        8.2 secs

     total energy              =     -39.52181588 Ry
     estimated scf accuracy    <       0.00115245 Ry

     iteration #  3     ecut=    80.00 Ry     beta= 0.70
     Davidson diagonalization with overlap
     ethr =  7.68E-06,  avg # of iterations =  1.8

     total cpu time spent up to now is        8.4 secs

     total energy              =     -39.52189944 Ry
     estimated scf accuracy    <       0.00000493 Ry

     iteration #  4     ecut=    80.00 Ry     beta= 0.70
     Davidson diagonalization with overlap
     ethr =  3.28E-08,  avg # of iterations =  3.6

     total cpu time spent up to now is        8.5 secs

     total energy              =     -39.52190301 Ry
     estimated scf accuracy    <       0.00000013 Ry

     iteration #  5     ecut=    80.00 Ry     beta= 0.70
     Davidson diagonalization with overlap
     ethr =  8.80E-10,  avg # of iterations =  2.8

     total cpu time spent up to now is        8.7 secs

     total energy              =     -39.52190304 Ry
     estimated scf accuracy    <          7.0E-09 Ry

     iteration #  6     ecut=    80.00 Ry     beta= 0.70
     Davidson diagonalization with overlap
     ethr =  4.64E-11,  avg # of iterations =  3.0

     total cpu time spent up to now is        8.8 secs

     total energy              =     -39.52190304 Ry
     estimated scf accuracy    <          4.2E-10 Ry

     iteration #  7     ecut=    80.00 Ry     beta= 0.70
     Davidson diagonalization with overlap
     ethr =  2.82E-12,  avg # of iterations =  2.6

     total cpu time spent up to now is        9.0 secs

     End of self-consistent calculation

          k = 0.0000 0.0000 0.0000 (  3287 PWs)   bands (ev):

   -32.6787  -2.4406  10.3360  10.3360  10.3360  10.7563  10.7563  10.7563
    12.5504  15.5722  15.5722  15.5722

          k =-0.1983 0.1983-0.1983 (  3263 PWs)   bands (ev):

   -32.6771  -1.6342   5.3008   9.0872   9.0872  10.9459  11.5751  11.5751
    14.4057  14.4057  14.5764  17.6943

          k = 0.3965-0.3965 0.3965 (  3274 PWs)   bands (ev):

   -32.6756   0.1420   1.8869   8.8694   8.8694  10.3215  10.3215  10.4179
    14.9914  18.8165  18.8166  19.2433

          k =-0.0000 0.3965-0.0000 (  3263 PWs)   bands (ev):

   -32.6766  -1.3549   7.1258   7.2202   7.2202   7.7717  11.5621  15.0352
    15.0352  17.1176  17.4886  17.7992

          k = 0.5948-0.1983 0.5948 (  3248 PWs)   bands (ev):

   -32.6751   0.4411   3.0140   5.2397   6.9292   9.1784  13.2137  13.9172
    14.8723  17.9983  18.7142  20.0164

          k = 0.3965-0.0000 0.3965 (  3250 PWs)   bands (ev):

   -32.6756  -0.3151   3.9753   4.9730   8.2849  10.2906  12.5885  13.7657
    13.9270  16.3050  17.4047  18.6487

          k = 0.0000-0.7931 0.0000 (  3250 PWs)   bands (ev):

   -32.6746   1.5839   2.2552   6.0904   6.0904   6.6055  10.8620  18.4084
    18.4084  19.6259  19.6259  20.3016

          k =-0.3965-0.7931 0.0000 (  3248 PWs)   bands (ev):

   -32.6746   2.3281   2.7854   2.7854   5.6087  12.0654  12.0654  13.4671
    14.7989  18.7658  20.6336  20.8107

     the Fermi energy is    13.7910 ev

!    total energy              =     -39.52190304 Ry
     estimated scf accuracy    <          1.2E-11 Ry
     smearing contrib. (-TS)   =      -0.00216473 Ry
     internal energy E=F+TS    =     -39.51973831 Ry

     The total energy is F=E-TS. E is the sum of the following terms:
     one-electron contribution =      11.31881214 Ry
     hartree contribution      =       2.90317761 Ry
     xc contribution           =     -13.53586304 Ry
     ewald contribution        =     -40.20586502 Ry

     convergence has been achieved in   7 iterations

     Forces acting on atoms (cartesian axes, Ry/au):

     atom    1 type  1   force =     0.00000000    0.00000000    0.00000000
     atom    2 type  1   force =     0.00000000    0.00000000   -0.00000000
     atom    3 type  1   force =     0.00000000    0.00000000    0.00000000
     atom    4 type  2   force =    -0.00000000   -0.00000000   -0.00000000
     The non-local contrib.  to forces
     atom    1 type  1   force =     0.00000000    0.00000000    0.00000000
     atom    2 type  1   force =    -0.00000000   -0.00000000   -0.00000000
     atom    3 type  1   force =    -0.00000000   -0.00000000   -0.00000000
     atom    4 type  2   force =     0.00000000    0.00000000    0.00000000
     The ionic contribution  to forces
     atom    1 type  1   force =     0.00000000    0.00000000    0.00000000
     atom    2 type  1   force =     0.00000000    0.00000000    0.00000000
     atom    3 type  1   force =    -0.00000000   -0.00000000    0.00000000
     atom    4 type  2   force =    -0.00000000   -0.00000000   -0.00000000
     The local contribution  to forces
     atom    1 type  1   force =    -0.00000000   -0.00000000   -0.00000000
     atom    2 type  1   force =    -0.00000000    0.00000000   -0.00000000
     atom    3 type  1   force =     0.00000000   -0.00000000    0.00000000
     atom    4 type  2   force =     0.00000000    0.00000000   -0.00000000
     The core correction contribution to forces
     atom    1 type  1   force =    -0.00000000   -0.00000000   -0.00000000
     atom    2 type  1   force =    -0.00000000   -0.00000000   -0.00000000
     atom    3 type  1   force =    -0.00000000   -0.00000000    0.00000000
     atom    4 type  2   force =     0.00000000    0.00000000    0.00000000
     The Hubbard contrib.    to forces
     atom    1 type  1   force =     0.00000000    0.00000000    0.00000000
     atom    2 type  1   force =     0.00000000    0.00000000    0.00000000
     atom    3 type  1   force =     0.00000000    0.00000000    0.00000000
     atom    4 type  2   force =     0.00000000    0.00000000    0.00000000
     The SCF correction term to forces
     atom    1 type  1   force =    -0.00000000   -0.00000000   -0.00000000
     atom    2 type  1   force =     0.00000000    0.00000000    0.00000000
     atom    3 type  1   force =    -0.00000000    0.00000000   -0.00000000
     atom    4 type  2   force =     0.00000000   -0.00000000    0.00000000

     Total force =     0.000000     Total SCF correction =     0.000000


     Computing stress (Cartesian axis) and pressure

          total   stress  (Ry/bohr**3)                   (kbar)     P=      537.30
   0.00365247  -0.00000000   0.00000000          537.30       -0.00        0.00
   0.00000000   0.00365247   0.00000000            0.00      537.30        0.00
  -0.00000000   0.00000000   0.00365247           -0.00        0.00      537.30


     Writing all to output data dir ./output/SiLi.save/

     init_run     :      0.69s CPU      0.77s WALL (       2 calls)
     electrons    :      4.69s CPU      5.48s WALL (       7 calls)
     update_pot   :      0.70s CPU      0.71s WALL (       5 calls)
     forces       :      0.61s CPU      0.67s WALL (       7 calls)
     stress       :      1.64s CPU      1.71s WALL (       7 calls)

     Called by init_run:
     wfcinit      :      0.06s CPU      0.07s WALL (       2 calls)
     potinit      :      0.20s CPU      0.22s WALL (       2 calls)
     hinit0       :      0.42s CPU      0.45s WALL (       2 calls)

     Called by electrons:
     c_bands      :      3.81s CPU      4.29s WALL (      66 calls)
     sum_band     :      0.53s CPU      0.57s WALL (      66 calls)
     v_of_rho     :      0.32s CPU      0.51s WALL (      71 calls)
     mix_rho      :      0.03s CPU      0.04s WALL (      66 calls)

     Called by c_bands:
     init_us_2    :      0.08s CPU      0.09s WALL (    1184 calls)
     init_us_2:cp :      0.08s CPU      0.09s WALL (    1184 calls)
     cegterg      :      3.57s CPU      3.72s WALL (     528 calls)

     Called by *egterg:
     cdiaghg      :      0.34s CPU      0.35s WALL (    2127 calls)
     h_psi        :      2.97s CPU      3.11s WALL (    2199 calls)
     g_psi        :      0.01s CPU      0.01s WALL (    1655 calls)

     Called by h_psi:
     h_psi:calbec :      0.19s CPU      0.19s WALL (    2199 calls)
     vloc_psi     :      2.65s CPU      2.78s WALL (    2199 calls)
     add_vuspsi   :      0.12s CPU      0.13s WALL (    2199 calls)

     General routines
     calbec       :      0.24s CPU      0.25s WALL (    2479 calls)
     fft          :      0.51s CPU      0.79s WALL (     885 calls)
     ffts         :      0.01s CPU      0.01s WALL (      66 calls)
     fftw         :      2.72s CPU      2.85s WALL (   43230 calls)

     Parallel routines

     PWSCF        :      8.53s CPU      9.72s WALL


   This run was terminated on:  11:28:27  29Dec2024            

=------------------------------------------------------------------------------=
   JOB DONE.
=------------------------------------------------------------------------------=
