
     Program PWSCF v.7.2 starts on 29Dec2024 at 12:28:41 

     This program is part of the open-source Quantum ESPRESSO suite
     for quantum simulation of materials; please cite
         "P. Giannozzi et al., J. Phys.:Condens. Matter 21 395502 (2009);
         "P. Giannozzi et al., J. Phys.:Condens. Matter 29 465901 (2017);
         "P. Giannozzi et al., J. Chem. Phys. 152 154105 (2020);
          URL http://www.quantum-espresso.org", 
     in publications or presentations arising from this work. More details at
     http://www.quantum-espresso.org/quote

     Parallel version (MPI & OpenMP), running on       8 processor cores
     Number of MPI processes:                 8
     Threads/MPI process:                     1

     MPI processes distributed on     1 nodes
     482044 MiB available memory on the printing compute node when the environment starts

     Waiting for input...
     Reading input from standard input

     Current dimensions of program PWSCF are:
     Max number of different atomic species (ntypx) = 10
     Max number of k-points (npk) =  40000
     Max angular momentum in pseudopotentials (lmaxx) =  4

     R & G space division:  proc/nbgrp/npool/nimage =       8
     Subspace diagonalization in iterative solution of the eigenvalue problem:
     a serial algorithm will be used


     Parallelization info
     --------------------
     sticks:   dense  smooth     PW     G-vecs:    dense   smooth      PW
     Min         110     110     32                 2540     2540     404
     Max         111     111     33                 2545     2545     407
     Sum         885     885    261                20341    20341    3239

     Using Slab Decomposition



     bravais-lattice index     =            1
     lattice parameter (alat)  =       5.9445  a.u.
     unit-cell volume          =     210.0654 (a.u.)^3
     number of atoms/cell      =            4
     number of atomic types    =            2
     number of electrons       =        15.00
     number of Kohn-Sham states=           12
     kinetic-energy cutoff     =      80.0000  Ry
     charge density cutoff     =     320.0000  Ry
     scf convergence threshold =      1.0E-08
     mixing beta               =       0.7000
     number of iterations used =            8  plain     mixing
     energy convergence thresh.=      1.0E-04
     force convergence thresh. =      1.0E-03
     press convergence thresh. =      1.0E+00
     Exchange-correlation= PBE
                           (   1   4   3   4   0   0   0)
     nstep                     =           50


     celldm(1)=   5.944539  celldm(2)=   0.000000  celldm(3)=   0.000000
     celldm(4)=   0.000000  celldm(5)=   0.000000  celldm(6)=   0.000000

     crystal axes: (cart. coord. in units of alat)
               a(1) = (   1.000000   0.000000   0.000000 )  
               a(2) = (   0.000000   1.000000   0.000000 )  
               a(3) = (   0.000000   0.000000   1.000000 )  

     reciprocal axes: (cart. coord. in units 2 pi/alat)
               b(1) = (  1.000000  0.000000  0.000000 )  
               b(2) = (  0.000000  1.000000  0.000000 )  
               b(3) = (  0.000000  0.000000  1.000000 )  


     PseudoPot. # 1 for Si read from file:
     ../pseudo/Si_ONCV_PBE_sr.upf
     MD5 check sum: e543d271109d17c80368dfa7c482276d
     Pseudo is Norm-conserving + core correction, Zval =  4.0
     Generated using ONCVPSP code by D. R. Hamann
     Using radial grid of 1510 points,  6 beta functions with: 
                l(1) =   0
                l(2) =   0
                l(3) =   1
                l(4) =   1
                l(5) =   2
                l(6) =   2

     PseudoPot. # 2 for Li read from file:
     ../pseudo/Li_ONCV_PBE_sr.upf
     MD5 check sum: 50ff420e78310ffa21704f3361e624a4
     Pseudo is Norm-conserving, Zval =  3.0
     Generated using ONCVPSP code by D. R. Hamann
     Using radial grid of 1944 points,  4 beta functions with: 
                l(1) =   0
                l(2) =   0
                l(3) =   1
                l(4) =   1

     atomic species   valence    mass     pseudopotential
        Si             4.00    28.08550     Si( 1.00)
        Li             3.00     6.94100     Li( 1.00)

     48 Sym. Ops., with inversion, found



   Cartesian axes

     site n.     atom                  positions (alat units)
         1           Si  tau(   1) = (   0.0000000   0.5000000   0.5000000  )
         2           Si  tau(   2) = (   0.5000000   0.0000000   0.5000000  )
         3           Si  tau(   3) = (   0.5000000   0.5000000   0.0000000  )
         4           Li  tau(   4) = (   0.0000000   0.0000000   0.0000000  )

     number of k points=    20  Marzari-Vanderbilt smearing, width (Ry)=  0.0200
                       cart. coord. in units 2pi/alat
        k(    1) = (   0.0000000   0.0000000   0.0000000), wk =   0.0058309
        k(    2) = (   0.0000000   0.0000000   0.1428571), wk =   0.0349854
        k(    3) = (   0.0000000   0.0000000   0.2857143), wk =   0.0349854
        k(    4) = (   0.0000000   0.0000000   0.4285714), wk =   0.0349854
        k(    5) = (   0.0000000   0.1428571   0.1428571), wk =   0.0699708
        k(    6) = (   0.0000000   0.1428571   0.2857143), wk =   0.1399417
        k(    7) = (   0.0000000   0.1428571   0.4285714), wk =   0.1399417
        k(    8) = (   0.0000000   0.2857143   0.2857143), wk =   0.0699708
        k(    9) = (   0.0000000   0.2857143   0.4285714), wk =   0.1399417
        k(   10) = (   0.0000000   0.4285714   0.4285714), wk =   0.0699708
        k(   11) = (   0.1428571   0.1428571   0.1428571), wk =   0.0466472
        k(   12) = (   0.1428571   0.1428571   0.2857143), wk =   0.1399417
        k(   13) = (   0.1428571   0.1428571   0.4285714), wk =   0.1399417
        k(   14) = (   0.1428571   0.2857143   0.2857143), wk =   0.1399417
        k(   15) = (   0.1428571   0.2857143   0.4285714), wk =   0.2798834
        k(   16) = (   0.1428571   0.4285714   0.4285714), wk =   0.1399417
        k(   17) = (   0.2857143   0.2857143   0.2857143), wk =   0.0466472
        k(   18) = (   0.2857143   0.2857143   0.4285714), wk =   0.1399417
        k(   19) = (   0.2857143   0.4285714   0.4285714), wk =   0.1399417
        k(   20) = (   0.4285714   0.4285714   0.4285714), wk =   0.0466472

     Dense  grid:    20341 G-vectors     FFT dimensions: (  36,  36,  36)

     Estimated max dynamical RAM per process >      14.86 MB

     Estimated total dynamical RAM >     118.87 MB

     Initial potential from superposition of free atoms

     starting charge      14.9936, renormalised to      15.0000
     Starting wfcs are   14 randomized atomic wfcs

     total cpu time spent up to now is        1.0 secs

     Self-consistent Calculation

     iteration #  1     ecut=    80.00 Ry     beta= 0.70
     Davidson diagonalization with overlap
     ethr =  1.00E-02,  avg # of iterations =  6.2

     Threshold (ethr) on eigenvalues was too large:
     Diagonalizing with lowered threshold

     Davidson diagonalization with overlap
     c_bands:  1 eigenvalues not converged
     ethr =  1.83E-04,  avg # of iterations =  4.7

     total cpu time spent up to now is        1.9 secs

     total energy              =     -39.23066178 Ry
     estimated scf accuracy    <       0.02742368 Ry

     iteration #  2     ecut=    80.00 Ry     beta= 0.70
     Davidson diagonalization with overlap
     ethr =  1.83E-04,  avg # of iterations =  1.5

     total cpu time spent up to now is        2.4 secs

     total energy              =     -39.23102540 Ry
     estimated scf accuracy    <       0.00201891 Ry

     iteration #  3     ecut=    80.00 Ry     beta= 0.70
     Davidson diagonalization with overlap
     ethr =  1.35E-05,  avg # of iterations =  3.0

     total cpu time spent up to now is        2.7 secs

     total energy              =     -39.23113598 Ry
     estimated scf accuracy    <       0.00007454 Ry

     iteration #  4     ecut=    80.00 Ry     beta= 0.70
     Davidson diagonalization with overlap
     ethr =  4.97E-07,  avg # of iterations =  3.5

     total cpu time spent up to now is        3.1 secs

     total energy              =     -39.23115344 Ry
     estimated scf accuracy    <       0.00000055 Ry

     iteration #  5     ecut=    80.00 Ry     beta= 0.70
     Davidson diagonalization with overlap
     ethr =  3.67E-09,  avg # of iterations =  3.7

     total cpu time spent up to now is        3.3 secs

     End of self-consistent calculation

          k = 0.0000 0.0000 0.0000 (  2517 PWs)   bands (ev):

   -29.1211  -0.7128  11.1502  11.1502  11.1502  14.2044  14.2044  16.0358
    23.3193  23.3193  23.3194  25.1265

          k = 0.0000 0.0000 0.1429 (  2537 PWs)   bands (ev):

   -29.1187  -0.4686   9.0758  11.4093  11.4093  14.4590  15.2856  17.5364
    20.8369  20.8369  23.9766  25.9412

          k = 0.0000 0.0000 0.2857 (  2537 PWs)   bands (ev):

   -29.1134   0.2330   6.4406  12.1772  12.1772  15.1697  15.3895  17.9926
    17.9926  21.6195  21.8653  24.2960

          k = 0.0000 0.0000 0.4286 (  2533 PWs)   bands (ev):

   -29.1091   1.1689   4.4960  13.3527  13.3527  15.3578  15.7537  15.7537
    16.0370  20.1624  25.1756  25.3467

          k = 0.0000 0.1429 0.1429 (  2534 PWs)   bands (ev):

   -29.1164  -0.2217   9.0369   9.6338  11.6682  14.9005  17.1627  17.8481
    19.2489  20.9907  21.2122  24.6160

          k = 0.0000 0.1429 0.2857 (  2547 PWs)   bands (ev):

   -29.1112   0.4890   6.6447  10.0947  12.4349  14.5552  17.5196  17.7610
    18.2539  21.5986  21.8513  23.1142

          k = 0.0000 0.1429 0.4286 (  2533 PWs)   bands (ev):

   -29.1070   1.4461   4.6922  11.0957  13.3389  13.6059  16.0209  17.0549
    18.3013  21.5664  22.8730  25.1577

          k = 0.0000 0.2857 0.2857 (  2558 PWs)   bands (ev):

   -29.1063   1.2305   6.8818   7.8433  12.7257  13.1972  17.7206  18.9637
    19.0766  20.6906  21.8338  24.6436

          k = 0.0000 0.2857 0.4286 (  2557 PWs)   bands (ev):

   -29.1024   2.2592   5.2396   8.3438  11.0580  14.3533  16.8056  18.3174
    20.1110  20.3719  23.0848  23.7839

          k = 0.0000 0.4286 0.4286 (  2538 PWs)   bands (ev):

   -29.0987   3.4662   5.7563   6.2933   9.4740  15.4756  17.9393  17.9636
    19.5953  20.8136  20.9347  22.1802

          k = 0.1429 0.1429 0.1429 (  2536 PWs)   bands (ev):

   -29.1141   0.0275   9.3130   9.3130  10.1252  17.0807  17.0807  17.7114
    19.4015  19.4016  20.4422  25.7832

          k = 0.1429 0.1429 0.2857 (  2558 PWs)   bands (ev):

   -29.1091   0.7463   6.8626  10.1371  10.4567  15.5571  16.2348  18.9584
    19.1714  19.6021  22.4006  24.4011

          k = 0.1429 0.1429 0.4286 (  2533 PWs)   bands (ev):

   -29.1050   1.7225   4.8976  11.0418  11.4948  13.3495  14.9805  19.0102
    19.8689  20.8295  22.5249  23.7104

          k = 0.1429 0.2857 0.2857 (  2534 PWs)   bands (ev):

   -29.1044   1.4924   7.1659   7.9942  10.8105  13.6370  16.6201  17.5662
    19.8041  22.3701  22.6421  23.8320

          k = 0.1429 0.2857 0.4286 (  2534 PWs)   bands (ev):

   -29.1006   2.5338   5.4739   8.5674  10.8357  12.6631  15.1935  18.1153
    20.5348  21.5764  22.5221  25.2962

          k = 0.1429 0.4286 0.4286 (  2538 PWs)   bands (ev):

   -29.0970   3.7381   6.0439   6.5382   9.4662  13.5681  15.6570  16.1875
    19.6752  22.1455  23.5885  24.5473

          k = 0.2857 0.2857 0.2857 (  2521 PWs)   bands (ev):

   -29.0999   2.2545   8.0145   8.0145   8.6714  13.7963  13.7963  15.9241
    20.8259  23.6961  23.6961  24.4967

          k = 0.2857 0.2857 0.4286 (  2523 PWs)   bands (ev):

   -29.0964   3.3390   6.1410   8.9539   9.4110  11.3720  13.3818  15.5566
    19.4984  24.5096  24.9923  26.9746

          k = 0.2857 0.4286 0.4286 (  2530 PWs)   bands (ev):

   -29.0930   4.5331   6.9025   7.2222   9.3455  11.0626  12.7730  13.6157
    18.4334  26.1893  27.3925  28.3114

          k = 0.4286 0.4286 0.4286 (  2521 PWs)   bands (ev):

   -29.0898   5.6918   7.9732   8.3148   8.3148  10.3100  10.3100  11.5021
    17.7122  30.1317  30.1317  30.7911

     the Fermi energy is    17.8070 ev

!    total energy              =     -39.23115391 Ry
     estimated scf accuracy    <          5.6E-09 Ry
     smearing contrib. (-TS)   =      -0.00093439 Ry
     internal energy E=F+TS    =     -39.23021952 Ry

     The total energy is F=E-TS. E is the sum of the following terms:
     one-electron contribution =      15.92228645 Ry
     hartree contribution      =       2.77252106 Ry
     xc contribution           =     -14.25644951 Ry
     ewald contribution        =     -43.66857752 Ry

     convergence has been achieved in   5 iterations

     Forces acting on atoms (cartesian axes, Ry/au):

     atom    1 type  1   force =     0.00000000    0.00000000    0.00000000
     atom    2 type  1   force =     0.00000000    0.00000000    0.00000000
     atom    3 type  1   force =     0.00000000    0.00000000    0.00000000
     atom    4 type  2   force =     0.00000000    0.00000000    0.00000000
     The non-local contrib.  to forces
     atom    1 type  1   force =     0.00000000    0.00000000    0.00000000
     atom    2 type  1   force =     0.00000000    0.00000000    0.00000000
     atom    3 type  1   force =     0.00000000    0.00000000    0.00000000
     atom    4 type  2   force =     0.00000000    0.00000000    0.00000000
     The ionic contribution  to forces
     atom    1 type  1   force =    -0.00000000    0.00000000    0.00000000
     atom    2 type  1   force =     0.00000000   -0.00000000    0.00000000
     atom    3 type  1   force =     0.00000000    0.00000000   -0.00000000
     atom    4 type  2   force =    -0.00000000   -0.00000000   -0.00000000
     The local contribution  to forces
     atom    1 type  1   force =    -0.00000000   -0.00000000    0.00000000
     atom    2 type  1   force =    -0.00000000   -0.00000000    0.00000000
     atom    3 type  1   force =    -0.00000000   -0.00000000   -0.00000000
     atom    4 type  2   force =     0.00000000    0.00000000    0.00000000
     The core correction contribution to forces
     atom    1 type  1   force =     0.00000000   -0.00000000    0.00000000
     atom    2 type  1   force =    -0.00000000    0.00000000    0.00000000
     atom    3 type  1   force =     0.00000000    0.00000000    0.00000000
     atom    4 type  2   force =     0.00000000    0.00000000    0.00000000
     The Hubbard contrib.    to forces
     atom    1 type  1   force =     0.00000000    0.00000000    0.00000000
     atom    2 type  1   force =     0.00000000    0.00000000    0.00000000
     atom    3 type  1   force =     0.00000000    0.00000000    0.00000000
     atom    4 type  2   force =     0.00000000    0.00000000    0.00000000
     The SCF correction term to forces
     atom    1 type  1   force =     0.00000000    0.00000000    0.00000000
     atom    2 type  1   force =     0.00000000   -0.00000000    0.00000000
     atom    3 type  1   force =    -0.00000000    0.00000000   -0.00000000
     atom    4 type  2   force =     0.00000000   -0.00000000   -0.00000000

     Total force =     0.000000     Total SCF correction =     0.000000


     Computing stress (Cartesian axis) and pressure

          total   stress  (Ry/bohr**3)                   (kbar)     P=     1506.55
   0.01024132   0.00000000   0.00000000         1506.55        0.00        0.00
   0.00000000   0.01024132   0.00000000            0.00     1506.55        0.00
   0.00000000   0.00000000   0.01024132            0.00        0.00     1506.55


     BFGS Geometry Optimization
     Energy error            =      0.0E+00 Ry
     Gradient error          =      0.0E+00 Ry/Bohr
     Cell gradient error     =      1.0E+03 kbar

     number of scf cycles    =   1
     number of bfgs steps    =   0

     enthalpy           new  =     -38.5171560034 Ry

     new trust radius        =       0.4958555618 bohr
ibrav =      1
 celldm(1) =      6.96141081
Input lattice vectors:
     1.17105977     0.00000000     0.00000000
     0.00000000     1.17105977     0.00000000
     0.00000000     0.00000000     1.17105977
New lattice vectors in INITIAL alat:
     1.17105977     0.00000000     0.00000000
     0.00000000     1.17105977     0.00000000
     0.00000000     0.00000000     1.17105977
New lattice vectors in NEW alat (for information only):
     1.00000000     0.00000000     0.00000000
     0.00000000     1.00000000     0.00000000
     0.00000000     0.00000000     1.00000000
Discrepancy in bohr =     0.000000    0.000000    0.000000
     new conv_thr            =       0.0000000100 Ry

     new unit-cell volume =    337.35860 a.u.^3 (    49.99139 Ang^3 )
     density =      3.02926 g/cm^3

CELL_PARAMETERS (alat=  5.94453926)
   1.171059774   0.000000000   0.000000000
   0.000000000   1.171059774   0.000000000
   0.000000000   0.000000000   1.171059774

ATOMIC_POSITIONS (crystal)
Si            0.0000000000        0.5000000000        0.5000000000
Si            0.5000000000        0.0000000000        0.5000000000
Si            0.5000000000        0.5000000000        0.0000000000
Li            0.0000000000        0.0000000000        0.0000000000



     Writing config-only to output data dir ./output/SiLi.save/
     NEW-OLD atomic charge density approx. for the potential
     extrapolated charge   20.65743, renormalised to   15.00000

     total cpu time spent up to now is        5.0 secs

     Self-consistent Calculation

     iteration #  1     ecut=    80.00 Ry     beta= 0.70
     Davidson diagonalization with overlap
     c_bands:  1 eigenvalues not converged
     ethr =  1.00E-06,  avg # of iterations = 13.9

     total cpu time spent up to now is        5.8 secs

     total energy              =     -39.64887708 Ry
     estimated scf accuracy    <       0.02142163 Ry

     iteration #  2     ecut=    80.00 Ry     beta= 0.70
     Davidson diagonalization with overlap
     ethr =  1.43E-04,  avg # of iterations =  3.0

     total cpu time spent up to now is        6.2 secs

     total energy              =     -39.73836004 Ry
     estimated scf accuracy    <       0.01980304 Ry

     iteration #  3     ecut=    80.00 Ry     beta= 0.70
     Davidson diagonalization with overlap
     ethr =  1.32E-04,  avg # of iterations =  1.0

     total cpu time spent up to now is        6.6 secs

     total energy              =     -39.73397262 Ry
     estimated scf accuracy    <       0.00681887 Ry

     iteration #  4     ecut=    80.00 Ry     beta= 0.70
     Davidson diagonalization with overlap
     ethr =  4.55E-05,  avg # of iterations =  2.0

     total cpu time spent up to now is        6.8 secs

     total energy              =     -39.73473680 Ry
     estimated scf accuracy    <       0.00005048 Ry

     iteration #  5     ecut=    80.00 Ry     beta= 0.70
     Davidson diagonalization with overlap
     ethr =  3.37E-07,  avg # of iterations =  3.6

     total cpu time spent up to now is        7.2 secs

     total energy              =     -39.73473738 Ry
     estimated scf accuracy    <       0.00001518 Ry

     iteration #  6     ecut=    80.00 Ry     beta= 0.70
     Davidson diagonalization with overlap
     ethr =  1.01E-07,  avg # of iterations =  2.0

     total cpu time spent up to now is        7.4 secs

     total energy              =     -39.73473977 Ry
     estimated scf accuracy    <       0.00000096 Ry

     iteration #  7     ecut=    80.00 Ry     beta= 0.70
     Davidson diagonalization with overlap
     ethr =  6.40E-09,  avg # of iterations =  2.2

     total cpu time spent up to now is        7.7 secs

     total energy              =     -39.73473987 Ry
     estimated scf accuracy    <       0.00000008 Ry

     iteration #  8     ecut=    80.00 Ry     beta= 0.70
     Davidson diagonalization with overlap
     ethr =  5.42E-10,  avg # of iterations =  2.1

     total cpu time spent up to now is        7.9 secs

     total energy              =     -39.73473986 Ry
     estimated scf accuracy    <       0.00000003 Ry

     iteration #  9     ecut=    80.00 Ry     beta= 0.70
     Davidson diagonalization with overlap
     ethr =  1.92E-10,  avg # of iterations =  2.0

     total cpu time spent up to now is        8.2 secs

     End of self-consistent calculation

          k = 0.0000 0.0000 0.0000 (  2517 PWs)   bands (ev):

   -35.8818  -3.7400   5.7161   5.7161   5.7161   6.7756   6.7756  10.5911
    14.7656  14.7656  16.1713  16.1718

          k = 0.0000 0.0000 0.1220 (  2537 PWs)   bands (ev):

   -35.8822  -3.5480   3.7917   5.9103   5.9103   6.9804   8.4579  11.2917
    13.1494  13.1494  13.6967  15.9837

          k = 0.0000 0.0000 0.2440 (  2537 PWs)   bands (ev):

   -35.8816  -2.9927   1.7140   6.4788   6.4788   7.5835   9.4379  11.0462
    11.0462  11.8792  13.5594  15.2837

          k = 0.0000 0.0000 0.3660 (  2533 PWs)   bands (ev):

   -35.8809  -2.2310   0.1716   7.2977   7.2977   8.4987   9.4319   9.4319
     9.8031  10.2750  14.0774  17.5156

          k = 0.0000 0.1220 0.1220 (  2534 PWs)   bands (ev):

   -35.8817  -3.3550   3.6805   4.3558   6.1046   7.9276   9.5731  11.1617
    11.9057  12.9818  13.9604  14.2621

          k = 0.0000 0.1220 0.2440 (  2547 PWs)   bands (ev):

   -35.8818  -2.7958   1.8670   4.6425   6.6732   8.4603   9.3235  10.8609
    11.2118  12.9545  14.0128  14.0722

          k = 0.0000 0.1220 0.3660 (  2533 PWs)   bands (ev):

   -35.8808  -2.0234   0.3298   5.3808   7.4937   7.6451   9.3205   9.6118
    11.3069  11.8408  14.7021  14.8291

          k = 0.0000 0.2440 0.2440 (  2558 PWs)   bands (ev):

   -35.8817  -2.2226   2.0003   2.9157   7.1732   7.2431   9.3281  11.4171
    12.2024  13.0785  13.5427  14.0582

          k = 0.0000 0.2440 0.3660 (  2557 PWs)   bands (ev):

   -35.8814  -1.4114   0.7637   3.2075   5.8019   8.0725   9.9623  10.1150
    12.2566  12.5239  14.2761  14.7793

          k = 0.0000 0.3660 0.3660 (  2538 PWs)   bands (ev):

   -35.8803  -0.4875   1.1473   1.6159   4.5557   8.9459  10.6237  10.8006
    10.9625  12.4109  12.9037  13.9765

          k = 0.1220 0.1220 0.1220 (  2536 PWs)   bands (ev):

   -35.8816  -3.1610   3.8822   3.8822   5.0263   9.7638   9.7638  11.1551
    11.1551  11.7327  13.1749  15.3246

          k = 0.1220 0.1220 0.2440 (  2558 PWs)   bands (ev):

   -35.8820  -2.5983   2.0298   4.4743   5.2812   9.0210   9.7845  10.3558
    11.4265  12.3293  14.3659  14.4926

          k = 0.1220 0.1220 0.3660 (  2533 PWs)   bands (ev):

   -35.8806  -1.8160   0.4927   5.3464   5.8440   7.3687   8.5603  11.1941
    12.0952  12.8206  13.0557  15.0713

          k = 0.1220 0.2440 0.2440 (  2534 PWs)   bands (ev):

   -35.8806  -2.0229   2.2040   3.0233   5.4826   7.3602   9.5609  10.6545
    11.4206  13.6825  15.0175  15.1599

          k = 0.1220 0.2440 0.3660 (  2534 PWs)   bands (ev):

   -35.8803  -1.2041   0.9423   3.3910   5.7738   6.3085   8.5511  10.7223
    12.1471  13.8986  14.4339  15.0152

          k = 0.1220 0.3660 0.3660 (  2538 PWs)   bands (ev):

   -35.8802  -0.2787   1.3519   1.8084   4.6066   7.0824   8.7566   9.2086
    12.8980  13.1806  14.5908  15.0604

          k = 0.2440 0.2440 0.2440 (  2521 PWs)   bands (ev):

   -35.8797  -1.4386   2.8023   2.8023   4.0444   7.4106   7.4106   9.1236
    13.6717  14.2306  14.2306  16.5005

          k = 0.2440 0.2440 0.3660 (  2523 PWs)   bands (ev):

   -35.8794  -0.5920   1.4451   3.6829   4.2982   5.7327   6.9453   8.6433
    12.7171  15.0138  15.8483  16.6993

          k = 0.2440 0.3660 0.3660 (  2530 PWs)   bands (ev):

   -35.8794   0.3403   1.9523   2.3583   4.6558   4.9873   6.5911   7.1214
    11.8853  16.1791  17.5760  18.0249

          k = 0.3660 0.3660 0.3660 (  2521 PWs)   bands (ev):

   -35.8788   1.3058   2.8343   2.8343   3.4043   4.9063   4.9063   5.5356
    11.1842  19.1311  19.1311  19.7646

     the Fermi energy is    10.4972 ev

!    total energy              =     -39.73473986 Ry
     estimated scf accuracy    <          3.0E-10 Ry
     smearing contrib. (-TS)   =      -0.00015671 Ry
     internal energy E=F+TS    =     -39.73458315 Ry

     The total energy is F=E-TS. E is the sum of the following terms:
     one-electron contribution =       7.46479676 Ry
     hartree contribution      =       3.08332084 Ry
     xc contribution           =     -12.99290692 Ry
     ewald contribution        =     -37.28979383 Ry

     convergence has been achieved in   9 iterations

     Forces acting on atoms (cartesian axes, Ry/au):

     atom    1 type  1   force =     0.00000000    0.00000000    0.00000000
     atom    2 type  1   force =     0.00000000    0.00000000    0.00000000
     atom    3 type  1   force =     0.00000000    0.00000000    0.00000000
     atom    4 type  2   force =     0.00000000    0.00000000    0.00000000
     The non-local contrib.  to forces
     atom    1 type  1   force =     0.00000000    0.00000000    0.00000000
     atom    2 type  1   force =     0.00000000    0.00000000    0.00000000
     atom    3 type  1   force =     0.00000000    0.00000000    0.00000000
     atom    4 type  2   force =     0.00000000    0.00000000    0.00000000
     The ionic contribution  to forces
     atom    1 type  1   force =    -0.00000000   -0.00000000    0.00000000
     atom    2 type  1   force =    -0.00000000   -0.00000000    0.00000000
     atom    3 type  1   force =     0.00000000   -0.00000000   -0.00000000
     atom    4 type  2   force =    -0.00000000   -0.00000000   -0.00000000
     The local contribution  to forces
     atom    1 type  1   force =     0.00000000   -0.00000000   -0.00000000
     atom    2 type  1   force =    -0.00000000   -0.00000000   -0.00000000
     atom    3 type  1   force =    -0.00000000   -0.00000000    0.00000000
     atom    4 type  2   force =     0.00000000    0.00000000    0.00000000
     The core correction contribution to forces
     atom    1 type  1   force =     0.00000000   -0.00000000   -0.00000000
     atom    2 type  1   force =    -0.00000000    0.00000000   -0.00000000
     atom    3 type  1   force =    -0.00000000   -0.00000000   -0.00000000
     atom    4 type  2   force =     0.00000000    0.00000000    0.00000000
     The Hubbard contrib.    to forces
     atom    1 type  1   force =     0.00000000    0.00000000    0.00000000
     atom    2 type  1   force =     0.00000000    0.00000000    0.00000000
     atom    3 type  1   force =     0.00000000    0.00000000    0.00000000
     atom    4 type  2   force =     0.00000000    0.00000000    0.00000000
     The SCF correction term to forces
     atom    1 type  1   force =     0.00000000   -0.00000000   -0.00000000
     atom    2 type  1   force =    -0.00000000    0.00000000   -0.00000000
     atom    3 type  1   force =    -0.00000000   -0.00000000    0.00000000
     atom    4 type  2   force =     0.00000000   -0.00000000   -0.00000000

     Total force =     0.000000     Total SCF correction =     0.000000


     Computing stress (Cartesian axis) and pressure

          total   stress  (Ry/bohr**3)                   (kbar)     P=      110.84
   0.00075345   0.00000000   0.00000000          110.84        0.00        0.00
   0.00000000   0.00075345   0.00000000            0.00      110.84        0.00
   0.00000000   0.00000000   0.00075345            0.00        0.00      110.84

     Energy error            =      7.1E-02 Ry
     Gradient error          =      0.0E+00 Ry/Bohr
     Cell gradient error     =      3.9E+02 kbar

     number of scf cycles    =   2
     number of bfgs steps    =   1

     enthalpy           old  =     -38.5171560034 Ry
     enthalpy           new  =     -38.5880812767 Ry

     CASE: enthalpy          _new < enthalpy          _old

     new trust radius        =       0.1859284877 bohr
ibrav =      1
 celldm(1) =      6.60906646
Input lattice vectors:
     1.11178784     0.00000000     0.00000000
     0.00000000     1.11178784     0.00000000
     0.00000000     0.00000000     1.11178784
New lattice vectors in INITIAL alat:
     1.11178784     0.00000000     0.00000000
     0.00000000     1.11178784     0.00000000
     0.00000000     0.00000000     1.11178784
New lattice vectors in NEW alat (for information only):
     1.00000000     0.00000000     0.00000000
     0.00000000     1.00000000     0.00000000
     0.00000000     0.00000000     1.00000000
Discrepancy in bohr =     0.000000    0.000000    0.000000
     new conv_thr            =            1.0E-10 Ry

     new unit-cell volume =    288.68243 a.u.^3 (    42.77832 Ang^3 )
     density =      3.54004 g/cm^3

CELL_PARAMETERS (alat=  5.94453926)
   1.111787838   0.000000000   0.000000000
   0.000000000   1.111787838   0.000000000
   0.000000000   0.000000000   1.111787838

ATOMIC_POSITIONS (crystal)
Si            0.0000000000        0.5000000000        0.5000000000
Si            0.5000000000        0.0000000000        0.5000000000
Si            0.5000000000        0.5000000000        0.0000000000
Li            0.0000000000        0.0000000000        0.0000000000



     Writing config-only to output data dir ./output/SiLi.save/
     NEW-OLD atomic charge density approx. for the potential
     extrapolated charge   12.47185, renormalised to   15.00000

     total cpu time spent up to now is        9.1 secs

     Self-consistent Calculation

     iteration #  1     ecut=    80.00 Ry     beta= 0.70
     Davidson diagonalization with overlap
     ethr =  1.00E-06,  avg # of iterations = 10.7

     total cpu time spent up to now is        9.6 secs

     total energy              =     -39.64266178 Ry
     estimated scf accuracy    <       0.00986904 Ry

     iteration #  2     ecut=    80.00 Ry     beta= 0.70
     Davidson diagonalization with overlap
     ethr =  6.58E-05,  avg # of iterations =  2.4

     total cpu time spent up to now is        9.9 secs

     total energy              =     -39.66113410 Ry
     estimated scf accuracy    <       0.00301266 Ry

     iteration #  3     ecut=    80.00 Ry     beta= 0.70
     Davidson diagonalization with overlap
     ethr =  2.01E-05,  avg # of iterations =  1.1

     total cpu time spent up to now is       10.1 secs

     total energy              =     -39.66097687 Ry
     estimated scf accuracy    <       0.00051211 Ry

     iteration #  4     ecut=    80.00 Ry     beta= 0.70
     Davidson diagonalization with overlap
     ethr =  3.41E-06,  avg # of iterations =  2.1

     total cpu time spent up to now is       10.3 secs

     total energy              =     -39.66100918 Ry
     estimated scf accuracy    <       0.00002583 Ry

     iteration #  5     ecut=    80.00 Ry     beta= 0.70
     Davidson diagonalization with overlap
     ethr =  1.72E-07,  avg # of iterations =  3.1

     total cpu time spent up to now is       10.6 secs

     total energy              =     -39.66101772 Ry
     estimated scf accuracy    <       0.00000072 Ry

     iteration #  6     ecut=    80.00 Ry     beta= 0.70
     Davidson diagonalization with overlap
     ethr =  4.83E-09,  avg # of iterations =  3.1

     total cpu time spent up to now is       10.8 secs

     total energy              =     -39.66101807 Ry
     estimated scf accuracy    <       0.00000017 Ry

     iteration #  7     ecut=    80.00 Ry     beta= 0.70
     Davidson diagonalization with overlap
     ethr =  1.16E-09,  avg # of iterations =  1.6

     total cpu time spent up to now is       11.0 secs

     total energy              =     -39.66101808 Ry
     estimated scf accuracy    <       0.00000001 Ry

     iteration #  8     ecut=    80.00 Ry     beta= 0.70
     Davidson diagonalization with overlap
     ethr =  9.18E-11,  avg # of iterations =  2.4

     total cpu time spent up to now is       11.3 secs

     total energy              =     -39.66101808 Ry
     estimated scf accuracy    <          4.5E-09 Ry

     iteration #  9     ecut=    80.00 Ry     beta= 0.70
     Davidson diagonalization with overlap
     ethr =  2.99E-11,  avg # of iterations =  2.0

     total cpu time spent up to now is       11.5 secs

     End of self-consistent calculation

          k = 0.0000 0.0000 0.0000 (  2517 PWs)   bands (ev):

   -33.8022  -2.9365   7.2438   7.2438   7.2438   9.0496   9.0496  12.1783
    17.7255  17.7255  18.2642  18.2648

          k = 0.0000 0.0000 0.1285 (  2537 PWs)   bands (ev):

   -33.8018  -2.7265   5.3224   7.4586   7.4586   9.2834  10.5760  13.0559
    15.4546  15.4546  16.5789  18.8223

          k = 0.0000 0.0000 0.2570 (  2537 PWs)   bands (ev):

   -33.8007  -2.1199   3.0597   8.0897   8.0897   9.9792  11.2571  13.0790
    13.0790  14.5746  16.0204  18.1833

          k = 0.0000 0.0000 0.3855 (  2533 PWs)   bands (ev):

   -33.7997  -1.2923   1.3764   9.0150   9.0150  11.1158  11.2661  11.2661
    11.4561  12.6892  17.3916  19.7572

          k = 0.0000 0.1285 0.1285 (  2534 PWs)   bands (ev):

   -33.8013  -2.5152   5.2426   5.8746   7.6733  10.0925  11.8637  13.2611
    13.8666  15.3583  16.1101  17.1865

          k = 0.0000 0.1285 0.2570 (  2547 PWs)   bands (ev):

   -33.8003  -1.9037   3.2334   6.2292   8.3041  10.3454  11.7286  12.9359
    13.2770  15.7628  16.2735  16.3739

          k = 0.0000 0.1285 0.3855 (  2533 PWs)   bands (ev):

   -33.7993  -1.0630   1.5509   7.0714   9.2294   9.2990  11.4737  11.8232
    13.3076  14.4123  17.1362  18.0181

          k = 0.0000 0.2570 0.2570 (  2558 PWs)   bands (ev):

   -33.7993  -1.2747   3.4168   4.3208   8.7913   8.9345  11.8308  13.6089
    14.2282  15.3551  16.4349  16.7076

          k = 0.0000 0.2570 0.3855 (  2557 PWs)   bands (ev):

   -33.7985  -0.3881   2.0340   4.7039   7.3050   9.8624  12.0656  12.4779
    14.7019  14.7419  17.1376  17.5576

          k = 0.0000 0.3855 0.3855 (  2538 PWs)   bands (ev):

   -33.7975   0.6255   2.4806   2.9589   5.9300  10.8160  12.7322  13.0120
    13.4227  14.9620  15.6164  15.9628

          k = 0.1285 0.1285 0.1285 (  2536 PWs)   bands (ev):

   -33.8008  -2.3026   5.4701   5.4701   6.4513  12.0167  12.0167  13.4986
    13.5079  13.5079  15.3153  18.3280

          k = 0.1285 0.1285 0.2570 (  2558 PWs)   bands (ev):

   -33.7999  -1.6867   3.4176   6.1453   6.7420  10.9311  11.6973  12.9157
    13.7790  14.4787  16.7033  17.2634

          k = 0.1285 0.1285 0.3855 (  2533 PWs)   bands (ev):

   -33.7988  -0.8340   1.7310   7.2062   7.3247   9.0558  10.4342  13.9409
    14.1525  15.1758  15.5050  17.8243

          k = 0.1285 0.2570 0.2570 (  2534 PWs)   bands (ev):

   -33.7987  -1.0548   3.6482   4.4547   7.0175   9.1599  11.6152  12.7121
    13.9202  16.3509  17.2282  18.1327

          k = 0.1285 0.2570 0.3855 (  2534 PWs)   bands (ev):

   -33.7979  -0.1593   2.2330   4.9137   7.2190   8.1165  10.4755  12.8953
    14.7223  16.1658  16.7919  17.8915

          k = 0.1285 0.3855 0.3855 (  2538 PWs)   bands (ev):

   -33.7971   0.8553   2.7135   3.1724   5.9710   8.9412  10.7436  11.2371
    14.9588  15.7598  17.2948  17.8586

          k = 0.2570 0.2570 0.2570 (  2521 PWs)   bands (ev):

   -33.7976  -0.4123   4.3361   4.3361   5.3290   9.2340   9.2340  11.1110
    15.7600  17.0772  17.0772  18.8303

          k = 0.2570 0.2570 0.3855 (  2523 PWs)   bands (ev):

   -33.7968   0.5150   2.7983   5.4253   5.6097   7.2708   8.7796  10.6431
    14.6920  18.0853  18.4612  19.5789

          k = 0.2570 0.3855 0.3855 (  2530 PWs)   bands (ev):

   -33.7961   1.5346   3.4057   3.7873   5.9871   6.6801   8.3393   8.9741
    13.7839  19.2111  20.6080  21.1391

          k = 0.3855 0.3855 0.3855 (  2521 PWs)   bands (ev):

   -33.7953   2.5780   4.5016   4.5016   4.6892   6.3612   6.3612   7.2009
    13.0611  22.5811  22.5811  23.1705

     the Fermi energy is    12.7558 ev

!    total energy              =     -39.66101808 Ry
     estimated scf accuracy    <          5.7E-11 Ry
     smearing contrib. (-TS)   =      -0.00162290 Ry
     internal energy E=F+TS    =     -39.65939518 Ry

     The total energy is F=E-TS. E is the sum of the following terms:
     one-electron contribution =      10.03405232 Ry
     hartree contribution      =       2.95005294 Ry
     xc contribution           =     -13.36570299 Ry
     ewald contribution        =     -39.27779745 Ry

     convergence has been achieved in   9 iterations

     Forces acting on atoms (cartesian axes, Ry/au):

     atom    1 type  1   force =     0.00000000    0.00000000    0.00000000
     atom    2 type  1   force =     0.00000000    0.00000000    0.00000000
     atom    3 type  1   force =     0.00000000    0.00000000    0.00000000
     atom    4 type  2   force =     0.00000000    0.00000000    0.00000000
     The non-local contrib.  to forces
     atom    1 type  1   force =     0.00000000    0.00000000    0.00000000
     atom    2 type  1   force =     0.00000000    0.00000000    0.00000000
     atom    3 type  1   force =     0.00000000    0.00000000    0.00000000
     atom    4 type  2   force =     0.00000000    0.00000000    0.00000000
     The ionic contribution  to forces
     atom    1 type  1   force =    -0.00000000   -0.00000000    0.00000000
     atom    2 type  1   force =    -0.00000000   -0.00000000    0.00000000
     atom    3 type  1   force =     0.00000000   -0.00000000   -0.00000000
     atom    4 type  2   force =    -0.00000000   -0.00000000   -0.00000000
     The local contribution  to forces
     atom    1 type  1   force =     0.00000000   -0.00000000   -0.00000000
     atom    2 type  1   force =    -0.00000000    0.00000000   -0.00000000
     atom    3 type  1   force =    -0.00000000   -0.00000000   -0.00000000
     atom    4 type  2   force =     0.00000000    0.00000000   -0.00000000
     The core correction contribution to forces
     atom    1 type  1   force =     0.00000000   -0.00000000   -0.00000000
     atom    2 type  1   force =    -0.00000000    0.00000000   -0.00000000
     atom    3 type  1   force =    -0.00000000   -0.00000000   -0.00000000
     atom    4 type  2   force =     0.00000000    0.00000000    0.00000000
     The Hubbard contrib.    to forces
     atom    1 type  1   force =     0.00000000    0.00000000    0.00000000
     atom    2 type  1   force =     0.00000000    0.00000000    0.00000000
     atom    3 type  1   force =     0.00000000    0.00000000    0.00000000
     atom    4 type  2   force =     0.00000000    0.00000000    0.00000000
     The SCF correction term to forces
     atom    1 type  1   force =     0.00000000    0.00000000    0.00000000
     atom    2 type  1   force =     0.00000000    0.00000000    0.00000000
     atom    3 type  1   force =    -0.00000000   -0.00000000   -0.00000000
     atom    4 type  2   force =    -0.00000000    0.00000000    0.00000000

     Total force =     0.000000     Total SCF correction =     0.000000


     Computing stress (Cartesian axis) and pressure

          total   stress  (Ry/bohr**3)                   (kbar)     P=      361.00
   0.00245406   0.00000000   0.00000000          361.00        0.00        0.00
   0.00000000   0.00245406   0.00000000            0.00      361.00        0.00
   0.00000000   0.00000000   0.00245406            0.00        0.00      361.00

     Energy error            =      9.2E-02 Ry
     Gradient error          =      0.0E+00 Ry/Bohr
     Cell gradient error     =      1.4E+02 kbar

     number of scf cycles    =   3
     number of bfgs steps    =   2

     enthalpy           old  =     -38.5880812767 Ry
     enthalpy           new  =     -38.6798064357 Ry

     CASE: enthalpy          _new < enthalpy          _old

     new trust radius        =       0.0860090856 bohr
ibrav =      1
 celldm(1) =      6.44178636
Input lattice vectors:
     1.08364771     0.00000000     0.00000000
     0.00000000     1.08364771     0.00000000
     0.00000000     0.00000000     1.08364771
New lattice vectors in INITIAL alat:
     1.08364771     0.00000000     0.00000000
     0.00000000     1.08364771     0.00000000
     0.00000000     0.00000000     1.08364771
New lattice vectors in NEW alat (for information only):
     1.00000000     0.00000000     0.00000000
     0.00000000     1.00000000     0.00000000
     0.00000000     0.00000000     1.00000000
Discrepancy in bohr =     0.000000    0.000000    0.000000
     new conv_thr            =            1.0E-10 Ry

     new unit-cell volume =    267.31231 a.u.^3 (    39.61160 Ang^3 )
     density =      3.82305 g/cm^3

CELL_PARAMETERS (alat=  5.94453926)
   1.083647710   0.000000000   0.000000000
   0.000000000   1.083647710   0.000000000
   0.000000000   0.000000000   1.083647710

ATOMIC_POSITIONS (crystal)
Si            0.0000000000        0.5000000000        0.5000000000
Si            0.5000000000        0.0000000000        0.5000000000
Si            0.5000000000        0.5000000000        0.0000000000
Li            0.0000000000        0.0000000000        0.0000000000



     Writing config-only to output data dir ./output/SiLi.save/
     NEW-OLD atomic charge density approx. for the potential
     extrapolated charge   13.80135, renormalised to   15.00000

     total cpu time spent up to now is       12.4 secs

     Self-consistent Calculation

     iteration #  1     ecut=    80.00 Ry     beta= 0.70
     Davidson diagonalization with overlap
     ethr =  1.00E-06,  avg # of iterations =  8.9

     total cpu time spent up to now is       12.9 secs

     total energy              =     -39.59227088 Ry
     estimated scf accuracy    <       0.00159055 Ry

     iteration #  2     ecut=    80.00 Ry     beta= 0.70
     Davidson diagonalization with overlap
     ethr =  1.06E-05,  avg # of iterations =  2.9

     total cpu time spent up to now is       13.1 secs

     total energy              =     -39.59668083 Ry
     estimated scf accuracy    <       0.00088307 Ry

     iteration #  3     ecut=    80.00 Ry     beta= 0.70
     Davidson diagonalization with overlap
     ethr =  5.89E-06,  avg # of iterations =  1.0

     total cpu time spent up to now is       13.3 secs

     total energy              =     -39.59661204 Ry
     estimated scf accuracy    <       0.00019757 Ry

     iteration #  4     ecut=    80.00 Ry     beta= 0.70
     Davidson diagonalization with overlap
     ethr =  1.32E-06,  avg # of iterations =  2.0

     total cpu time spent up to now is       13.5 secs

     total energy              =     -39.59660739 Ry
     estimated scf accuracy    <       0.00002521 Ry

     iteration #  5     ecut=    80.00 Ry     beta= 0.70
     Davidson diagonalization with overlap
     ethr =  1.68E-07,  avg # of iterations =  2.0

     total cpu time spent up to now is       13.7 secs

     total energy              =     -39.59661206 Ry
     estimated scf accuracy    <       0.00000011 Ry

     iteration #  6     ecut=    80.00 Ry     beta= 0.70
     Davidson diagonalization with overlap
     ethr =  7.51E-10,  avg # of iterations =  4.2

     total cpu time spent up to now is       14.0 secs

     total energy              =     -39.59661218 Ry
     estimated scf accuracy    <       0.00000014 Ry

     iteration #  7     ecut=    80.00 Ry     beta= 0.70
     Davidson diagonalization with overlap
     ethr =  7.51E-10,  avg # of iterations =  2.0

     total cpu time spent up to now is       14.2 secs

     total energy              =     -39.59661219 Ry
     estimated scf accuracy    <          8.0E-09 Ry

     iteration #  8     ecut=    80.00 Ry     beta= 0.70
     Davidson diagonalization with overlap
     ethr =  5.36E-11,  avg # of iterations =  1.9

     total cpu time spent up to now is       14.4 secs

     total energy              =     -39.59661219 Ry
     estimated scf accuracy    <          1.6E-09 Ry

     iteration #  9     ecut=    80.00 Ry     beta= 0.70
     Davidson diagonalization with overlap
     ethr =  1.04E-11,  avg # of iterations =  2.2

     total cpu time spent up to now is       14.7 secs

     End of self-consistent calculation

          k = 0.0000 0.0000 0.0000 (  2517 PWs)   bands (ev):

   -32.7140  -2.4798   8.0841   8.0841   8.0841  10.2295  10.2295  13.0308
    19.3366  19.3366  19.3862  19.3862

          k = 0.0000 0.0000 0.1318 (  2537 PWs)   bands (ev):

   -32.7133  -2.2611   6.1430   8.3094   8.3094  10.4728  11.6702  14.0223
    16.6680  16.6680  18.1711  20.3703

          k = 0.0000 0.0000 0.2637 (  2537 PWs)   bands (ev):

   -32.7116  -1.6300   3.7903   8.9726   8.9726  11.1916  12.1970  14.1678
    14.1678  16.1082  17.2958  19.8070

          k = 0.0000 0.0000 0.3955 (  2533 PWs)   bands (ev):

   -32.7103  -0.7720   2.0400   9.9541   9.9541  12.2544  12.2544  12.3103
    12.3297  14.2149  19.1769  20.9583

          k = 0.0000 0.1318 0.1318 (  2534 PWs)   bands (ev):

   -32.7126  -2.0409   6.0770   6.6919   8.5345  11.2065  13.0649  14.3185
    15.0089  16.6203  17.2505  18.7954

          k = 0.0000 0.1318 0.2637 (  2547 PWs)   bands (ev):

   -32.7110  -1.4041   3.9730   7.0768   9.1972  11.2958  13.0498  14.0121
    14.3817  17.2832  17.5164  17.5969

          k = 0.0000 0.1318 0.3955 (  2533 PWs)   bands (ev):

   -32.7096  -0.5317   2.2213   7.9632  10.1778  10.1887  12.4762  13.0801
    14.3974  15.8877  18.4229  19.7151

          k = 0.0000 0.2637 0.2637 (  2558 PWs)   bands (ev):

   -32.7094  -0.7475   4.1770   5.0817   9.6587   9.8585  13.1620  14.7890
    15.3078  16.5442  17.6575  18.4492

          k = 0.0000 0.2637 0.3955 (  2557 PWs)   bands (ev):

   -32.7082   0.1754   2.7253   5.5033   8.1225  10.8380  13.1138  13.8061
    15.9302  15.9826  18.6320  19.1186

          k = 0.0000 0.3955 0.3955 (  2538 PWs)   bands (ev):

   -32.7069   1.2341   3.1979   3.6839   6.6891  11.8316  13.8730  14.1110
    14.8150  16.3084  17.0327  17.0704

          k = 0.1318 0.1318 0.1318 (  2536 PWs)   bands (ev):

   -32.7118  -1.8192   6.3166   6.3166   7.2379  13.1712  13.1712  14.4376
    14.8086  14.8086  16.4569  19.9574

          k = 0.1318 0.1318 0.2637 (  2558 PWs)   bands (ev):

   -32.7103  -1.1773   4.1667   7.0300   7.5434  11.9501  12.7113  14.2862
    15.0052  15.6205  17.9666  18.7896

          k = 0.1318 0.1318 0.3955 (  2533 PWs)   bands (ev):

   -32.7089  -0.2916   2.4090   8.1322   8.1750   9.9810  11.4397  15.2350
    15.3598  16.4367  16.9173  19.1814

          k = 0.1318 0.2637 0.2637 (  2534 PWs)   bands (ev):

   -32.7087  -0.5176   4.4216   5.2240   7.8479  10.1375  12.7189  13.7990
    15.2522  17.7259  18.4203  19.7898

          k = 0.1318 0.2637 0.3955 (  2534 PWs)   bands (ev):

   -32.7075   0.4149   2.9336   5.7207   8.0061   9.1046  11.5137  14.0549
    16.0671  17.3571  18.0645  19.4818

          k = 0.1318 0.3955 0.3955 (  2538 PWs)   bands (ev):

   -32.7063   1.4741   3.4443   3.9062   6.7223   9.9506  11.8196  12.3286
    16.0102  17.1887  18.7164  19.3499

          k = 0.2637 0.2637 0.2637 (  2521 PWs)   bands (ev):

   -32.7072   0.1539   5.1510   5.1510   6.0410  10.2275  10.2275  12.1768
    16.8821  18.5796  18.5796  20.0819

          k = 0.2637 0.2637 0.3955 (  2523 PWs)   bands (ev):

   -32.7060   1.1202   3.5269   6.3301   6.3337   8.1334   9.7807  11.7229
    15.7552  19.6951  19.8253  21.1508

          k = 0.2637 0.3955 0.3955 (  2530 PWs)   bands (ev):

   -32.7049   2.1819   4.1794   4.5444   6.7139   7.6217   9.2986   9.9845
    14.8093  20.8029  22.1608  22.7694

          k = 0.3955 0.3955 0.3955 (  2521 PWs)   bands (ev):

   -32.7038   3.2568   5.3719   5.3719   5.3969   7.1839   7.1839   8.1241
    14.0803  24.3546  24.3546  24.9265

     the Fermi energy is    13.9270 ev

!    total energy              =     -39.59661219 Ry
     estimated scf accuracy    <          1.4E-12 Ry
     smearing contrib. (-TS)   =      -0.00220091 Ry
     internal energy E=F+TS    =     -39.59441128 Ry

     The total energy is F=E-TS. E is the sum of the following terms:
     one-electron contribution =      11.37093319 Ry
     hartree contribution      =       2.89687217 Ry
     xc contribution           =     -13.56445463 Ry
     ewald contribution        =     -40.29776202 Ry

     convergence has been achieved in   9 iterations

     Forces acting on atoms (cartesian axes, Ry/au):

     atom    1 type  1   force =     0.00000000    0.00000000    0.00000000
     atom    2 type  1   force =     0.00000000    0.00000000    0.00000000
     atom    3 type  1   force =     0.00000000    0.00000000    0.00000000
     atom    4 type  2   force =     0.00000000    0.00000000    0.00000000
     The non-local contrib.  to forces
     atom    1 type  1   force =     0.00000000    0.00000000    0.00000000
     atom    2 type  1   force =     0.00000000    0.00000000    0.00000000
     atom    3 type  1   force =     0.00000000    0.00000000    0.00000000
     atom    4 type  2   force =     0.00000000    0.00000000    0.00000000
     The ionic contribution  to forces
     atom    1 type  1   force =    -0.00000000   -0.00000000   -0.00000000
     atom    2 type  1   force =    -0.00000000   -0.00000000   -0.00000000
     atom    3 type  1   force =    -0.00000000   -0.00000000   -0.00000000
     atom    4 type  2   force =    -0.00000000   -0.00000000   -0.00000000
     The local contribution  to forces
     atom    1 type  1   force =    -0.00000000   -0.00000000   -0.00000000
     atom    2 type  1   force =    -0.00000000   -0.00000000   -0.00000000
     atom    3 type  1   force =    -0.00000000   -0.00000000   -0.00000000
     atom    4 type  2   force =     0.00000000    0.00000000    0.00000000
     The core correction contribution to forces
     atom    1 type  1   force =    -0.00000000   -0.00000000   -0.00000000
     atom    2 type  1   force =    -0.00000000    0.00000000   -0.00000000
     atom    3 type  1   force =    -0.00000000   -0.00000000    0.00000000
     atom    4 type  2   force =     0.00000000    0.00000000    0.00000000
     The Hubbard contrib.    to forces
     atom    1 type  1   force =     0.00000000    0.00000000    0.00000000
     atom    2 type  1   force =     0.00000000    0.00000000    0.00000000
     atom    3 type  1   force =     0.00000000    0.00000000    0.00000000
     atom    4 type  2   force =     0.00000000    0.00000000    0.00000000
     The SCF correction term to forces
     atom    1 type  1   force =    -0.00000000   -0.00000000    0.00000000
     atom    2 type  1   force =     0.00000000   -0.00000000    0.00000000
     atom    3 type  1   force =     0.00000000   -0.00000000    0.00000000
     atom    4 type  2   force =    -0.00000000    0.00000000   -0.00000000

     Total force =     0.000000     Total SCF correction =     0.000000


     Computing stress (Cartesian axis) and pressure

          total   stress  (Ry/bohr**3)                   (kbar)     P=      535.50
   0.00364026   0.00000000   0.00000000          535.50        0.00        0.00
   0.00000000   0.00364026   0.00000000            0.00      535.50        0.00
   0.00000000   0.00000000   0.00364026            0.00        0.00      535.50

     Energy error            =      8.2E-03 Ry
     Gradient error          =      0.0E+00 Ry/Bohr
     Cell gradient error     =      3.6E+01 kbar

     number of scf cycles    =   4
     number of bfgs steps    =   3

     enthalpy           old  =     -38.6798064357 Ry
     enthalpy           new  =     -38.6880361246 Ry

     CASE: enthalpy          _new < enthalpy          _old

     new trust radius        =       0.0165803850 bohr
ibrav =      1
 celldm(1) =      6.47444976
Input lattice vectors:
     1.08914240     0.00000000     0.00000000
     0.00000000     1.08914240     0.00000000
     0.00000000     0.00000000     1.08914240
New lattice vectors in INITIAL alat:
     1.08914240     0.00000000     0.00000000
     0.00000000     1.08914240     0.00000000
     0.00000000     0.00000000     1.08914240
New lattice vectors in NEW alat (for information only):
     1.00000000     0.00000000     0.00000000
     0.00000000     1.00000000     0.00000000
     0.00000000     0.00000000     1.00000000
Discrepancy in bohr =     0.000000    0.000000    0.000000
     new conv_thr            =            1.0E-10 Ry

     new unit-cell volume =    271.39922 a.u.^3 (    40.21722 Ang^3 )
     density =      3.76548 g/cm^3

CELL_PARAMETERS (alat=  5.94453926)
   1.089142401   0.000000000   0.000000000
   0.000000000   1.089142401   0.000000000
   0.000000000   0.000000000   1.089142401

ATOMIC_POSITIONS (crystal)
Si            0.0000000000        0.5000000000        0.5000000000
Si            0.5000000000        0.0000000000        0.5000000000
Si            0.5000000000        0.5000000000        0.0000000000
Li            0.0000000000        0.0000000000        0.0000000000



     Writing config-only to output data dir ./output/SiLi.save/
     NEW-OLD atomic charge density approx. for the potential
     extrapolated charge   15.22578, renormalised to   15.00000

     total cpu time spent up to now is       15.5 secs

     Self-consistent Calculation

     iteration #  1     ecut=    80.00 Ry     beta= 0.70
     Davidson diagonalization with overlap
     ethr =  1.00E-06,  avg # of iterations =  4.6

     total cpu time spent up to now is       15.8 secs

     total energy              =     -39.61079914 Ry
     estimated scf accuracy    <       0.00004272 Ry

     iteration #  2     ecut=    80.00 Ry     beta= 0.70
     Davidson diagonalization with overlap
     ethr =  2.85E-07,  avg # of iterations =  3.0

     total cpu time spent up to now is       16.1 secs

     total energy              =     -39.61095518 Ry
     estimated scf accuracy    <       0.00003008 Ry

     iteration #  3     ecut=    80.00 Ry     beta= 0.70
     Davidson diagonalization with overlap
     ethr =  2.01E-07,  avg # of iterations =  1.0

     total cpu time spent up to now is       16.3 secs

     total energy              =     -39.61095215 Ry
     estimated scf accuracy    <       0.00000804 Ry

     iteration #  4     ecut=    80.00 Ry     beta= 0.70
     Davidson diagonalization with overlap
     ethr =  5.36E-08,  avg # of iterations =  2.0

     total cpu time spent up to now is       16.5 secs

     total energy              =     -39.61095152 Ry
     estimated scf accuracy    <       0.00000143 Ry

     iteration #  5     ecut=    80.00 Ry     beta= 0.70
     Davidson diagonalization with overlap
     ethr =  9.53E-09,  avg # of iterations =  2.0

     total cpu time spent up to now is       16.7 secs

     total energy              =     -39.61095178 Ry
     estimated scf accuracy    <       0.00000004 Ry

     iteration #  6     ecut=    80.00 Ry     beta= 0.70
     Davidson diagonalization with overlap
     ethr =  2.47E-10,  avg # of iterations =  3.5

     total cpu time spent up to now is       16.9 secs

     total energy              =     -39.61095179 Ry
     estimated scf accuracy    <          1.4E-09 Ry

     iteration #  7     ecut=    80.00 Ry     beta= 0.70
     Davidson diagonalization with overlap
     ethr =  9.16E-12,  avg # of iterations =  2.7

     total cpu time spent up to now is       17.2 secs

     total energy              =     -39.61095179 Ry
     estimated scf accuracy    <          3.3E-10 Ry

     iteration #  8     ecut=    80.00 Ry     beta= 0.70
     Davidson diagonalization with overlap
     ethr =  2.21E-12,  avg # of iterations =  2.0

     total cpu time spent up to now is       17.4 secs

     total energy              =     -39.61095179 Ry
     estimated scf accuracy    <          2.6E-10 Ry

     iteration #  9     ecut=    80.00 Ry     beta= 0.70
     Davidson diagonalization with overlap
     ethr =  1.73E-12,  avg # of iterations =  2.0

     total cpu time spent up to now is       17.6 secs

     End of self-consistent calculation

          k = 0.0000 0.0000 0.0000 (  2517 PWs)   bands (ev):

   -32.9315  -2.5734   7.9135   7.9135   7.9135   9.9934   9.9934  12.8592
    19.0102  19.0102  19.1600  19.1602

          k = 0.0000 0.0000 0.1312 (  2537 PWs)   bands (ev):

   -32.9309  -2.3564   5.9772   8.1367   8.1367  10.2351  11.4520  13.8264
    16.4244  16.4244  17.8474  20.0563

          k = 0.0000 0.0000 0.2623 (  2537 PWs)   bands (ev):

   -32.9293  -1.7300   3.6422   8.7935   8.7935  10.9506  12.0092  13.9482
    13.9482  15.7943  17.0408  19.4767

          k = 0.0000 0.0000 0.3935 (  2533 PWs)   bands (ev):

   -32.9280  -0.8778   1.9050   9.7639   9.7639  12.0547  12.0547  12.0784
    12.1543  13.8966  18.8169  20.7162

          k = 0.0000 0.1312 0.1312 (  2534 PWs)   bands (ev):

   -32.9302  -2.1378   5.9086   6.5267   8.3598  10.9844  12.8240  14.1092
    14.7740  16.3664  17.0212  18.4687

          k = 0.0000 0.1312 0.2623 (  2547 PWs)   bands (ev):

   -32.9287  -1.5060   3.8233   6.9058   9.0161  11.1056  12.7839  13.7964
    14.1590  16.9833  17.2568  17.3508

          k = 0.0000 0.1312 0.3935 (  2533 PWs)   bands (ev):

   -32.9274  -0.6397   2.0850   7.7838   9.9856  10.0090  12.2737  12.8323
    14.1764  15.5842  18.1644  19.3754

          k = 0.0000 0.2623 0.2623 (  2558 PWs)   bands (ev):

   -32.9273  -0.8549   4.0234   4.9277   9.4836   9.6713  12.8946  14.5506
    15.0905  16.3050  17.4129  18.0967

          k = 0.0000 0.2623 0.3935 (  2557 PWs)   bands (ev):

   -32.9262   0.0610   2.5851   5.3421   7.9569  10.6405  12.9022  13.5398
    15.6906  15.7257  18.3321  18.8009

          k = 0.0000 0.3935 0.3935 (  2538 PWs)   bands (ev):

   -32.9249   1.1108   3.0529   3.5373   6.5346  11.6262  13.6423  13.8894
    14.5353  16.0380  16.7772  16.8166

          k = 0.1312 0.1312 0.1312 (  2536 PWs)   bands (ev):

   -32.9295  -1.9180   6.1458   6.1458   7.0781  12.9407  12.9407  14.2487
    14.5450  14.5450  16.2272  19.6276

          k = 0.1312 0.1312 0.2623 (  2558 PWs)   bands (ev):

   -32.9281  -1.2812   4.0151   6.8519   7.3809  11.7445  12.5073  14.0107
    14.7599  15.3907  17.7118  18.4792

          k = 0.1312 0.1312 0.3935 (  2533 PWs)   bands (ev):

   -32.9268  -0.4018   2.2712   7.9687   7.9808   9.7932  11.2368  15.0175
    15.0787  16.1828  16.6252  18.9121

          k = 0.1312 0.2623 0.2623 (  2534 PWs)   bands (ev):

   -32.9266  -0.6269   4.2655   5.0685   7.6801   9.9396  12.4961  13.5805
    14.9846  17.4512  18.1795  19.4526

          k = 0.1312 0.2623 0.3935 (  2534 PWs)   bands (ev):

   -32.9255   0.2983   2.7916   5.5583   7.8466   8.9045  11.3040  13.8213
    15.7984  17.1170  17.8078  19.1586

          k = 0.1312 0.3935 0.3935 (  2538 PWs)   bands (ev):

   -32.9244   1.3487   3.2967   3.7580   6.5696   9.7465  11.6020  12.1083
    15.7985  16.9008  18.4311  19.0496

          k = 0.2623 0.2623 0.2623 (  2521 PWs)   bands (ev):

   -32.9252   0.0388   4.9868   4.9868   5.8963  10.0262  10.0262  11.9619
    16.6557  18.2782  18.2782  19.8296

          k = 0.2623 0.2623 0.3935 (  2523 PWs)   bands (ev):

   -32.9241   0.9975   3.3796   6.1518   6.1840   7.9572   9.5778  11.5048
    15.5405  19.3736  19.5520  20.8310

          k = 0.2623 0.3935 0.3935 (  2530 PWs)   bands (ev):

   -32.9231   2.0510   4.0234   4.3920   6.5664   7.4303   9.1039   9.7799
    14.6020  20.4841  21.8508  22.4427

          k = 0.3935 0.3935 0.3935 (  2521 PWs)   bands (ev):

   -32.9221   3.1200   5.1977   5.1977   5.2534   7.0154   7.0154   7.9364
    13.8740  24.0020  24.0020  24.5760

     the Fermi energy is    13.6940 ev

!    total energy              =     -39.61095179 Ry
     estimated scf accuracy    <          1.8E-11 Ry
     smearing contrib. (-TS)   =      -0.00210368 Ry
     internal energy E=F+TS    =     -39.60884812 Ry

     The total energy is F=E-TS. E is the sum of the following terms:
     one-electron contribution =      11.10323617 Ry
     hartree contribution      =       2.90676645 Ry
     xc contribution           =     -13.52438972 Ry
     ewald contribution        =     -40.09446102 Ry

     convergence has been achieved in   9 iterations

     Forces acting on atoms (cartesian axes, Ry/au):

     atom    1 type  1   force =     0.00000000    0.00000000    0.00000000
     atom    2 type  1   force =     0.00000000    0.00000000    0.00000000
     atom    3 type  1   force =     0.00000000    0.00000000    0.00000000
     atom    4 type  2   force =     0.00000000    0.00000000    0.00000000
     The non-local contrib.  to forces
     atom    1 type  1   force =     0.00000000    0.00000000    0.00000000
     atom    2 type  1   force =     0.00000000    0.00000000    0.00000000
     atom    3 type  1   force =     0.00000000    0.00000000    0.00000000
     atom    4 type  2   force =     0.00000000    0.00000000    0.00000000
     The ionic contribution  to forces
     atom    1 type  1   force =    -0.00000000   -0.00000000   -0.00000000
     atom    2 type  1   force =    -0.00000000   -0.00000000   -0.00000000
     atom    3 type  1   force =    -0.00000000   -0.00000000   -0.00000000
     atom    4 type  2   force =    -0.00000000   -0.00000000   -0.00000000
     The local contribution  to forces
     atom    1 type  1   force =    -0.00000000   -0.00000000   -0.00000000
     atom    2 type  1   force =    -0.00000000    0.00000000   -0.00000000
     atom    3 type  1   force =    -0.00000000   -0.00000000   -0.00000000
     atom    4 type  2   force =     0.00000000    0.00000000    0.00000000
     The core correction contribution to forces
     atom    1 type  1   force =     0.00000000    0.00000000    0.00000000
     atom    2 type  1   force =     0.00000000    0.00000000    0.00000000
     atom    3 type  1   force =    -0.00000000    0.00000000   -0.00000000
     atom    4 type  2   force =     0.00000000    0.00000000    0.00000000
     The Hubbard contrib.    to forces
     atom    1 type  1   force =     0.00000000    0.00000000    0.00000000
     atom    2 type  1   force =     0.00000000    0.00000000    0.00000000
     atom    3 type  1   force =     0.00000000    0.00000000    0.00000000
     atom    4 type  2   force =     0.00000000    0.00000000    0.00000000
     The SCF correction term to forces
     atom    1 type  1   force =    -0.00000000    0.00000000   -0.00000000
     atom    2 type  1   force =     0.00000000   -0.00000000   -0.00000000
     atom    3 type  1   force =     0.00000000   -0.00000000    0.00000000
     atom    4 type  2   force =     0.00000000    0.00000000    0.00000000

     Total force =     0.000000     Total SCF correction =     0.000000


     Computing stress (Cartesian axis) and pressure

          total   stress  (Ry/bohr**3)                   (kbar)     P=      497.24
   0.00338019   0.00000000   0.00000000          497.24        0.00        0.00
   0.00000000   0.00338019   0.00000000            0.00      497.24        0.00
   0.00000000   0.00000000   0.00338019            0.00        0.00      497.24

     Energy error            =      4.5E-04 Ry
     Gradient error          =      0.0E+00 Ry/Bohr
     Cell gradient error     =      2.8E+00 kbar

     number of scf cycles    =   5
     number of bfgs steps    =   4

     enthalpy           old  =     -38.6880361246 Ry
     enthalpy           new  =     -38.6884845910 Ry

     CASE: enthalpy          _new < enthalpy          _old

     new trust radius        =       0.0012093462 bohr
ibrav =      1
 celldm(1) =      6.47207336
Input lattice vectors:
     1.08874264     0.00000000     0.00000000
     0.00000000     1.08874264     0.00000000
     0.00000000     0.00000000     1.08874264
New lattice vectors in INITIAL alat:
     1.08874264     0.00000000     0.00000000
     0.00000000     1.08874264     0.00000000
     0.00000000     0.00000000     1.08874264
New lattice vectors in NEW alat (for information only):
     1.00000000     0.00000000     0.00000000
     0.00000000     1.00000000     0.00000000
     0.00000000     0.00000000     1.00000000
Discrepancy in bohr =     0.000000    0.000000    0.000000
     new conv_thr            =            1.0E-10 Ry

     new unit-cell volume =    271.10049 a.u.^3 (    40.17295 Ang^3 )
     density =      3.76963 g/cm^3

CELL_PARAMETERS (alat=  5.94453926)
   1.088742639   0.000000000   0.000000000
   0.000000000   1.088742639   0.000000000
   0.000000000   0.000000000   1.088742639

ATOMIC_POSITIONS (crystal)
Si            0.0000000000        0.5000000000        0.5000000000
Si            0.5000000000        0.0000000000        0.5000000000
Si            0.5000000000        0.5000000000        0.0000000000
Li            0.0000000000        0.0000000000        0.0000000000



     Writing config-only to output data dir ./output/SiLi.save/
     NEW-OLD atomic charge density approx. for the potential
     extrapolated charge   14.98348, renormalised to   15.00000

     total cpu time spent up to now is       18.5 secs

     Self-consistent Calculation

     iteration #  1     ecut=    80.00 Ry     beta= 0.70
     Davidson diagonalization with overlap
     ethr =  1.00E-06,  avg # of iterations =  1.0

     Threshold (ethr) on eigenvalues was too large:
     Diagonalizing with lowered threshold

     Davidson diagonalization with overlap
     ethr =  1.64E-09,  avg # of iterations =  4.5

     total cpu time spent up to now is       18.9 secs

     total energy              =     -39.60993845 Ry
     estimated scf accuracy    <       0.00000024 Ry

     iteration #  2     ecut=    80.00 Ry     beta= 0.70
     Davidson diagonalization with overlap
     ethr =  1.60E-09,  avg # of iterations =  3.0

     total cpu time spent up to now is       19.1 secs

     total energy              =     -39.60993929 Ry
     estimated scf accuracy    <       0.00000016 Ry

     iteration #  3     ecut=    80.00 Ry     beta= 0.70
     Davidson diagonalization with overlap
     ethr =  1.09E-09,  avg # of iterations =  1.0

     total cpu time spent up to now is       19.3 secs

     total energy              =     -39.60993927 Ry
     estimated scf accuracy    <       0.00000004 Ry

     iteration #  4     ecut=    80.00 Ry     beta= 0.70
     Davidson diagonalization with overlap
     ethr =  2.83E-10,  avg # of iterations =  2.0

     total cpu time spent up to now is       19.5 secs

     total energy              =     -39.60993927 Ry
     estimated scf accuracy    <          7.3E-09 Ry

     iteration #  5     ecut=    80.00 Ry     beta= 0.70
     Davidson diagonalization with overlap
     ethr =  4.85E-11,  avg # of iterations =  2.0

     total cpu time spent up to now is       19.7 secs

     total energy              =     -39.60993927 Ry
     estimated scf accuracy    <          1.0E-10 Ry

     iteration #  6     ecut=    80.00 Ry     beta= 0.70
     Davidson diagonalization with overlap
     ethr =  6.92E-13,  avg # of iterations =  4.0

     total cpu time spent up to now is       19.9 secs

     End of self-consistent calculation

          k = 0.0000 0.0000 0.0000 (  2517 PWs)   bands (ev):

   -32.9157  -2.5666   7.9258   7.9258   7.9258  10.0105  10.0105  12.8716
    19.0338  19.0338  19.1763  19.1765

          k = 0.0000 0.0000 0.1312 (  2537 PWs)   bands (ev):

   -32.9151  -2.3495   5.9892   8.1492   8.1492  10.2523  11.4678  13.8406
    16.4421  16.4421  17.8707  20.0782

          k = 0.0000 0.0000 0.2624 (  2537 PWs)   bands (ev):

   -32.9135  -1.7228   3.6529   8.8064   8.8064  10.9680  12.0228  13.9641
    13.9641  15.8169  17.0593  19.5005

          k = 0.0000 0.0000 0.3936 (  2533 PWs)   bands (ev):

   -32.9122  -0.8702   1.9147   9.7776   9.7776  12.0692  12.0692  12.0953
    12.1669  13.9195  18.8429  20.7337

          k = 0.0000 0.1312 0.1312 (  2534 PWs)   bands (ev):

   -32.9144  -2.1309   5.9207   6.5386   8.3724  11.0005  12.8414  14.1243
    14.7909  16.3848  17.0378  18.4923

          k = 0.0000 0.1312 0.2624 (  2547 PWs)   bands (ev):

   -32.9129  -1.4986   3.8341   6.9181   9.0292  11.1193  12.8031  13.8120
    14.1751  17.0052  17.2752  17.3686

          k = 0.0000 0.1312 0.3936 (  2533 PWs)   bands (ev):

   -32.9116  -0.6319   2.0949   7.7967   9.9995  10.0219  12.2883  12.8503
    14.1924  15.6060  18.1830  19.4000

          k = 0.0000 0.2624 0.2624 (  2558 PWs)   bands (ev):

   -32.9115  -0.8472   4.0345   4.9388   9.4962   9.6848  12.9139  14.5678
    15.1062  16.3223  17.4306  18.1221

          k = 0.0000 0.2624 0.3936 (  2557 PWs)   bands (ev):

   -32.9104   0.0692   2.5952   5.3538   7.9688  10.6548  12.9175  13.5590
    15.7079  15.7443  18.3538  18.8236

          k = 0.0000 0.3936 0.3936 (  2538 PWs)   bands (ev):

   -32.9091   1.1197   3.0634   3.5479   6.5458  11.6411  13.6589  13.9054
    14.5555  16.0575  16.7984  16.8322

          k = 0.1312 0.1312 0.1312 (  2536 PWs)   bands (ev):

   -32.9137  -1.9108   6.1582   6.1582   7.0896  12.9574  12.9574  14.2624
    14.5640  14.5640  16.2438  19.6514

          k = 0.1312 0.1312 0.2624 (  2558 PWs)   bands (ev):

   -32.9123  -1.2737   4.0261   6.8647   7.3926  11.7593  12.5220  14.0306
    14.7776  15.4073  17.7302  18.5016

          k = 0.1312 0.1312 0.3936 (  2533 PWs)   bands (ev):

   -32.9110  -0.3939   2.2812   7.9805   7.9949   9.8067  11.2514  15.0332
    15.0991  16.2011  16.6461  18.9316

          k = 0.1312 0.2624 0.2624 (  2534 PWs)   bands (ev):

   -32.9108  -0.6190   4.2767   5.0797   7.6922   9.9539  12.5121  13.5963
    15.0039  17.4711  18.1969  19.0452

          k = 0.1312 0.2624 0.3936 (  2534 PWs)   bands (ev):

   -32.9097   0.3067   2.8019   5.5700   7.8581   8.9190  11.3191  13.8382
    15.8179  17.1343  17.8263  19.1819

          k = 0.1312 0.3936 0.3936 (  2538 PWs)   bands (ev):

   -32.9086   1.3578   3.3074   3.7687   6.5806   9.7613  11.6177  12.1242
    15.8138  16.9216  18.4517  19.0713

          k = 0.2624 0.2624 0.2624 (  2521 PWs)   bands (ev):

   -32.9094   0.0471   4.9987   4.9987   5.9067  10.0408  10.0408  11.9774
    16.6720  18.3000  18.3000  19.8478

          k = 0.2624 0.2624 0.3936 (  2523 PWs)   bands (ev):

   -32.9083   1.0064   3.3902   6.1650   6.1946   7.9699   9.5924  11.5205
    15.5560  19.3969  19.5717  20.8541

          k = 0.2624 0.3936 0.3936 (  2530 PWs)   bands (ev):

   -32.9073   2.0605   4.0347   4.4030   6.5771   7.4441   9.1179   9.7946
    14.6169  20.5072  21.8732  22.4663

          k = 0.3936 0.3936 0.3936 (  2521 PWs)   bands (ev):

   -32.9062   3.1299   5.2103   5.2103   5.2637   7.0276   7.0276   7.9499
    13.8888  24.0275  24.0275  24.6014

     the Fermi energy is    13.7109 ev

!    total energy              =     -39.60993927 Ry
     estimated scf accuracy    <          2.9E-11 Ry
     smearing contrib. (-TS)   =      -0.00211101 Ry
     internal energy E=F+TS    =     -39.60782826 Ry

     The total energy is F=E-TS. E is the sum of the following terms:
     one-electron contribution =      11.12259947 Ry
     hartree contribution      =       2.90603790 Ry
     xc contribution           =     -13.52728284 Ry
     ewald contribution        =     -40.10918279 Ry

     convergence has been achieved in   6 iterations

     Forces acting on atoms (cartesian axes, Ry/au):

     atom    1 type  1   force =     0.00000000    0.00000000    0.00000000
     atom    2 type  1   force =     0.00000000    0.00000000    0.00000000
     atom    3 type  1   force =     0.00000000    0.00000000    0.00000000
     atom    4 type  2   force =     0.00000000    0.00000000    0.00000000
     The non-local contrib.  to forces
     atom    1 type  1   force =     0.00000000    0.00000000    0.00000000
     atom    2 type  1   force =     0.00000000    0.00000000    0.00000000
     atom    3 type  1   force =     0.00000000    0.00000000    0.00000000
     atom    4 type  2   force =     0.00000000    0.00000000    0.00000000
     The ionic contribution  to forces
     atom    1 type  1   force =    -0.00000000   -0.00000000   -0.00000000
     atom    2 type  1   force =    -0.00000000   -0.00000000   -0.00000000
     atom    3 type  1   force =    -0.00000000   -0.00000000   -0.00000000
     atom    4 type  2   force =    -0.00000000   -0.00000000   -0.00000000
     The local contribution  to forces
     atom    1 type  1   force =    -0.00000000   -0.00000000   -0.00000000
     atom    2 type  1   force =    -0.00000000   -0.00000000   -0.00000000
     atom    3 type  1   force =    -0.00000000   -0.00000000   -0.00000000
     atom    4 type  2   force =     0.00000000    0.00000000    0.00000000
     The core correction contribution to forces
     atom    1 type  1   force =     0.00000000    0.00000000    0.00000000
     atom    2 type  1   force =     0.00000000    0.00000000    0.00000000
     atom    3 type  1   force =     0.00000000    0.00000000    0.00000000
     atom    4 type  2   force =     0.00000000    0.00000000    0.00000000
     The Hubbard contrib.    to forces
     atom    1 type  1   force =     0.00000000    0.00000000    0.00000000
     atom    2 type  1   force =     0.00000000    0.00000000    0.00000000
     atom    3 type  1   force =     0.00000000    0.00000000    0.00000000
     atom    4 type  2   force =     0.00000000    0.00000000    0.00000000
     The SCF correction term to forces
     atom    1 type  1   force =     0.00000000    0.00000000    0.00000000
     atom    2 type  1   force =    -0.00000000    0.00000000    0.00000000
     atom    3 type  1   force =     0.00000000   -0.00000000   -0.00000000
     atom    4 type  2   force =     0.00000000   -0.00000000   -0.00000000

     Total force =     0.000000     Total SCF correction =     0.000000


     Computing stress (Cartesian axis) and pressure

          total   stress  (Ry/bohr**3)                   (kbar)     P=      499.95
   0.00339857   0.00000000   0.00000000          499.95        0.00        0.00
   0.00000000   0.00339857   0.00000000            0.00      499.95        0.00
   0.00000000   0.00000000   0.00339857            0.00        0.00      499.95

     Energy error            =      2.9E-06 Ry
     Gradient error          =      0.0E+00 Ry/Bohr
     Cell gradient error     =      5.3E-02 kbar
ibrav =      1
 celldm(1) =      6.47207336
Input lattice vectors:
     1.08874264     0.00000000     0.00000000
     0.00000000     1.08874264     0.00000000
     0.00000000     0.00000000     1.08874264
New lattice vectors in INITIAL alat:
     1.08874264     0.00000000     0.00000000
     0.00000000     1.08874264     0.00000000
     0.00000000     0.00000000     1.08874264
New lattice vectors in NEW alat (for information only):
     1.00000000     0.00000000     0.00000000
     0.00000000     1.00000000     0.00000000
     0.00000000     0.00000000     1.00000000
Discrepancy in bohr =     0.000000    0.000000    0.000000

     bfgs converged in   6 scf cycles and   5 bfgs steps
     (criteria: energy <  1.0E-04 Ry, force <  1.0E-03 Ry/Bohr, cell <  1.0E+00 kbar)

     End of BFGS Geometry Optimization

     Final enthalpy           =     -38.6884874474 Ry

     File ./output/SiLi.bfgs deleted, as requested
Begin final coordinates
     new unit-cell volume =    271.10049 a.u.^3 (    40.17295 Ang^3 )
     density =      3.76963 g/cm^3

CELL_PARAMETERS (alat=  5.94453926)
   1.088742639   0.000000000   0.000000000
   0.000000000   1.088742639   0.000000000
   0.000000000   0.000000000   1.088742639

ATOMIC_POSITIONS (crystal)
Si            0.0000000000        0.5000000000        0.5000000000
Si            0.5000000000        0.0000000000        0.5000000000
Si            0.5000000000        0.5000000000        0.0000000000
Li            0.0000000000        0.0000000000        0.0000000000
End final coordinates



     Writing config-only to output data dir ./output/SiLi.save/

     Final scf calculation at the relaxed structure.
     The G-vectors are recalculated for the final unit cell
     Results may differ from those at the preceding step.

     Parallelization info
     --------------------
     sticks:   dense  smooth     PW     G-vecs:    dense   smooth      PW
     Min         133     133     38                 3267     3267     516
     Max         134     134     39                 3270     3270     518
     Sum        1069    1069    305                26145    26145    4139

     Using Slab Decomposition



     bravais-lattice index     =            1
     lattice parameter (alat)  =       5.9445  a.u.
     unit-cell volume          =     271.1005 (a.u.)^3
     number of atoms/cell      =            4
     number of atomic types    =            2
     number of electrons       =        15.00
     number of Kohn-Sham states=           12
     kinetic-energy cutoff     =      80.0000  Ry
     charge density cutoff     =     320.0000  Ry
     scf convergence threshold =      1.0E-10
     mixing beta               =       0.7000
     number of iterations used =            8  plain     mixing
     press convergence thresh. =      1.0E+00
     Exchange-correlation= PBE
                           (   1   4   3   4   0   0   0)

     celldm(1)=   5.944539  celldm(2)=   0.000000  celldm(3)=   0.000000
     celldm(4)=   0.000000  celldm(5)=   0.000000  celldm(6)=   0.000000

     crystal axes: (cart. coord. in units of alat)
               a(1) = (   1.088743   0.000000   0.000000 )  
               a(2) = (   0.000000   1.088743   0.000000 )  
               a(3) = (   0.000000   0.000000   1.088743 )  

     reciprocal axes: (cart. coord. in units 2 pi/alat)
               b(1) = (  0.918491  0.000000  0.000000 )  
               b(2) = (  0.000000  0.918491  0.000000 )  
               b(3) = (  0.000000  0.000000  0.918491 )  


     PseudoPot. # 1 for Si read from file:
     ../pseudo/Si_ONCV_PBE_sr.upf
     MD5 check sum: e543d271109d17c80368dfa7c482276d
     Pseudo is Norm-conserving + core correction, Zval =  4.0
     Generated using ONCVPSP code by D. R. Hamann
     Using radial grid of 1510 points,  6 beta functions with: 
                l(1) =   0
                l(2) =   0
                l(3) =   1
                l(4) =   1
                l(5) =   2
                l(6) =   2

     PseudoPot. # 2 for Li read from file:
     ../pseudo/Li_ONCV_PBE_sr.upf
     MD5 check sum: 50ff420e78310ffa21704f3361e624a4
     Pseudo is Norm-conserving, Zval =  3.0
     Generated using ONCVPSP code by D. R. Hamann
     Using radial grid of 1944 points,  4 beta functions with: 
                l(1) =   0
                l(2) =   0
                l(3) =   1
                l(4) =   1

     atomic species   valence    mass     pseudopotential
        Si             4.00    28.08550     Si( 1.00)
        Li             3.00     6.94100     Li( 1.00)

     48 Sym. Ops., with inversion, found



   Cartesian axes

     site n.     atom                  positions (alat units)
         1           Si  tau(   1) = (   0.0000000   0.5443713   0.5443713  )
         2           Si  tau(   2) = (   0.5443713   0.0000000   0.5443713  )
         3           Si  tau(   3) = (   0.5443713   0.5443713   0.0000000  )
         4           Li  tau(   4) = (   0.0000000   0.0000000   0.0000000  )

     number of k points=    20  Marzari-Vanderbilt smearing, width (Ry)=  0.0200
                       cart. coord. in units 2pi/alat
        k(    1) = (   0.0000000   0.0000000   0.0000000), wk =   0.0058309
        k(    2) = (   0.0000000   0.0000000   0.1312130), wk =   0.0349854
        k(    3) = (   0.0000000   0.0000000   0.2624259), wk =   0.0349854
        k(    4) = (   0.0000000   0.0000000   0.3936389), wk =   0.0349854
        k(    5) = (   0.0000000   0.1312130   0.1312130), wk =   0.0699708
        k(    6) = (   0.0000000   0.1312130   0.2624259), wk =   0.1399417
        k(    7) = (   0.0000000   0.1312130   0.3936389), wk =   0.1399417
        k(    8) = (   0.0000000   0.2624259   0.2624259), wk =   0.0699708
        k(    9) = (   0.0000000   0.2624259   0.3936389), wk =   0.1399417
        k(   10) = (   0.0000000   0.3936389   0.3936389), wk =   0.0699708
        k(   11) = (   0.1312130   0.1312130   0.1312130), wk =   0.0466472
        k(   12) = (   0.1312130   0.1312130   0.2624259), wk =   0.1399417
        k(   13) = (   0.1312130   0.1312130   0.3936389), wk =   0.1399417
        k(   14) = (   0.1312130   0.2624259   0.2624259), wk =   0.1399417
        k(   15) = (   0.1312130   0.2624259   0.3936389), wk =   0.2798834
        k(   16) = (   0.1312130   0.3936389   0.3936389), wk =   0.1399417
        k(   17) = (   0.2624259   0.2624259   0.2624259), wk =   0.0466472
        k(   18) = (   0.2624259   0.2624259   0.3936389), wk =   0.1399417
        k(   19) = (   0.2624259   0.3936389   0.3936389), wk =   0.1399417
        k(   20) = (   0.3936389   0.3936389   0.3936389), wk =   0.0466472

     Dense  grid:    26145 G-vectors     FFT dimensions: (  40,  40,  40)

     Estimated max dynamical RAM per process >      15.83 MB

     Estimated total dynamical RAM >     126.67 MB

     Initial potential from superposition of free atoms

     starting charge      14.9936, renormalised to      15.0000
     Starting wfcs are   14 randomized atomic wfcs

     total cpu time spent up to now is       21.0 secs

     Self-consistent Calculation

     iteration #  1     ecut=    80.00 Ry     beta= 0.70
     Davidson diagonalization with overlap
     c_bands:  1 eigenvalues not converged
     c_bands:  1 eigenvalues not converged
     c_bands:  1 eigenvalues not converged
     c_bands:  1 eigenvalues not converged
     c_bands:  1 eigenvalues not converged
     c_bands:  1 eigenvalues not converged
     c_bands:  2 eigenvalues not converged
     c_bands:  2 eigenvalues not converged
     c_bands:  1 eigenvalues not converged
     ethr =  1.00E-06,  avg # of iterations = 18.8

     total cpu time spent up to now is       21.8 secs

     total energy              =     -39.61016597 Ry
     estimated scf accuracy    <       0.01919435 Ry

     iteration #  2     ecut=    80.00 Ry     beta= 0.70
     Davidson diagonalization with overlap
     ethr =  1.28E-04,  avg # of iterations =  1.1

     total cpu time spent up to now is       22.0 secs

     total energy              =     -39.61006829 Ry
     estimated scf accuracy    <       0.00134896 Ry

     iteration #  3     ecut=    80.00 Ry     beta= 0.70
     Davidson diagonalization with overlap
     ethr =  8.99E-06,  avg # of iterations =  1.8

     total cpu time spent up to now is       22.2 secs

     total energy              =     -39.61012313 Ry
     estimated scf accuracy    <       0.00000622 Ry

     iteration #  4     ecut=    80.00 Ry     beta= 0.70
     Davidson diagonalization with overlap
     ethr =  4.15E-08,  avg # of iterations =  3.7

     total cpu time spent up to now is       22.5 secs

     total energy              =     -39.61012597 Ry
     estimated scf accuracy    <       0.00000067 Ry

     iteration #  5     ecut=    80.00 Ry     beta= 0.70
     Davidson diagonalization with overlap
     ethr =  4.46E-09,  avg # of iterations =  2.0

     total cpu time spent up to now is       22.8 secs

     total energy              =     -39.61012609 Ry
     estimated scf accuracy    <       0.00000003 Ry

     iteration #  6     ecut=    80.00 Ry     beta= 0.70
     Davidson diagonalization with overlap
     ethr =  2.03E-10,  avg # of iterations =  2.6

     total cpu time spent up to now is       23.0 secs

     total energy              =     -39.61012609 Ry
     estimated scf accuracy    <          1.5E-09 Ry

     iteration #  7     ecut=    80.00 Ry     beta= 0.70
     Davidson diagonalization with overlap
     ethr =  9.96E-12,  avg # of iterations =  2.8

     total cpu time spent up to now is       23.2 secs

     End of self-consistent calculation

          k = 0.0000 0.0000 0.0000 (  3239 PWs)   bands (ev):

   -32.9129  -2.5667   7.9257   7.9257   7.9257  10.0104  10.0104  12.8713
    19.0337  19.0337  19.0338  19.1765

          k = 0.0000 0.0000 0.1312 (  3263 PWs)   bands (ev):

   -32.9122  -2.3496   5.9891   8.1491   8.1491  10.2522  11.4677  13.8404
    16.4420  16.4420  17.8707  19.3920

          k = 0.0000 0.0000 0.2624 (  3250 PWs)   bands (ev):

   -32.9106  -1.7229   3.6528   8.8063   8.8063  10.9680  12.0227  13.9640
    13.9640  15.8168  17.0592  19.5003

          k = 0.0000 0.0000 0.3936 (  3286 PWs)   bands (ev):

   -32.9093  -0.8703   1.9146   9.7775   9.7775  12.0691  12.0691  12.0952
    12.1669  13.9194  18.8426  20.7336

          k = 0.0000 0.1312 0.1312 (  3261 PWs)   bands (ev):

   -32.9115  -2.1310   5.9207   6.5385   8.3723  11.0004  12.8414  14.1242
    14.7908  16.3847  17.0377  18.4922

          k = 0.0000 0.1312 0.2624 (  3269 PWs)   bands (ev):

   -32.9099  -1.4988   3.8340   6.9180   9.0291  11.1193  12.8030  13.8119
    14.1750  17.0051  17.2751  17.3685

          k = 0.0000 0.1312 0.3936 (  3291 PWs)   bands (ev):

   -32.9087  -0.6320   2.0947   7.7966   9.9994  10.0218  12.2883  12.8502
    14.1923  15.6059  18.1830  19.3998

          k = 0.0000 0.2624 0.2624 (  3265 PWs)   bands (ev):

   -32.9085  -0.8473   4.0344   4.9386   9.4962   9.6847  12.9138  14.5678
    15.1061  16.3222  17.4305  18.1220

          k = 0.0000 0.2624 0.3936 (  3292 PWs)   bands (ev):

   -32.9073   0.0691   2.5951   5.3537   7.9687  10.6547  12.9174  13.5589
    15.7078  15.7442  18.3537  18.6317

          k = 0.0000 0.3936 0.3936 (  3265 PWs)   bands (ev):

   -32.9062   1.1196   3.0633   3.5477   6.5456  11.6410  13.6589  13.9054
    14.5555  16.0575  16.7983  16.8321

          k = 0.1312 0.1312 0.1312 (  3266 PWs)   bands (ev):

   -32.9108  -1.9110   6.1581   6.1581   7.0895  12.9573  12.9573  14.2623
    14.5639  14.5639  16.2436  19.6513

          k = 0.1312 0.1312 0.2624 (  3281 PWs)   bands (ev):

   -32.9093  -1.2738   4.0260   6.8646   7.3925  11.7593  12.5219  14.0305
    14.7775  15.4073  17.7300  18.5015

          k = 0.1312 0.1312 0.3936 (  3278 PWs)   bands (ev):

   -32.9081  -0.3940   2.2810   7.9804   7.9948   9.8067  11.2513  15.0331
    15.0990  16.2010  16.6461  18.9315

          k = 0.1312 0.2624 0.2624 (  3279 PWs)   bands (ev):

   -32.9079  -0.6192   4.2766   5.0796   7.6921   9.9538  12.5121  13.5962
    15.0038  17.4710  18.1968  19.0451

          k = 0.1312 0.2624 0.3936 (  3275 PWs)   bands (ev):

   -32.9067   0.3066   2.8018   5.5699   7.8580   8.9188  11.3190  13.8381
    15.8178  17.1342  17.8262  19.1818

          k = 0.1312 0.3936 0.3936 (  3276 PWs)   bands (ev):

   -32.9056   1.3577   3.3073   3.7685   6.5804   9.7612  11.6176  12.1241
    15.8136  16.9215  18.4517  19.0712

          k = 0.2624 0.2624 0.2624 (  3269 PWs)   bands (ev):

   -32.9065   0.0470   4.9986   4.9986   5.9066  10.0407  10.0407  11.9772
    16.6718  18.2999  18.2999  19.8476

          k = 0.2624 0.2624 0.3936 (  3283 PWs)   bands (ev):

   -32.9054   1.0063   3.3901   6.1649   6.1945   7.9698   9.5923  11.5204
    15.5557  19.3968  19.5716  20.8540

          k = 0.2624 0.3936 0.3936 (  3271 PWs)   bands (ev):

   -32.9043   2.0604   4.0346   4.4029   6.5770   7.4440   9.1179   9.7946
    14.6166  20.5070  21.8731  22.4662

          k = 0.3936 0.3936 0.3936 (  3274 PWs)   bands (ev):

   -32.9033   3.1298   5.2102   5.2102   5.2636   7.0275   7.0275   7.9498
    13.8884  24.0274  24.0274  24.6012

     the Fermi energy is    13.7108 ev

!    total energy              =     -39.61012609 Ry
     estimated scf accuracy    <          5.0E-11 Ry
     smearing contrib. (-TS)   =      -0.00211109 Ry
     internal energy E=F+TS    =     -39.60801500 Ry

     The total energy is F=E-TS. E is the sum of the following terms:
     one-electron contribution =      11.12203937 Ry
     hartree contribution      =       2.90661416 Ry
     xc contribution           =     -13.52748575 Ry
     ewald contribution        =     -40.10918279 Ry

     convergence has been achieved in   7 iterations

     Forces acting on atoms (cartesian axes, Ry/au):

     atom    1 type  1   force =     0.00000000    0.00000000    0.00000000
     atom    2 type  1   force =     0.00000000    0.00000000    0.00000000
     atom    3 type  1   force =     0.00000000    0.00000000    0.00000000
     atom    4 type  2   force =     0.00000000    0.00000000    0.00000000
     The non-local contrib.  to forces
     atom    1 type  1   force =     0.00000000    0.00000000    0.00000000
     atom    2 type  1   force =     0.00000000    0.00000000    0.00000000
     atom    3 type  1   force =     0.00000000    0.00000000    0.00000000
     atom    4 type  2   force =     0.00000000    0.00000000    0.00000000
     The ionic contribution  to forces
     atom    1 type  1   force =    -0.00000000    0.00000000    0.00000000
     atom    2 type  1   force =     0.00000000   -0.00000000    0.00000000
     atom    3 type  1   force =     0.00000000    0.00000000   -0.00000000
     atom    4 type  2   force =    -0.00000000   -0.00000000   -0.00000000
     The local contribution  to forces
     atom    1 type  1   force =    -0.00000000    0.00000000   -0.00000000
     atom    2 type  1   force =     0.00000000   -0.00000000   -0.00000000
     atom    3 type  1   force =    -0.00000000    0.00000000    0.00000000
     atom    4 type  2   force =    -0.00000000    0.00000000   -0.00000000
     The core correction contribution to forces
     atom    1 type  1   force =    -0.00000000   -0.00000000   -0.00000000
     atom    2 type  1   force =    -0.00000000   -0.00000000   -0.00000000
     atom    3 type  1   force =    -0.00000000   -0.00000000   -0.00000000
     atom    4 type  2   force =     0.00000000    0.00000000    0.00000000
     The Hubbard contrib.    to forces
     atom    1 type  1   force =     0.00000000    0.00000000    0.00000000
     atom    2 type  1   force =     0.00000000    0.00000000    0.00000000
     atom    3 type  1   force =     0.00000000    0.00000000    0.00000000
     atom    4 type  2   force =     0.00000000    0.00000000    0.00000000
     The SCF correction term to forces
     atom    1 type  1   force =    -0.00000000    0.00000000    0.00000000
     atom    2 type  1   force =     0.00000000   -0.00000000   -0.00000000
     atom    3 type  1   force =     0.00000000    0.00000000    0.00000000
     atom    4 type  2   force =     0.00000000    0.00000000   -0.00000000

     Total force =     0.000000     Total SCF correction =     0.000000


     Computing stress (Cartesian axis) and pressure

          total   stress  (Ry/bohr**3)                   (kbar)     P=      501.08
   0.00340625   0.00000000   0.00000000          501.08        0.00        0.00
   0.00000000   0.00340625   0.00000000            0.00      501.08        0.00
   0.00000000   0.00000000   0.00340625            0.00        0.00      501.08


     Writing all to output data dir ./output/SiLi.save/

     init_run     :      0.99s CPU      1.26s WALL (       2 calls)
     electrons    :     10.59s CPU     16.07s WALL (       7 calls)
     update_pot   :      1.30s CPU      1.40s WALL (       5 calls)
     forces       :      1.01s CPU      1.23s WALL (       7 calls)
     stress       :      3.14s CPU      3.38s WALL (       7 calls)

     Called by init_run:
     wfcinit      :      0.13s CPU      0.14s WALL (       2 calls)
     potinit      :      0.24s CPU      0.41s WALL (       2 calls)
     hinit0       :      0.59s CPU      0.68s WALL (       2 calls)

     Called by electrons:
     c_bands      :      8.62s CPU     12.23s WALL (      56 calls)
     sum_band     :      1.10s CPU      1.28s WALL (      56 calls)
     v_of_rho     :      0.93s CPU      2.40s WALL (      61 calls)
     mix_rho      :      0.08s CPU      0.20s WALL (      56 calls)

     Called by c_bands:
     init_us_2    :      0.25s CPU      0.27s WALL (    2560 calls)
     init_us_2:cp :      0.24s CPU      0.27s WALL (    2560 calls)
     cegterg      :      7.75s CPU      8.09s WALL (    1120 calls)

     Called by *egterg:
     cdiaghg      :      0.76s CPU      0.79s WALL (    4645 calls)
     h_psi        :      6.22s CPU      6.50s WALL (    4825 calls)
     g_psi        :      0.03s CPU      0.04s WALL (    3665 calls)

     Called by h_psi:
     h_psi:calbec :      0.53s CPU      0.55s WALL (    4825 calls)
     vloc_psi     :      5.30s CPU      5.54s WALL (    4825 calls)
     add_vuspsi   :      0.36s CPU      0.38s WALL (    4825 calls)

     General routines
     calbec       :      0.63s CPU      0.66s WALL (    5525 calls)
     fft          :      1.76s CPU      3.83s WALL (     785 calls)
     ffts         :      0.05s CPU      0.13s WALL (      56 calls)
     fftw         :      5.36s CPU      5.61s WALL (   94786 calls)

     Parallel routines

     PWSCF        :     17.26s CPU     24.10s WALL


   This run was terminated on:  12:29: 5  29Dec2024            

=------------------------------------------------------------------------------=
   JOB DONE.
=------------------------------------------------------------------------------=
