
     Program PWSCF v.7.2 starts on 29Dec2024 at 11:40:20 

     This program is part of the open-source Quantum ESPRESSO suite
     for quantum simulation of materials; please cite
         "P. Giannozzi et al., J. Phys.:Condens. Matter 21 395502 (2009);
         "P. Giannozzi et al., J. Phys.:Condens. Matter 29 465901 (2017);
         "P. Giannozzi et al., J. Chem. Phys. 152 154105 (2020);
          URL http://www.quantum-espresso.org", 
     in publications or presentations arising from this work. More details at
     http://www.quantum-espresso.org/quote

     Parallel version (MPI & OpenMP), running on       8 processor cores
     Number of MPI processes:                 8
     Threads/MPI process:                     1

     MPI processes distributed on     1 nodes
     481736 MiB available memory on the printing compute node when the environment starts

     Waiting for input...
     Reading input from standard input

     Current dimensions of program PWSCF are:
     Max number of different atomic species (ntypx) = 10
     Max number of k-points (npk) =  40000
     Max angular momentum in pseudopotentials (lmaxx) =  4

     R & G space division:  proc/nbgrp/npool/nimage =       8
     Subspace diagonalization in iterative solution of the eigenvalue problem:
     a serial algorithm will be used


     Parallelization info
     --------------------
     sticks:   dense  smooth     PW     G-vecs:    dense   smooth      PW
     Min          96      96     27                 4636     4636     715
     Max          97      97     28                 4647     4647     720
     Sum         769     769    223                37115    37115    5733

     Using Slab Decomposition



     bravais-lattice index     =            4
     lattice parameter (alat)  =       5.9575  a.u.
     unit-cell volume          =     384.6528 (a.u.)^3
     number of atoms/cell      =            4
     number of atomic types    =            2
     number of electrons       =        13.00
     number of Kohn-Sham states=           11
     kinetic-energy cutoff     =      80.0000  Ry
     charge density cutoff     =     320.0000  Ry
     scf convergence threshold =      1.0E-08
     mixing beta               =       0.7000
     number of iterations used =            8  plain     mixing
     energy convergence thresh.=      1.0E-04
     force convergence thresh. =      1.0E-03
     press convergence thresh. =      1.0E+00
     Exchange-correlation= PBE
                           (   1   4   3   4   0   0   0)
     nstep                     =           50


     celldm(1)=   5.957466  celldm(2)=   0.000000  celldm(3)=   2.100650
     celldm(4)=   0.000000  celldm(5)=   0.000000  celldm(6)=   0.000000

     crystal axes: (cart. coord. in units of alat)
               a(1) = (   1.000000   0.000000   0.000000 )  
               a(2) = (  -0.500000   0.866025   0.000000 )  
               a(3) = (   0.000000   0.000000   2.100650 )  

     reciprocal axes: (cart. coord. in units 2 pi/alat)
               b(1) = (  1.000000  0.577350 -0.000000 )  
               b(2) = (  0.000000  1.154701  0.000000 )  
               b(3) = (  0.000000 -0.000000  0.476043 )  


     PseudoPot. # 1 for Si read from file:
     ../pseudo/Si_ONCV_PBE_sr.upf
     MD5 check sum: e543d271109d17c80368dfa7c482276d
     Pseudo is Norm-conserving + core correction, Zval =  4.0
     Generated using ONCVPSP code by D. R. Hamann
     Using radial grid of 1510 points,  6 beta functions with: 
                l(1) =   0
                l(2) =   0
                l(3) =   1
                l(4) =   1
                l(5) =   2
                l(6) =   2

     PseudoPot. # 2 for Li read from file:
     ../pseudo/Li_ONCV_PBE_sr.upf
     MD5 check sum: 50ff420e78310ffa21704f3361e624a4
     Pseudo is Norm-conserving, Zval =  3.0
     Generated using ONCVPSP code by D. R. Hamann
     Using radial grid of 1944 points,  4 beta functions with: 
                l(1) =   0
                l(2) =   0
                l(3) =   1
                l(4) =   1

     atomic species   valence    mass     pseudopotential
        Si             4.00    28.08550     Si( 1.00)
        Li             3.00     6.94100     Li( 1.00)

     12 Sym. Ops. (no inversion) found



   Cartesian axes

     site n.     atom                  positions (alat units)
         1           Si  tau(   1) = (   0.5000000   0.2886751   0.0000000  )
         2           Li  tau(   2) = (  -0.0000000   0.5773503   1.2896707  )
         3           Li  tau(   3) = (   0.0000000   0.5773503   0.8109789  )
         4           Li  tau(   4) = (   0.0000000   0.0000000   0.0000000  )

     number of k points=    42  Marzari-Vanderbilt smearing, width (Ry)=  0.0200
                       cart. coord. in units 2pi/alat
        k(    1) = (   0.0000000   0.0000000   0.0000000), wk =   0.0040000
        k(    2) = (   0.0000000   0.0000000   0.0952086), wk =   0.0080000
        k(    3) = (   0.0000000   0.0000000   0.1904173), wk =   0.0080000
        k(    4) = (   0.0000000   0.1154701   0.0000000), wk =   0.0240000
        k(    5) = (   0.0000000   0.1154701   0.0952086), wk =   0.0480000
        k(    6) = (   0.0000000   0.1154701   0.1904173), wk =   0.0480000
        k(    7) = (   0.0000000   0.2309401   0.0000000), wk =   0.0240000
        k(    8) = (   0.0000000   0.2309401   0.0952086), wk =   0.0480000
        k(    9) = (   0.0000000   0.2309401   0.1904173), wk =   0.0480000
        k(   10) = (   0.0000000   0.3464102   0.0000000), wk =   0.0240000
        k(   11) = (   0.0000000   0.3464102   0.0952086), wk =   0.0480000
        k(   12) = (   0.0000000   0.3464102   0.1904173), wk =   0.0480000
        k(   13) = (   0.0000000   0.4618802   0.0000000), wk =   0.0240000
        k(   14) = (   0.0000000   0.4618802   0.0952086), wk =   0.0480000
        k(   15) = (   0.0000000   0.4618802   0.1904173), wk =   0.0480000
        k(   16) = (   0.0000000  -0.5773503   0.0000000), wk =   0.0120000
        k(   17) = (   0.0000000  -0.5773503   0.0952086), wk =   0.0240000
        k(   18) = (   0.0000000  -0.5773503   0.1904173), wk =   0.0240000
        k(   19) = (   0.1000000   0.1732051   0.0000000), wk =   0.0240000
        k(   20) = (   0.1000000   0.1732051   0.0952086), wk =   0.0480000
        k(   21) = (   0.1000000   0.1732051   0.1904173), wk =   0.0480000
        k(   22) = (   0.1000000   0.2886751   0.0000000), wk =   0.0480000
        k(   23) = (   0.1000000   0.2886751   0.0952086), wk =   0.0960000
        k(   24) = (   0.1000000   0.2886751   0.1904173), wk =   0.0960000
        k(   25) = (   0.1000000   0.4041452   0.0000000), wk =   0.0480000
        k(   26) = (   0.1000000   0.4041452   0.0952086), wk =   0.0960000
        k(   27) = (   0.1000000   0.4041452   0.1904173), wk =   0.0960000
        k(   28) = (   0.1000000   0.5196152   0.0000000), wk =   0.0480000
        k(   29) = (   0.1000000   0.5196152   0.0952086), wk =   0.0960000
        k(   30) = (   0.1000000   0.5196152   0.1904173), wk =   0.0960000
        k(   31) = (   0.2000000   0.3464102   0.0000000), wk =   0.0240000
        k(   32) = (   0.2000000   0.3464102   0.0952086), wk =   0.0480000
        k(   33) = (   0.2000000   0.3464102   0.1904173), wk =   0.0480000
        k(   34) = (   0.2000000   0.4618802   0.0000000), wk =   0.0480000
        k(   35) = (   0.2000000   0.4618802   0.0952086), wk =   0.0960000
        k(   36) = (   0.2000000   0.4618802   0.1904173), wk =   0.0960000
        k(   37) = (   0.2000000   0.5773503   0.0000000), wk =   0.0240000
        k(   38) = (   0.2000000   0.5773503   0.0952086), wk =   0.0480000
        k(   39) = (   0.2000000   0.5773503   0.1904173), wk =   0.0480000
        k(   40) = (   0.3000000   0.5196152   0.0000000), wk =   0.0240000
        k(   41) = (   0.3000000   0.5196152   0.0952086), wk =   0.0480000
        k(   42) = (   0.3000000   0.5196152   0.1904173), wk =   0.0480000

     Dense  grid:    37115 G-vectors     FFT dimensions: (  36,  36,  72)

     Estimated max dynamical RAM per process >      19.35 MB

     Estimated total dynamical RAM >     154.77 MB

     Initial potential from superposition of free atoms

     starting charge      12.9857, renormalised to      13.0000
     Starting wfcs are   10 randomized atomic wfcs +    1 random wfcs

     total cpu time spent up to now is        1.1 secs

     Self-consistent Calculation

     iteration #  1     ecut=    80.00 Ry     beta= 0.70
     Davidson diagonalization with overlap
     ethr =  1.00E-02,  avg # of iterations =  6.0

     total cpu time spent up to now is        1.9 secs

     total energy              =     -50.97534404 Ry
     estimated scf accuracy    <       0.31964446 Ry

     iteration #  2     ecut=    80.00 Ry     beta= 0.70
     Davidson diagonalization with overlap
     ethr =  2.46E-03,  avg # of iterations =  4.2

     total cpu time spent up to now is        2.5 secs

     total energy              =     -50.88821863 Ry
     estimated scf accuracy    <       2.70153531 Ry

     iteration #  3     ecut=    80.00 Ry     beta= 0.70
     Davidson diagonalization with overlap
     ethr =  2.46E-03,  avg # of iterations =  2.3

     total cpu time spent up to now is        3.1 secs

     total energy              =     -51.18871639 Ry
     estimated scf accuracy    <       0.03374404 Ry

     iteration #  4     ecut=    80.00 Ry     beta= 0.70
     Davidson diagonalization with overlap
     ethr =  2.60E-04,  avg # of iterations =  4.4

     total cpu time spent up to now is        3.6 secs

     total energy              =     -51.19507287 Ry
     estimated scf accuracy    <       0.00439798 Ry

     iteration #  5     ecut=    80.00 Ry     beta= 0.70
     Davidson diagonalization with overlap
     ethr =  3.38E-05,  avg # of iterations =  3.3

     total cpu time spent up to now is        4.0 secs

     total energy              =     -51.19567714 Ry
     estimated scf accuracy    <       0.00002231 Ry

     iteration #  6     ecut=    80.00 Ry     beta= 0.70
     Davidson diagonalization with overlap
     ethr =  1.72E-07,  avg # of iterations =  4.9

     total cpu time spent up to now is        4.6 secs

     total energy              =     -51.19568778 Ry
     estimated scf accuracy    <       0.00006232 Ry

     iteration #  7     ecut=    80.00 Ry     beta= 0.70
     Davidson diagonalization with overlap
     ethr =  1.72E-07,  avg # of iterations =  1.5

     total cpu time spent up to now is        5.0 secs

     total energy              =     -51.19569397 Ry
     estimated scf accuracy    <       0.00000015 Ry

     iteration #  8     ecut=    80.00 Ry     beta= 0.70
     Davidson diagonalization with overlap
     ethr =  1.19E-09,  avg # of iterations =  2.5

     total cpu time spent up to now is        5.4 secs

     total energy              =     -51.19569402 Ry
     estimated scf accuracy    <       0.00000003 Ry

     iteration #  9     ecut=    80.00 Ry     beta= 0.70
     Davidson diagonalization with overlap
     ethr =  2.56E-10,  avg # of iterations =  1.1

     total cpu time spent up to now is        5.8 secs

     End of self-consistent calculation

          k = 0.0000 0.0000 0.0000 (  4685 PWs)   bands (ev):

   -44.2222 -43.1595 -43.0943  -5.0674  -0.1022   1.9068   7.4352   7.4352
     8.6801   9.9448  11.1140

          k = 0.0000 0.0000 0.0952 (  4698 PWs)   bands (ev):

   -44.2222 -43.1596 -43.0942  -5.0595  -0.2883   2.3221   7.4327   7.4361
     7.4361  11.1410  11.2600

          k = 0.0000 0.0000 0.1904 (  4650 PWs)   bands (ev):

   -44.2222 -43.1599 -43.0940  -5.0465  -0.5183   3.0766   6.1416   7.4376
     7.4376  11.1875  11.1875

          k = 0.0000 0.1155 0.0000 (  4679 PWs)   bands (ev):

   -44.2213 -43.1589 -43.0927  -4.9537   0.0777   2.0018   6.5630   6.8905
     8.8641  10.0526  11.1530

          k = 0.0000 0.1155 0.0952 (  4670 PWs)   bands (ev):

   -44.2213 -43.1591 -43.0926  -4.9458  -0.1188   2.4301   6.5336   6.8929
     7.6352  11.1456  11.3713

          k = 0.0000 0.1155 0.1904 (  4677 PWs)   bands (ev):

   -44.2213 -43.1593 -43.0924  -4.9328  -0.3575   3.2025   6.1080   6.7642
     6.8967  11.1978  12.0634

          k = 0.0000 0.2309 0.0000 (  4643 PWs)   bands (ev):

   -44.2188 -43.1575 -43.0884  -4.6182   0.6147   2.2704   4.8240   5.9660
     9.2913  10.3212  11.3848

          k = 0.0000 0.2309 0.0952 (  4653 PWs)   bands (ev):

   -44.2188 -43.1576 -43.0883  -4.6104   0.3830   2.7396   4.8115   5.9697
     8.0306  10.9470  11.3309

          k = 0.0000 0.2309 0.1904 (  4662 PWs)   bands (ev):

   -44.2188 -43.1577 -43.0881  -4.5976   0.1182   3.5705   4.7324   5.9757
     6.7839  10.6634  11.3770

          k = 0.0000 0.3464 0.0000 (  4663 PWs)   bands (ev):

   -44.2157 -43.1557 -43.0831  -4.0906   1.4954   2.4068   3.3637   5.1978
     9.0772   9.5821  10.0393

          k = 0.0000 0.3464 0.0952 (  4659 PWs)   bands (ev):

   -44.2157 -43.1557 -43.0830  -4.0831   1.1836   2.7110   3.6042   5.2020
     8.4723   8.9458  10.2538

          k = 0.0000 0.3464 0.1904 (  4651 PWs)   bands (ev):

   -44.2157 -43.1558 -43.0829  -4.0709   0.8793   2.8929   4.2456   5.2090
     7.3973   8.4366  10.9411

          k = 0.0000 0.4619 0.0000 (  4638 PWs)   bands (ev):

   -44.2133 -43.1542 -43.0787  -3.4860   1.3386   2.6574   3.5838   4.7147
     6.8963   8.0617  10.8841

          k = 0.0000 0.4619 0.0952 (  4636 PWs)   bands (ev):

   -44.2132 -43.1542 -43.0787  -3.4796   1.3664   2.2511   4.1799   4.7193
     6.6961   8.4991   9.7271

          k = 0.0000 0.4619 0.1904 (  4645 PWs)   bands (ev):

   -44.2132 -43.1542 -43.0787  -3.4690   1.4441   1.8419   4.7267   4.9299
     6.6604   8.3411   9.2259

          k = 0.0000-0.5774 0.0000 (  4634 PWs)   bands (ev):

   -44.2123 -43.1536 -43.0771  -3.1650   0.7558   3.5399   3.8946   4.5512
     5.6614   7.3918  11.2062

          k = 0.0000-0.5774 0.0952 (  4620 PWs)   bands (ev):

   -44.2123 -43.1536 -43.0771  -3.1596   0.7882   2.8870   4.5558   4.6634
     5.6643   7.7155  10.6006

          k = 0.0000-0.5774 0.1904 (  4626 PWs)   bands (ev):

   -44.2123 -43.1537 -43.0771  -3.1507   0.8500   2.4232   4.5634   4.9651
     6.3080   8.2957   9.0754

          k = 0.1000 0.1732 0.0000 (  4663 PWs)   bands (ev):

   -44.2196 -43.1579 -43.0897  -4.7284   0.4363   2.1882   5.3710   6.0904
     9.2090  10.2520  11.4016

          k = 0.1000 0.1732 0.0952 (  4658 PWs)   bands (ev):

   -44.2196 -43.1580 -43.0896  -4.7206   0.2172   2.6442   5.3728   6.0566
     7.9568  11.3842  11.4562

          k = 0.1000 0.1732 0.1904 (  4667 PWs)   bands (ev):

   -44.2195 -43.1582 -43.0894  -4.7077  -0.0389   3.4538   5.3630   5.8469
     6.8659  11.4388  11.4497

          k = 0.1000 0.2887 0.0000 (  4652 PWs)   bands (ev):

   -44.2168 -43.1563 -43.0849  -4.2902   1.1466   2.5143   3.7024   5.2952
     9.7740  10.1453  10.4298

          k = 0.1000 0.2887 0.0952 (  4664 PWs)   bands (ev):

   -44.2168 -43.1564 -43.0848  -4.2826   0.8734   3.0106   3.7210   5.2748
     8.4944   9.7270  11.1295

          k = 0.1000 0.2887 0.1904 (  4658 PWs)   bands (ev):

   -44.2168 -43.1565 -43.0847  -4.2700   0.5837   3.6080   3.9881   5.1568
     7.3021   9.3392  11.2897

          k = 0.1000 0.4041 0.0000 (  4650 PWs)   bands (ev):

   -44.2140 -43.1546 -43.0801  -3.6943   1.8764   2.1808   3.2414   4.7614
     8.0201   8.6006  10.6089

          k = 0.1000 0.4041 0.0952 (  4644 PWs)   bands (ev):

   -44.2140 -43.1547 -43.0800  -3.6872   1.7259   2.0253   3.7600   4.7800
     7.5889   9.1561   9.4801

          k = 0.1000 0.4041 0.1904 (  4639 PWs)   bands (ev):

   -44.2140 -43.1547 -43.0800  -3.6757   1.4548   1.9983   4.4786   4.8440
     7.3229   8.0932   9.9557

          k = 0.1000 0.5196 0.0000 (  4645 PWs)   bands (ev):

   -44.2123 -43.1536 -43.0771  -3.1533   0.8223   3.3672   3.6593   4.5644
     6.1583   7.4104  10.9252

          k = 0.1000 0.5196 0.0952 (  4637 PWs)   bands (ev):

   -44.2123 -43.1536 -43.0771  -3.1474   0.8468   2.7891   4.1390   4.8212
     6.0315   7.8100  10.3886

          k = 0.1000 0.5196 0.1904 (  4628 PWs)   bands (ev):

   -44.2123 -43.1537 -43.0771  -3.1379   0.8928   2.3707   4.3015   5.1159
     6.3687   8.4256   9.0311

          k = 0.2000 0.3464 0.0000 (  4657 PWs)   bands (ev):

   -44.2143 -43.1548 -43.0806  -3.7637   2.0166   2.2504   2.9242   4.7249
     8.8274   8.9242  10.5202

          k = 0.2000 0.3464 0.0952 (  4662 PWs)   bands (ev):

   -44.2143 -43.1549 -43.0806  -3.7564   1.6588   2.2595   3.4783   4.7490
     8.0950   9.3074   9.8385

          k = 0.2000 0.3464 0.1904 (  4646 PWs)   bands (ev):

   -44.2143 -43.1549 -43.0805  -3.7445   1.3346   2.2674   4.2180   4.8009
     7.7022   8.0788  10.1309

          k = 0.2000 0.4619 0.0000 (  4631 PWs)   bands (ev):

   -44.2123 -43.1536 -43.0771  -3.1340   0.9496   3.1581   3.2781   4.6030
     7.2063   7.4065   9.7856

          k = 0.2000 0.4619 0.0952 (  4642 PWs)   bands (ev):

   -44.2123 -43.1536 -43.0771  -3.1275   0.9575   2.6388   3.7132   4.9164
     6.5666   8.2324   9.6774

          k = 0.2000 0.4619 0.1904 (  4644 PWs)   bands (ev):

   -44.2123 -43.1537 -43.0771  -3.1169   0.9714   2.2910   3.9235   5.4011
     6.3646   8.7719   9.0676

          k = 0.2000 0.5774 0.0000 (  4636 PWs)   bands (ev):

   -44.2115 -43.1532 -43.0758  -2.7769   0.3467   3.3912   4.0142   4.7746
     6.0836   6.7076   9.5182

          k = 0.2000 0.5774 0.0952 (  4634 PWs)   bands (ev):

   -44.2115 -43.1532 -43.0758  -2.7711   0.3561   3.2358   3.7954   5.2003
     5.8896   7.2675   9.4901

          k = 0.2000 0.5774 0.1904 (  4642 PWs)   bands (ev):

   -44.2115 -43.1532 -43.0758  -2.7616   0.3720   2.9518   3.8082   4.9855
     6.7130   7.8075   9.6406

          k = 0.3000 0.5196 0.0000 (  4630 PWs)   bands (ev):

   -44.2112 -43.1530 -43.0753  -2.5856   0.1168   3.2424   4.2088   5.0198
     6.3000   6.5256   8.3543

          k = 0.3000 0.5196 0.0952 (  4627 PWs)   bands (ev):

   -44.2112 -43.1530 -43.0753  -2.5794   0.1196   3.2804   3.8039   5.3823
     5.8467   7.5045   8.3506

          k = 0.3000 0.5196 0.1904 (  4651 PWs)   bands (ev):

   -44.2112 -43.1530 -43.0753  -2.5693   0.1243   3.2414   3.6202   4.8844
     6.7495   8.1086   8.9029

     the Fermi energy is     3.9928 ev

!    total energy              =     -51.19569403 Ry
     estimated scf accuracy    <          3.1E-10 Ry
     smearing contrib. (-TS)   =       0.00094993 Ry
     internal energy E=F+TS    =     -51.19664396 Ry

     The total energy is F=E-TS. E is the sum of the following terms:
     one-electron contribution =     -26.90700543 Ry
     hartree contribution      =      12.22632286 Ry
     xc contribution           =     -13.39161417 Ry
     ewald contribution        =     -23.12434722 Ry

     convergence has been achieved in   9 iterations

     Forces acting on atoms (cartesian axes, Ry/au):

     atom    1 type  1   force =     0.00000000    0.00000000    0.00000000
     atom    2 type  2   force =     0.00000000    0.00000000    0.18065279
     atom    3 type  2   force =     0.00000000    0.00000000   -0.18065279
     atom    4 type  2   force =     0.00000000    0.00000000    0.00000000
     The non-local contrib.  to forces
     atom    1 type  1   force =     0.00000000    0.00000000    0.00000000
     atom    2 type  2   force =     0.00000000   -0.00000000   -0.17613768
     atom    3 type  2   force =     0.00000000    0.00000000    0.17613768
     atom    4 type  2   force =    -0.00000000   -0.00000000    0.00000000
     The ionic contribution  to forces
     atom    1 type  1   force =    -0.00000004    0.00000002   -0.00000000
     atom    2 type  2   force =    -0.00000003   -0.00000000    0.87926127
     atom    3 type  2   force =     0.00000003   -0.00000000   -0.87926127
     atom    4 type  2   force =     0.00000004   -0.00000002   -0.00000000
     The local contribution  to forces
     atom    1 type  1   force =     0.00000001   -0.00000001    0.00000000
     atom    2 type  2   force =     0.00000060   -0.00000035   -0.52245940
     atom    3 type  2   force =    -0.00000060   -0.00000035    0.52245940
     atom    4 type  2   force =    -0.00000000    0.00000000    0.00000000
     The core correction contribution to forces
     atom    1 type  1   force =     0.00000000   -0.00000000   -0.00000000
     atom    2 type  2   force =     0.00000000    0.00000000    0.00000000
     atom    3 type  2   force =     0.00000000    0.00000000    0.00000000
     atom    4 type  2   force =     0.00000000    0.00000000    0.00000000
     The Hubbard contrib.    to forces
     atom    1 type  1   force =     0.00000000    0.00000000    0.00000000
     atom    2 type  2   force =     0.00000000    0.00000000    0.00000000
     atom    3 type  2   force =     0.00000000    0.00000000    0.00000000
     atom    4 type  2   force =     0.00000000    0.00000000    0.00000000
     The SCF correction term to forces
     atom    1 type  1   force =     0.00000000   -0.00000000   -0.00000000
     atom    2 type  2   force =    -0.00000000    0.00000000   -0.00001139
     atom    3 type  2   force =     0.00000000    0.00000000    0.00001139
     atom    4 type  2   force =    -0.00000000    0.00000000   -0.00000000

     Total force =     0.255482     Total SCF correction =     0.000016


     Computing stress (Cartesian axis) and pressure

          total   stress  (Ry/bohr**3)                   (kbar)     P=      271.90
   0.00246434   0.00000000   0.00000000          362.52        0.00        0.00
   0.00000000   0.00246434  -0.00000000            0.00      362.52       -0.00
   0.00000000  -0.00000000   0.00061642            0.00       -0.00       90.68


     BFGS Geometry Optimization
     Energy error            =      0.0E+00 Ry
     Gradient error          =      1.8E-01 Ry/Bohr
     Cell gradient error     =      4.1E+02 kbar

     number of scf cycles    =   1
     number of bfgs steps    =   0

     enthalpy           new  =     -49.8882856286 Ry

     new trust radius        =       0.2728604629 bohr
ibrav =      4
 celldm(1) =      5.81827103
 celldm(3) =      2.00128232
Input lattice vectors:
     0.97663523     0.00000000     0.00000000
    -0.48831761     0.84579092    -0.00000000
     0.00000000    -0.00000000     1.95452281
New lattice vectors in INITIAL alat:
     0.97663523     0.00000000     0.00000000
    -0.48831761     0.84579092     0.00000000
     0.00000000     0.00000000     1.95452281
New lattice vectors in NEW alat (for information only):
     1.00000000     0.00000000     0.00000000
    -0.50000000     0.86602540     0.00000000
     0.00000000     0.00000000     2.00128232
Discrepancy in bohr =     0.000000    0.000000    0.000000
     new conv_thr            =       0.0000000100 Ry

     new unit-cell volume =    341.36645 a.u.^3 (    50.58529 Ang^3 )
     density =      1.60550 g/cm^3

CELL_PARAMETERS (alat=  5.95746588)
   0.976635225   0.000000000   0.000000000
  -0.488317613   0.845790915   0.000000000
   0.000000000   0.000000000   1.954522808

ATOMIC_POSITIONS (crystal)
Si            0.6666666700        0.3333333300        0.0000000000
Li            0.3333333300        0.6666666700        0.6283744227
Li            0.3333333400        0.6666666700        0.3716255773
Li            0.0000000000        0.0000000000        0.0000000000



     Writing config-only to output data dir ./output/SiLi.save/
     NEW-OLD atomic charge density approx. for the potential
     extrapolated charge   11.35337, renormalised to   13.00000

     total cpu time spent up to now is        7.4 secs

     Self-consistent Calculation

     iteration #  1     ecut=    80.00 Ry     beta= 0.70
     Davidson diagonalization with overlap
     c_bands:  1 eigenvalues not converged
     c_bands:  1 eigenvalues not converged
     c_bands:  1 eigenvalues not converged
     c_bands:  1 eigenvalues not converged
     ethr =  1.00E-06,  avg # of iterations = 13.3

     total cpu time spent up to now is        8.8 secs

     total energy              =     -50.38457547 Ry
     estimated scf accuracy    <       0.81865054 Ry

     iteration #  2     ecut=    80.00 Ry     beta= 0.70
     Davidson diagonalization with overlap
     ethr =  6.30E-03,  avg # of iterations =  4.6

     total cpu time spent up to now is        9.4 secs

     total energy              =     -50.54772344 Ry
     estimated scf accuracy    <       8.51355104 Ry

     iteration #  3     ecut=    80.00 Ry     beta= 0.70
     Davidson diagonalization with overlap
     ethr =  6.30E-03,  avg # of iterations =  2.8

     total cpu time spent up to now is       10.0 secs

     total energy              =     -51.20002984 Ry
     estimated scf accuracy    <       0.57069081 Ry

     iteration #  4     ecut=    80.00 Ry     beta= 0.70
     Davidson diagonalization with overlap
     ethr =  4.39E-03,  avg # of iterations =  1.4

     total cpu time spent up to now is       10.4 secs

     total energy              =     -51.15606740 Ry
     estimated scf accuracy    <       0.19085078 Ry

     iteration #  5     ecut=    80.00 Ry     beta= 0.70
     Davidson diagonalization with overlap
     ethr =  1.47E-03,  avg # of iterations =  2.7

     total cpu time spent up to now is       10.9 secs

     total energy              =     -51.18740665 Ry
     estimated scf accuracy    <       0.00246236 Ry

     iteration #  6     ecut=    80.00 Ry     beta= 0.70
     Davidson diagonalization with overlap
     ethr =  1.89E-05,  avg # of iterations =  7.5

     total cpu time spent up to now is       11.6 secs

     total energy              =     -51.18739276 Ry
     estimated scf accuracy    <       0.00190430 Ry

     iteration #  7     ecut=    80.00 Ry     beta= 0.70
     Davidson diagonalization with overlap
     ethr =  1.46E-05,  avg # of iterations =  1.1

     total cpu time spent up to now is       12.0 secs

     total energy              =     -51.18768680 Ry
     estimated scf accuracy    <       0.00003005 Ry

     iteration #  8     ecut=    80.00 Ry     beta= 0.70
     Davidson diagonalization with overlap
     ethr =  2.31E-07,  avg # of iterations =  2.4

     total cpu time spent up to now is       12.5 secs

     total energy              =     -51.18768652 Ry
     estimated scf accuracy    <       0.00001390 Ry

     iteration #  9     ecut=    80.00 Ry     beta= 0.70
     Davidson diagonalization with overlap
     ethr =  1.07E-07,  avg # of iterations =  1.0

     total cpu time spent up to now is       12.9 secs

     total energy              =     -51.18768738 Ry
     estimated scf accuracy    <       0.00000079 Ry

     iteration # 10     ecut=    80.00 Ry     beta= 0.70
     Davidson diagonalization with overlap
     ethr =  6.08E-09,  avg # of iterations =  1.9

     total cpu time spent up to now is       13.3 secs

     End of self-consistent calculation

          k = 0.0000 0.0000 0.0000 (  4685 PWs)   bands (ev):

   -42.7717 -42.4405 -41.9619  -4.4722   0.4244   2.8423   8.5922   8.5922
    10.5351  12.0315  12.4765

          k = 0.0000 0.0000 0.1023 (  4698 PWs)   bands (ev):

   -42.7715 -42.4408 -41.9618  -4.4597   0.2212   3.2906   8.5940   8.5940
     9.2497  12.0682  12.0682

          k = 0.0000 0.0000 0.2047 (  4650 PWs)   bands (ev):

   -42.7712 -42.4413 -41.9616  -4.4390  -0.0367   4.0964   7.8391   8.5970
     8.5970  12.1321  12.1321

          k = 0.0000 0.1182 0.0000 (  4679 PWs)   bands (ev):

   -42.7703 -42.4383 -41.9611  -4.3556   0.6087   2.9401   7.6426   7.9692
    10.6632  12.2180  12.5577

          k = 0.0000 0.1182 0.1023 (  4670 PWs)   bands (ev):

   -42.7702 -42.4386 -41.9610  -4.3430   0.3946   3.4044   7.6279   7.9739
     9.4063  12.2129  13.0061

          k = 0.0000 0.1182 0.2047 (  4677 PWs)   bands (ev):

   -42.7699 -42.4391 -41.9608  -4.3222   0.1269   4.2373   7.4639   7.9816
     8.1549  12.2537  13.0962

          k = 0.0000 0.2365 0.0000 (  4643 PWs)   bands (ev):

   -42.7669 -42.4328 -41.9590  -4.0099   1.1589   3.2041   5.8033   6.9594
    10.9741  12.4197  12.5712

          k = 0.0000 0.2365 0.1023 (  4653 PWs)   bands (ev):

   -42.7668 -42.4330 -41.9589  -3.9973   0.9082   3.7155   5.7911   6.9663
     9.7547  12.0512  12.5599

          k = 0.0000 0.2365 0.2047 (  4662 PWs)   bands (ev):

   -42.7666 -42.4334 -41.9588  -3.9763   0.6113   4.6391   5.6982   6.9776
     8.3909  11.6717  12.5740

          k = 0.0000 0.3547 0.0000 (  4663 PWs)   bands (ev):

   -42.7626 -42.4260 -41.9564  -3.4612   2.0612   3.1758   4.4453   6.1379
     9.9512  10.7614  11.7044

          k = 0.0000 0.3547 0.1023 (  4659 PWs)   bands (ev):

   -42.7625 -42.4261 -41.9563  -3.4488   1.7291   3.4874   4.7248   6.1458
     9.5128  10.3877  11.6128

          k = 0.0000 0.3547 0.2047 (  4651 PWs)   bands (ev):

   -42.7624 -42.4263 -41.9562  -3.4282   1.3875   3.7104   5.4156   6.1588
     8.8995   9.3349  12.4036

          k = 0.0000 0.4729 0.0000 (  4638 PWs)   bands (ev):

   -42.7592 -42.4205 -41.9543  -2.8223   2.0030   3.2498   4.7560   5.6253
     7.6638   9.1414  12.9647

          k = 0.0000 0.4729 0.1023 (  4636 PWs)   bands (ev):

   -42.7591 -42.4205 -41.9542  -2.8111   2.0344   2.8652   5.3510   5.6338
     7.4828   9.5855  11.4310

          k = 0.0000 0.4729 0.2047 (  4645 PWs)   bands (ev):

   -42.7591 -42.4206 -41.9542  -2.7925   2.1385   2.4064   5.6476   6.0983
     7.5701   9.7685  10.5255

          k = 0.0000-0.5912 0.0000 (  4634 PWs)   bands (ev):

   -42.7578 -42.4183 -41.9534  -2.4759   1.3848   4.1434   5.1184   5.4522
     6.3989   8.3962  12.8693

          k = 0.0000-0.5912 0.1023 (  4620 PWs)   bands (ev):

   -42.7578 -42.4184 -41.9534  -2.4660   1.4327   3.5271   5.4608   5.7822
     6.5180   8.7201  12.3681

          k = 0.0000-0.5912 0.2047 (  4626 PWs)   bands (ev):

   -42.7578 -42.4184 -41.9534  -2.4499   1.5314   2.9707   5.4749   5.8324
     7.6805   9.2873  10.5287

          k = 0.1024 0.1773 0.0000 (  4663 PWs)   bands (ev):

   -42.7680 -42.4345 -41.9596  -4.1236   0.9761   3.1285   6.3582   7.1100
    10.9756  12.5532  12.6786

          k = 0.1024 0.1773 0.1023 (  4658 PWs)   bands (ev):

   -42.7678 -42.4348 -41.9595  -4.1110   0.7384   3.6257   6.3656   7.0763
     9.7209  12.5535  12.9782

          k = 0.1024 0.1773 0.2047 (  4667 PWs)   bands (ev):

   -42.7676 -42.4351 -41.9594  -4.0901   0.4513   4.5164   6.3778   6.8901
     8.4574  12.5462  12.5886

          k = 0.1024 0.2956 0.0000 (  4652 PWs)   bands (ev):

   -42.7641 -42.4283 -41.9573  -3.6692   1.7041   3.4124   4.6283   6.2866
    11.2534  11.3387  11.9509

          k = 0.1024 0.2956 0.1023 (  4664 PWs)   bands (ev):

   -42.7640 -42.4285 -41.9572  -3.6565   1.4113   3.9299   4.6727   6.2661
    10.1767  10.7367  12.5895

          k = 0.1024 0.2956 0.2047 (  4658 PWs)   bands (ev):

   -42.7639 -42.4287 -41.9571  -3.6357   1.0863   4.4761   5.1011   6.1259
     8.9115  10.2505  12.4612

          k = 0.1024 0.4138 0.0000 (  4650 PWs)   bands (ev):

   -42.7602 -42.4222 -41.9549  -3.0425   2.5749   2.7640   4.2735   5.7672
     8.8265   9.8314  12.0885

          k = 0.1024 0.4138 0.1023 (  4644 PWs)   bands (ev):

   -42.7602 -42.4222 -41.9549  -3.0304   2.3020   2.7462   4.7761   5.8196
     8.4281  10.3473  11.2399

          k = 0.1024 0.4138 0.2047 (  4639 PWs)   bands (ev):

   -42.7601 -42.4224 -41.9548  -3.0105   1.9768   2.7564   5.4204   6.0289
     8.1522   9.6136  11.3604

          k = 0.1024 0.5320 0.0000 (  4645 PWs)   bands (ev):

   -42.7578 -42.4184 -41.9534  -2.4597   1.4561   3.9762   4.6302   5.6726
     6.8952   8.5353  12.2267

          k = 0.1024 0.5320 0.1023 (  4637 PWs)   bands (ev):

   -42.7578 -42.4184 -41.9534  -2.4492   1.4930   3.4171   5.0071   5.9923
     6.8421   8.9251  11.7770

          k = 0.1024 0.5320 0.2047 (  4628 PWs)   bands (ev):

   -42.7578 -42.4184 -41.9534  -2.4318   1.5677   2.9194   5.1909   6.0459
     7.5980   9.5585  10.5534

          k = 0.2048 0.3547 0.0000 (  4657 PWs)   bands (ev):

   -42.7606 -42.4228 -41.9552  -3.1146   2.5968   2.9773   3.8554   5.7927
     9.7779  10.2089  11.8302

          k = 0.2048 0.3547 0.1023 (  4662 PWs)   bands (ev):

   -42.7606 -42.4229 -41.9551  -3.1022   2.2180   3.0166   4.4014   5.8499
     9.0246  10.7741  11.3348

          k = 0.2048 0.3547 0.2047 (  4646 PWs)   bands (ev):

   -42.7605 -42.4230 -41.9551  -3.0818   1.8550   3.0370   5.1284   6.0027
     8.5424   9.6360  11.2615

          k = 0.2048 0.4729 0.0000 (  4631 PWs)   bands (ev):

   -42.7578 -42.4184 -41.9534  -2.4333   1.5946   3.7706   4.0925   5.7931
     7.9433   8.7299  10.6859

          k = 0.2048 0.4729 0.1023 (  4642 PWs)   bands (ev):

   -42.7578 -42.4184 -41.9534  -2.4216   1.6085   3.2498   4.5163   6.1605
     7.3765   9.4638  10.7065

          k = 0.2048 0.4729 0.2047 (  4644 PWs)   bands (ev):

   -42.7578 -42.4184 -41.9534  -2.4023   1.6346   2.8409   4.7899   6.4998
     7.3309   9.9923  10.6446

          k = 0.2048 0.5912 0.0000 (  4636 PWs)   bands (ev):

   -42.7568 -42.4167 -41.9528  -2.0295   0.9279   4.1685   4.6549   6.0231
     6.7723   7.9937  10.4223

          k = 0.2048 0.5912 0.1023 (  4634 PWs)   bands (ev):

   -42.7568 -42.4167 -41.9528  -2.0186   0.9434   3.9063   4.5590   6.2133
     6.9195   8.4637  10.4741

          k = 0.2048 0.5912 0.2047 (  4642 PWs)   bands (ev):

   -42.7568 -42.4167 -41.9528  -2.0005   0.9705   3.5216   4.6657   5.7555
     8.1936   8.9029  10.7904

          k = 0.3072 0.5320 0.0000 (  4630 PWs)   bands (ev):

   -42.7564 -42.4160 -41.9525  -1.7979   0.6555   3.9805   4.8725   6.2463
     7.1427   7.6980   9.2844

          k = 0.3072 0.5320 0.1023 (  4627 PWs)   bands (ev):

   -42.7564 -42.4160 -41.9525  -1.7858   0.6606   3.9980   4.5058   6.2998
     7.0265   8.7192   9.3254

          k = 0.3072 0.5320 0.2047 (  4651 PWs)   bands (ev):

   -42.7564 -42.4160 -41.9526  -1.7660   0.6690   3.8330   4.4608   5.6095
     8.1596   9.2471  10.3128

     the Fermi energy is     4.9220 ev

!    total energy              =     -51.18768750 Ry
     estimated scf accuracy    <          2.0E-10 Ry
     smearing contrib. (-TS)   =       0.00117096 Ry
     internal energy E=F+TS    =     -51.18885846 Ry

     The total energy is F=E-TS. E is the sum of the following terms:
     one-electron contribution =     -24.98508349 Ry
     hartree contribution      =      11.76560723 Ry
     xc contribution           =     -13.50829337 Ry
     ewald contribution        =     -24.46108883 Ry

     convergence has been achieved in  10 iterations

     Forces acting on atoms (cartesian axes, Ry/au):

     atom    1 type  1   force =     0.00000000    0.00000000    0.00000000
     atom    2 type  2   force =    -0.00000000   -0.00000000    0.15529470
     atom    3 type  2   force =    -0.00000000   -0.00000000   -0.15529470
     atom    4 type  2   force =     0.00000000    0.00000000    0.00000000
     The non-local contrib.  to forces
     atom    1 type  1   force =     0.00000000    0.00000000    0.00000000
     atom    2 type  2   force =     0.00000000    0.00000000   -0.15819259
     atom    3 type  2   force =     0.00000000    0.00000000    0.15819259
     atom    4 type  2   force =    -0.00000000   -0.00000000    0.00000000
     The ionic contribution  to forces
     atom    1 type  1   force =    -0.00000004    0.00000003    0.00000000
     atom    2 type  2   force =    -0.00000002   -0.00000000    0.28971432
     atom    3 type  2   force =     0.00000002   -0.00000000   -0.28971432
     atom    4 type  2   force =     0.00000004   -0.00000002    0.00000000
     The local contribution  to forces
     atom    1 type  1   force =     0.00000002   -0.00000001   -0.00000000
     atom    2 type  2   force =     0.00000058   -0.00000034    0.02376095
     atom    3 type  2   force =    -0.00000058   -0.00000034   -0.02376095
     atom    4 type  2   force =     0.00000000    0.00000000    0.00000000
     The core correction contribution to forces
     atom    1 type  1   force =     0.00000000   -0.00000000    0.00000000
     atom    2 type  2   force =     0.00000000    0.00000000    0.00000000
     atom    3 type  2   force =     0.00000000    0.00000000    0.00000000
     atom    4 type  2   force =     0.00000000    0.00000000    0.00000000
     The Hubbard contrib.    to forces
     atom    1 type  1   force =     0.00000000    0.00000000    0.00000000
     atom    2 type  2   force =     0.00000000    0.00000000    0.00000000
     atom    3 type  2   force =     0.00000000    0.00000000    0.00000000
     atom    4 type  2   force =     0.00000000    0.00000000    0.00000000
     The SCF correction term to forces
     atom    1 type  1   force =     0.00000000   -0.00000000   -0.00000000
     atom    2 type  2   force =     0.00000000   -0.00000000    0.00001202
     atom    3 type  2   force =    -0.00000000   -0.00000000   -0.00001202
     atom    4 type  2   force =     0.00000000   -0.00000000   -0.00000000

     Total force =     0.219620     Total SCF correction =     0.000017


     Computing stress (Cartesian axis) and pressure

          total   stress  (Ry/bohr**3)                   (kbar)     P=      360.66
   0.00329060   0.00000000  -0.00000000          484.06        0.00       -0.00
  -0.00000000   0.00329060   0.00000000           -0.00      484.06        0.00
   0.00000000   0.00000000   0.00077399            0.00        0.00      113.86

     Energy error            =      1.4E-01 Ry
     Gradient error          =      1.6E-01 Ry/Bohr
     Cell gradient error     =      3.9E+02 kbar

     number of scf cycles    =   2
     number of bfgs steps    =   1

     enthalpy           old  =     -49.8882856286 Ry
     enthalpy           new  =     -50.0274065265 Ry

     CASE: enthalpy          _new < enthalpy          _old

     new trust radius        =       0.3038939922 bohr
ibrav =      4
 celldm(1) =      5.77135831
 celldm(3) =      1.85162706
Input lattice vectors:
     0.96876061    -0.00000000    -0.00000000
    -0.48438031     0.83897130     0.00000000
    -0.00000000     0.00000000     1.79378337
New lattice vectors in INITIAL alat:
     0.96876061     0.00000000     0.00000000
    -0.48438031     0.83897130     0.00000000
     0.00000000     0.00000000     1.79378337
New lattice vectors in NEW alat (for information only):
     1.00000000     0.00000000     0.00000000
    -0.50000000     0.86602540     0.00000000
     0.00000000     0.00000000     1.85162706
Discrepancy in bohr =     0.000000    0.000000    0.000000
     new conv_thr            =       0.0000000100 Ry

     new unit-cell volume =    308.26077 a.u.^3 (    45.67953 Ang^3 )
     density =      1.77792 g/cm^3

CELL_PARAMETERS (alat=  5.95746588)
   0.968760614   0.000000000   0.000000000
  -0.484380307   0.838971302   0.000000000
   0.000000000   0.000000000   1.793783370

ATOMIC_POSITIONS (crystal)
Si            0.6666666700        0.3333333300        0.0000000000
Li            0.3333333300        0.6666666700        0.6428674891
Li            0.3333333400        0.6666666700        0.3571325109
Li            0.0000000000        0.0000000000        0.0000000000



     Writing config-only to output data dir ./output/SiLi.save/
     NEW-OLD atomic charge density approx. for the potential
     extrapolated charge   11.60540, renormalised to   13.00000

     total cpu time spent up to now is       14.8 secs

     Self-consistent Calculation

     iteration #  1     ecut=    80.00 Ry     beta= 0.70
     Davidson diagonalization with overlap
     ethr =  1.00E-06,  avg # of iterations = 12.0

     total cpu time spent up to now is       16.0 secs

     total energy              =     -50.74315512 Ry
     estimated scf accuracy    <       0.46042933 Ry

     iteration #  2     ecut=    80.00 Ry     beta= 0.70
     Davidson diagonalization with overlap
     ethr =  3.54E-03,  avg # of iterations =  4.2

     total cpu time spent up to now is       16.5 secs

     total energy              =     -50.93461854 Ry
     estimated scf accuracy    <       3.51649281 Ry

     iteration #  3     ecut=    80.00 Ry     beta= 0.70
     Davidson diagonalization with overlap
     ethr =  3.54E-03,  avg # of iterations =  2.1

     total cpu time spent up to now is       17.0 secs

     total energy              =     -51.18424360 Ry
     estimated scf accuracy    <       0.26906809 Ry

     iteration #  4     ecut=    80.00 Ry     beta= 0.70
     Davidson diagonalization with overlap
     ethr =  2.07E-03,  avg # of iterations =  1.4

     total cpu time spent up to now is       17.4 secs

     total energy              =     -51.18047501 Ry
     estimated scf accuracy    <       0.05247261 Ry

     iteration #  5     ecut=    80.00 Ry     beta= 0.70
     Davidson diagonalization with overlap
     ethr =  4.04E-04,  avg # of iterations =  3.0

     total cpu time spent up to now is       17.8 secs

     total energy              =     -51.18874893 Ry
     estimated scf accuracy    <       0.00008393 Ry

     iteration #  6     ecut=    80.00 Ry     beta= 0.70
     Davidson diagonalization with overlap
     ethr =  6.46E-07,  avg # of iterations =  8.4

     total cpu time spent up to now is       18.6 secs

     total energy              =     -51.18881478 Ry
     estimated scf accuracy    <       0.00026042 Ry

     iteration #  7     ecut=    80.00 Ry     beta= 0.70
     Davidson diagonalization with overlap
     ethr =  6.46E-07,  avg # of iterations =  2.0

     total cpu time spent up to now is       19.0 secs

     total energy              =     -51.18886291 Ry
     estimated scf accuracy    <       0.00001504 Ry

     iteration #  8     ecut=    80.00 Ry     beta= 0.70
     Davidson diagonalization with overlap
     ethr =  1.16E-07,  avg # of iterations =  1.0

     total cpu time spent up to now is       19.4 secs

     total energy              =     -51.18886506 Ry
     estimated scf accuracy    <       0.00000002 Ry

     iteration #  9     ecut=    80.00 Ry     beta= 0.70
     Davidson diagonalization with overlap
     ethr =  1.38E-10,  avg # of iterations =  3.5

     total cpu time spent up to now is       19.9 secs

     total energy              =     -51.18886508 Ry
     estimated scf accuracy    <       0.00000002 Ry

     iteration # 10     ecut=    80.00 Ry     beta= 0.70
     Davidson diagonalization with overlap
     ethr =  1.38E-10,  avg # of iterations =  1.0

     total cpu time spent up to now is       20.3 secs

     End of self-consistent calculation

          k = 0.0000 0.0000 0.0000 (  4685 PWs)   bands (ev):

   -41.7032 -41.5213 -40.9831  -3.8274   1.1809   3.7893   9.5118   9.5118
    12.6081  12.6081  13.0936

          k = 0.0000 0.0000 0.1115 (  4698 PWs)   bands (ev):

   -41.7014 -41.5237 -40.9825  -3.8052   0.9004   4.3517   9.5165   9.5165
    11.5776  12.6700  12.6700

          k = 0.0000 0.0000 0.2230 (  4650 PWs)   bands (ev):

   -41.6984 -41.5276 -40.9815  -3.7679   0.5547   5.3281   9.5241   9.5241
     9.8971  12.7821  12.7821

          k = 0.0000 0.1192 0.0000 (  4679 PWs)   bands (ev):

   -41.7013 -41.5194 -40.9821  -3.7121   1.3600   3.8837   8.4924   8.8178
    12.5933  13.5499  13.6035

          k = 0.0000 0.1192 0.1115 (  4670 PWs)   bands (ev):

   -41.6997 -41.5215 -40.9816  -3.6897   1.0661   4.4665   8.4933   8.8290
    11.5700  13.1086  13.6692

          k = 0.0000 0.1192 0.2230 (  4677 PWs)   bands (ev):

   -41.6970 -41.5251 -40.9807  -3.6521   0.7096   5.4807   8.4512   8.8475
     9.9962  13.1206  13.8076

          k = 0.0000 0.2384 0.0000 (  4643 PWs)   bands (ev):

   -41.6963 -41.5143 -40.9796  -3.3690   1.8939   4.1086   6.6297   7.7468
    12.7333  13.3816  13.7187

          k = 0.0000 0.2384 0.1115 (  4653 PWs)   bands (ev):

   -41.6951 -41.5159 -40.9792  -3.3462   1.5565   4.7409   6.6310   7.7625
    11.7385  12.7622  13.6819

          k = 0.0000 0.2384 0.2230 (  4662 PWs)   bands (ev):

   -41.6930 -41.5186 -40.9786  -3.3079   1.1680   5.8604   6.5446   7.7883
    10.2330  12.2793  13.6561

          k = 0.0000 0.3576 0.0000 (  4663 PWs)   bands (ev):

   -41.6902 -41.5080 -40.9765  -2.8207   2.7669   3.8128   5.5325   6.8927
    10.6951  11.7619  13.2141

          k = 0.0000 0.3576 0.1115 (  4659 PWs)   bands (ev):

   -41.6894 -41.5090 -40.9763  -2.7977   2.3329   4.1626   5.9208   6.9103
    10.2062  12.0328  12.8508

          k = 0.0000 0.3576 0.2230 (  4651 PWs)   bands (ev):

   -41.6882 -41.5106 -40.9760  -2.7591   1.9011   4.4109   6.7723   6.9395
     9.8339  10.7395  13.7067

          k = 0.0000 0.4768 0.0000 (  4638 PWs)   bands (ev):

   -41.6852 -41.5029 -40.9740  -2.1752   2.5637   3.9016   5.9665   6.3634
     8.4445  10.0062  13.7166

          k = 0.0000 0.4768 0.1115 (  4636 PWs)   bands (ev):

   -41.6849 -41.5033 -40.9740  -2.1533   2.5940   3.4784   6.3819   6.6274
     8.2074  10.5867  13.1083

          k = 0.0000 0.4768 0.2230 (  4645 PWs)   bands (ev):

   -41.6843 -41.5040 -40.9738  -2.1168   2.6844   2.9714   6.4127   7.2241
     8.5635  11.2785  12.0200

          k = 0.0000-0.5960 0.0000 (  4634 PWs)   bands (ev):

   -41.6834 -41.5009 -40.9731  -1.8203   1.9337   4.7106   6.1850   6.4080
     7.2605   9.1703  14.0376

          k = 0.0000-0.5960 0.1115 (  4620 PWs)   bands (ev):

   -41.6832 -41.5011 -40.9731  -1.8002   2.0014   4.0665   6.2038   6.8163
     7.6614   9.5825  13.2049

          k = 0.0000-0.5960 0.2230 (  4626 PWs)   bands (ev):

   -41.6828 -41.5015 -40.9730  -1.7669   2.1588   3.3791   6.2351   6.6240
     9.3522  10.2821  12.2457

          k = 0.1032 0.1788 0.0000 (  4663 PWs)   bands (ev):

   -41.6978 -41.5159 -40.9804  -3.4821   1.7167   4.0563   7.1466   7.9394
    12.9309  13.7487  14.7585

          k = 0.1032 0.1788 0.1115 (  4658 PWs)   bands (ev):

   -41.6965 -41.5177 -40.9800  -3.4594   1.3947   4.6788   7.1609   7.9203
    11.8144  13.5404  13.7321

          k = 0.1032 0.1788 0.2230 (  4667 PWs)   bands (ev):

   -41.6942 -41.5206 -40.9792  -3.4212   1.0167   5.7752   7.1760   7.7853
    10.3096  13.1471  13.5767

          k = 0.1032 0.2980 0.0000 (  4652 PWs)   bands (ev):

   -41.6923 -41.5102 -40.9776  -3.0290   2.4225   4.2104   5.4807   7.1191
    11.9882  12.7700  13.3724

          k = 0.1032 0.2980 0.1115 (  4664 PWs)   bands (ev):

   -41.6914 -41.5114 -40.9773  -3.0059   2.0360   4.7660   5.6171   7.1204
    11.2999  12.2130  13.5600

          k = 0.1032 0.2980 0.2230 (  4658 PWs)   bands (ev):

   -41.6899 -41.5133 -40.9769  -2.9671   1.6183   5.2043   6.3476   7.0070
    10.6671  10.8791  13.1736

          k = 0.1032 0.4172 0.0000 (  4650 PWs)   bands (ev):

   -41.6868 -41.5045 -40.9748  -2.3985   3.1606   3.4444   5.2412   6.6819
     9.5599  10.8747  13.4632

          k = 0.1032 0.4172 0.1115 (  4644 PWs)   bands (ev):

   -41.6863 -41.5051 -40.9747  -2.3757   2.8498   3.4174   5.7259   6.8556
     9.0920  11.5314  12.8520

          k = 0.1032 0.4172 0.2230 (  4639 PWs)   bands (ev):

   -41.6855 -41.5060 -40.9745  -2.3373   2.4575   3.4352   6.2043   7.3574
     8.7880  11.3181  12.4253

          k = 0.1032 0.5364 0.0000 (  4645 PWs)   bands (ev):

   -41.6834 -41.5009 -40.9731  -1.8040   2.0247   4.5815   5.4376   6.8052
     7.6961   9.4782  13.3762

          k = 0.1032 0.5364 0.1115 (  4637 PWs)   bands (ev):

   -41.6832 -41.5011 -40.9731  -1.7828   2.0788   3.9691   5.7278   7.1069
     7.7896   9.9605  12.5664

          k = 0.1032 0.5364 0.2230 (  4628 PWs)   bands (ev):

   -41.6828 -41.5015 -40.9730  -1.7475   2.2024   3.3464   5.9242   6.8202
     9.0475  10.7827  12.1510

          k = 0.2064 0.3576 0.0000 (  4657 PWs)   bands (ev):

   -41.6874 -41.5051 -40.9751  -2.4713   3.2866   3.5872   4.7096   6.7767
    10.4375  11.4519  12.4913

          k = 0.2064 0.3576 0.1115 (  4662 PWs)   bands (ev):

   -41.6868 -41.5057 -40.9750  -2.4480   2.7982   3.6837   5.2636   6.9413
     9.6622  12.0223  12.6038

          k = 0.2064 0.3576 0.2230 (  4646 PWs)   bands (ev):

   -41.6860 -41.5068 -40.9747  -2.4089   2.3492   3.7258   5.9025   7.3672
     9.0576  11.3917  12.0962

          k = 0.2064 0.4768 0.0000 (  4631 PWs)   bands (ev):

   -41.6834 -41.5009 -40.9731  -1.7775   2.2075   4.4129   4.7399   6.9542
     8.6177   9.9689  12.6468

          k = 0.2064 0.4768 0.1115 (  4642 PWs)   bands (ev):

   -41.6832 -41.5011 -40.9731  -1.7544   2.2322   3.8035   5.1743   7.4434
     8.0285  10.7023  11.6175

          k = 0.2064 0.4768 0.2230 (  4644 PWs)   bands (ev):

   -41.6828 -41.5016 -40.9730  -1.7156   2.2839   3.2921   5.4899   7.2211
     8.5986  11.1431  12.1165

          k = 0.2064 0.5960 0.0000 (  4636 PWs)   bands (ev):

   -41.6819 -41.4993 -40.9723  -1.3587   1.5212   4.7528   5.2317   7.2593
     7.5119   9.2122  12.5288

          k = 0.2064 0.5960 0.1115 (  4634 PWs)   bands (ev):

   -41.6818 -41.4994 -40.9723  -1.3359   1.5480   4.4245   5.1525   6.9906
     8.2018   9.6906  11.3553

          k = 0.2064 0.5960 0.2230 (  4642 PWs)   bands (ev):

   -41.6816 -41.4995 -40.9724  -1.2980   1.5973   3.9249   5.3418   6.3574
     9.8445  10.0858  11.6957

          k = 0.3097 0.5364 0.0000 (  4630 PWs)   bands (ev):

   -41.6813 -41.4987 -40.9720  -1.1159   1.2573   4.4973   5.4687   7.4410
     7.7261   9.1095  10.3152

          k = 0.3097 0.5364 0.1115 (  4627 PWs)   bands (ev):

   -41.6813 -41.4987 -40.9721  -1.0906   1.2672   4.5109   5.0608   6.9599
     8.3420  10.0330  10.4389

          k = 0.3097 0.5364 0.2230 (  4651 PWs)   bands (ev):

   -41.6812 -41.4988 -40.9721  -1.0480   1.2838   4.2479   5.1060   6.1199
     9.5998  10.5289  11.8940

     the Fermi energy is     5.8560 ev

!    total energy              =     -51.18886508 Ry
     estimated scf accuracy    <          5.3E-10 Ry
     smearing contrib. (-TS)   =       0.00014997 Ry
     internal energy E=F+TS    =     -51.18901505 Ry

     The total energy is F=E-TS. E is the sum of the following terms:
     one-electron contribution =     -23.38109633 Ry
     hartree contribution      =      11.42579886 Ry
     xc contribution           =     -13.61564504 Ry
     ewald contribution        =     -25.61807254 Ry

     convergence has been achieved in  10 iterations

     Forces acting on atoms (cartesian axes, Ry/au):

     atom    1 type  1   force =     0.00000000   -0.00000000    0.00000000
     atom    2 type  2   force =    -0.00000000    0.00000000    0.13082249
     atom    3 type  2   force =    -0.00000000   -0.00000000   -0.13082249
     atom    4 type  2   force =    -0.00000000    0.00000000    0.00000000
     The non-local contrib.  to forces
     atom    1 type  1   force =     0.00000000    0.00000000    0.00000000
     atom    2 type  2   force =    -0.00000000   -0.00000000   -0.17388935
     atom    3 type  2   force =     0.00000000   -0.00000000    0.17388935
     atom    4 type  2   force =     0.00000000    0.00000000    0.00000000
     The ionic contribution  to forces
     atom    1 type  1   force =    -0.00000005    0.00000003   -0.00000000
     atom    2 type  2   force =    -0.00000002   -0.00000000   -0.17552729
     atom    3 type  2   force =     0.00000002   -0.00000000    0.17552729
     atom    4 type  2   force =     0.00000004   -0.00000002   -0.00000000
     The local contribution  to forces
     atom    1 type  1   force =     0.00000002   -0.00000001    0.00000000
     atom    2 type  2   force =     0.00000058   -0.00000033    0.48025322
     atom    3 type  2   force =    -0.00000058   -0.00000033   -0.48025322
     atom    4 type  2   force =     0.00000000    0.00000000    0.00000000
     The core correction contribution to forces
     atom    1 type  1   force =     0.00000000   -0.00000000    0.00000000
     atom    2 type  2   force =     0.00000000    0.00000000    0.00000000
     atom    3 type  2   force =     0.00000000    0.00000000    0.00000000
     atom    4 type  2   force =     0.00000000    0.00000000    0.00000000
     The Hubbard contrib.    to forces
     atom    1 type  1   force =     0.00000000    0.00000000    0.00000000
     atom    2 type  2   force =     0.00000000    0.00000000    0.00000000
     atom    3 type  2   force =     0.00000000    0.00000000    0.00000000
     atom    4 type  2   force =     0.00000000    0.00000000    0.00000000
     The SCF correction term to forces
     atom    1 type  1   force =     0.00000000   -0.00000000   -0.00000000
     atom    2 type  2   force =     0.00000000   -0.00000000   -0.00001409
     atom    3 type  2   force =    -0.00000000   -0.00000000    0.00001409
     atom    4 type  2   force =     0.00000000   -0.00000000   -0.00000000

     Total force =     0.185011     Total SCF correction =     0.000020


     Computing stress (Cartesian axis) and pressure

          total   stress  (Ry/bohr**3)                   (kbar)     P=      448.22
   0.00399585   0.00000000   0.00000000          587.81        0.00        0.00
   0.00000000   0.00399585   0.00000000            0.00      587.81        0.00
   0.00000000   0.00000000   0.00114917            0.00        0.00      169.05

     Energy error            =      1.1E-01 Ry
     Gradient error          =      1.3E-01 Ry/Bohr
     Cell gradient error     =      3.3E+02 kbar

     number of scf cycles    =   3
     number of bfgs steps    =   2

     enthalpy           old  =     -50.0274065265 Ry
     enthalpy           new  =     -50.1411080064 Ry

     CASE: enthalpy          _new < enthalpy          _old

     new trust radius        =       0.4719900439 bohr
ibrav =      4
 celldm(1) =      5.80260961
 celldm(3) =      1.59411097
Input lattice vectors:
     0.97400635     0.00000000     0.00000000
    -0.48700318     0.84351425    -0.00000000
     0.00000000    -0.00000000     1.55267421
New lattice vectors in INITIAL alat:
     0.97400635     0.00000000     0.00000000
    -0.48700318     0.84351425     0.00000000
     0.00000000     0.00000000     1.55267421
New lattice vectors in NEW alat (for information only):
     1.00000000     0.00000000     0.00000000
    -0.50000000     0.86602540     0.00000000
     0.00000000     0.00000000     1.59411097
Discrepancy in bohr =     0.000000    0.000000    0.000000
     new conv_thr            =       0.0000000100 Ry

     new unit-cell volume =    269.72378 a.u.^3 (    39.96894 Ang^3 )
     density =      2.03194 g/cm^3

CELL_PARAMETERS (alat=  5.95746588)
   0.974006353   0.000000000   0.000000000
  -0.487003176   0.843514245   0.000000000
   0.000000000   0.000000000   1.552674214

ATOMIC_POSITIONS (crystal)
Si            0.6666666700        0.3333333300        0.0000000000
Li            0.3333333300        0.6666666700        0.6637498181
Li            0.3333333400        0.6666666700        0.3362501819
Li            0.0000000000        0.0000000000        0.0000000000



     Writing config-only to output data dir ./output/SiLi.save/
     NEW-OLD atomic charge density approx. for the potential
     extrapolated charge   11.14466, renormalised to   13.00000

     total cpu time spent up to now is       21.8 secs

     Self-consistent Calculation

     iteration #  1     ecut=    80.00 Ry     beta= 0.70
     Davidson diagonalization with overlap
     ethr =  1.00E-06,  avg # of iterations = 11.9

     total cpu time spent up to now is       23.0 secs

     total energy              =     -50.87920120 Ry
     estimated scf accuracy    <       0.31172715 Ry

     iteration #  2     ecut=    80.00 Ry     beta= 0.70
     Davidson diagonalization with overlap
     ethr =  2.40E-03,  avg # of iterations =  3.3

     total cpu time spent up to now is       23.5 secs

     total energy              =     -51.08085084 Ry
     estimated scf accuracy    <       1.31334248 Ry

     iteration #  3     ecut=    80.00 Ry     beta= 0.70
     Davidson diagonalization with overlap
     ethr =  2.40E-03,  avg # of iterations =  2.0

     total cpu time spent up to now is       23.9 secs

     total energy              =     -51.18209942 Ry
     estimated scf accuracy    <       0.08116927 Ry

     iteration #  4     ecut=    80.00 Ry     beta= 0.70
     Davidson diagonalization with overlap
     ethr =  6.24E-04,  avg # of iterations =  1.8

     total cpu time spent up to now is       24.3 secs

     total energy              =     -51.18485047 Ry
     estimated scf accuracy    <       0.00881399 Ry

     iteration #  5     ecut=    80.00 Ry     beta= 0.70
     Davidson diagonalization with overlap
     ethr =  6.78E-05,  avg # of iterations =  4.0

     total cpu time spent up to now is       24.8 secs

     total energy              =     -51.18706149 Ry
     estimated scf accuracy    <       0.00017369 Ry

     iteration #  6     ecut=    80.00 Ry     beta= 0.70
     Davidson diagonalization with overlap
     c_bands:  1 eigenvalues not converged
     ethr =  1.34E-06,  avg # of iterations =  5.2

     total cpu time spent up to now is       25.3 secs

     total energy              =     -51.18709438 Ry
     estimated scf accuracy    <       0.00000773 Ry

     iteration #  7     ecut=    80.00 Ry     beta= 0.70
     Davidson diagonalization with overlap
     ethr =  5.94E-08,  avg # of iterations =  2.3

     total cpu time spent up to now is       25.7 secs

     total energy              =     -51.18709627 Ry
     estimated scf accuracy    <       0.00000019 Ry

     iteration #  8     ecut=    80.00 Ry     beta= 0.70
     Davidson diagonalization with overlap
     ethr =  1.49E-09,  avg # of iterations =  2.3

     total cpu time spent up to now is       26.1 secs

     End of self-consistent calculation

          k = 0.0000 0.0000 0.0000 (  4685 PWs)   bands (ev):

   -40.5302 -39.9558 -39.7650  -2.8079   2.8398   5.2930  10.4615  10.4615
    12.7990  12.7990  17.6912

          k = 0.0000 0.0000 0.1288 (  4698 PWs)   bands (ev):

   -40.5255 -39.9722 -39.7534  -2.7526   2.2515   6.2771  10.4815  10.4815
    12.9255  12.9255  15.7307

          k = 0.0000 0.0000 0.2576 (  4650 PWs)   bands (ev):

   -40.5176 -39.9961 -39.7375  -2.6553   1.6186   7.8618  10.5144  10.5144
    13.1754  13.1754  13.3050

          k = 0.0000 0.1186 0.0000 (  4679 PWs)   bands (ev):

   -40.5277 -39.9546 -39.7640  -2.7027   2.9961   5.3621   9.3165   9.6254
    13.3962  13.9369  17.6587

          k = 0.0000 0.1186 0.1288 (  4670 PWs)   bands (ev):

   -40.5233 -39.9696 -39.7533  -2.6469   2.3895   6.3683   9.3538   9.6661
    13.3581  14.0430  16.0046

          k = 0.0000 0.1186 0.2576 (  4677 PWs)   bands (ev):

   -40.5160 -39.9917 -39.7386  -2.5486   1.7464   8.0055   9.3817   9.7347
    12.6712  14.2939  14.6147

          k = 0.0000 0.2371 0.0000 (  4643 PWs)   bands (ev):

   -40.5210 -39.9512 -39.7614  -2.3888   3.4609   5.4013   7.6312   8.4741
    14.0262  14.4838  15.5756

          k = 0.0000 0.2371 0.1288 (  4653 PWs)   bands (ev):

   -40.5176 -39.9627 -39.7533  -2.3315   2.7947   6.3240   7.8120   8.5250
    13.5140  13.8458  15.3374

          k = 0.0000 0.2371 0.2576 (  4662 PWs)   bands (ev):

   -40.5119 -39.9800 -39.7419  -2.2307   2.1254   7.1942   8.6124   8.6362
    12.6694  12.8959  14.6833

          k = 0.0000 0.3557 0.0000 (  4663 PWs)   bands (ev):

   -40.5128 -39.9471 -39.7581  -1.8842   4.2123   4.5550   7.1873   7.5896
    11.9482  13.0690  14.8676

          k = 0.0000 0.3557 0.1288 (  4659 PWs)   bands (ev):

   -40.5105 -39.9541 -39.7535  -1.8253   3.3991   5.0292   7.6446   7.9590
    11.1254  13.9598  14.7502

          k = 0.0000 0.3557 0.2576 (  4651 PWs)   bands (ev):

   -40.5067 -39.9650 -39.7465  -1.7216   2.7264   5.2629   7.7398   9.3650
    10.5599  13.1172  13.7644

          k = 0.0000 0.4742 0.0000 (  4638 PWs)   bands (ev):

   -40.5062 -39.9437 -39.7555  -1.2877   3.2552   5.1480   7.0477   7.8729
     9.9231  11.1874  15.2933

          k = 0.0000 0.4742 0.1288 (  4636 PWs)   bands (ev):

   -40.5048 -39.9470 -39.7537  -1.2284   3.2898   4.5216   7.1047   8.7417
     9.4128  12.2649  14.9181

          k = 0.0000 0.4742 0.2576 (  4645 PWs)   bands (ev):

   -40.5026 -39.9522 -39.7508  -1.1248   3.3397   3.8484   7.2035   8.5222
    10.8123  13.1862  13.5273

          k = 0.0000-0.5928 0.0000 (  4634 PWs)   bands (ev):

   -40.5037 -39.9424 -39.7545  -0.9599   2.6512   5.7340   6.8658   8.5727
     8.9715  10.1011  15.4893

          k = 0.0000-0.5928 0.1288 (  4620 PWs)   bands (ev):

   -40.5027 -39.9442 -39.7538  -0.9017   2.7449   4.9303   6.9234   8.2709
    10.0302  10.9303  13.9371

          k = 0.0000-0.5928 0.2576 (  4626 PWs)   bands (ev):

   -40.5010 -39.9471 -39.7526  -0.8007   3.0127   3.9414   7.0233   7.7774
    12.1686  12.4605  12.9909

          k = 0.1027 0.1778 0.0000 (  4663 PWs)   bands (ev):

   -40.5231 -39.9523 -39.7622  -2.4924   3.3070   5.4489   7.9479   8.7841
    14.1252  15.1088  15.4619

          k = 0.1027 0.1778 0.1288 (  4658 PWs)   bands (ev):

   -40.5194 -39.9649 -39.7533  -2.4356   2.6622   6.4659   8.0065   8.8332
    13.9593  14.3630  15.3377

          k = 0.1027 0.1778 0.2576 (  4667 PWs)   bands (ev):

   -40.5132 -39.9837 -39.7408  -2.3355   2.0007   7.8756   8.2971   8.8646
    12.9371  13.5802  14.7700

          k = 0.1027 0.2964 0.0000 (  4652 PWs)   bands (ev):

   -40.5157 -39.9485 -39.7592  -2.0761   3.9193   5.1656   6.6061   8.1161
    13.0559  14.3820  14.9218

          k = 0.1027 0.2964 0.1288 (  4664 PWs)   bands (ev):

   -40.5130 -39.9571 -39.7534  -2.0176   3.1859   5.7346   7.0204   8.3503
    12.1161  14.4053  14.5975

          k = 0.1027 0.2964 0.2576 (  4658 PWs)   bands (ev):

   -40.5085 -39.9703 -39.7448  -1.9145   2.4995   6.0362   7.6407   9.1859
    11.3151  13.3373  13.8166

          k = 0.1027 0.4149 0.0000 (  4650 PWs)   bands (ev):

   -40.5083 -39.9447 -39.7563  -1.4943   3.8564   4.7888   6.3286   8.0949
    10.8298  12.3448  15.2189

          k = 0.1027 0.4149 0.1288 (  4644 PWs)   bands (ev):

   -40.5066 -39.9492 -39.7536  -1.4343   3.6620   4.4144   6.7065   8.7701
    10.0390  13.4767  13.7926

          k = 0.1027 0.4149 0.2576 (  4639 PWs)   bands (ev):

   -40.5039 -39.9563 -39.7494  -1.3288   3.1804   4.3110   7.0341   9.1240
    10.3569  13.0806  13.8827

          k = 0.1027 0.5335 0.0000 (  4645 PWs)   bands (ev):

   -40.5037 -39.9424 -39.7545  -0.9462   2.7680   5.6839   6.2140   8.7281
     9.2332  10.7330  14.5270

          k = 0.1027 0.5335 0.1288 (  4637 PWs)   bands (ev):

   -40.5027 -39.9442 -39.7538  -0.8861   2.8470   4.8605   6.4539   8.5303
     9.8662  11.6825  13.4486

          k = 0.1027 0.5335 0.2576 (  4628 PWs)   bands (ev):

   -40.5010 -39.9472 -39.7526  -0.7814   3.0683   3.9399   6.7067   7.8291
    11.6508  12.7381  13.4063

          k = 0.2053 0.3557 0.0000 (  4657 PWs)   bands (ev):

   -40.5091 -39.9451 -39.7566  -1.5615   4.2931   4.6645   5.7015   8.2541
    11.4285  13.3635  14.0865

          k = 0.2053 0.3557 0.1288 (  4662 PWs)   bands (ev):

   -40.5073 -39.9501 -39.7535  -1.5010   3.7634   4.5422   6.2640   8.8446
    10.4609  13.3761  14.6275

          k = 0.2053 0.3557 0.2576 (  4646 PWs)   bands (ev):

   -40.5044 -39.9578 -39.7488  -1.3946   3.1113   4.5837   6.7644   9.4200
    10.1762  12.9122  14.2454

          k = 0.2053 0.4742 0.0000 (  4631 PWs)   bands (ev):

   -40.5038 -39.9424 -39.7545  -0.9239   3.0148   5.3984   5.6100   8.7929
     9.7593  11.8493  13.2829

          k = 0.2053 0.4742 0.1288 (  4642 PWs)   bands (ev):

   -40.5027 -39.9443 -39.7537  -0.8607   3.0607   4.6783   5.9100   8.8776
     9.7392  12.7364  13.0318

          k = 0.2053 0.4742 0.2576 (  4644 PWs)   bands (ev):

   -40.5010 -39.9473 -39.7525  -0.7497   3.1759   3.9266   6.2690   7.8880
    11.2668  12.4549  14.5100

          k = 0.2053 0.5928 0.0000 (  4636 PWs)   bands (ev):

   -40.5017 -39.9413 -39.7537  -0.5463   2.3789   5.3157   6.2344   8.8594
     9.2817  10.9891  13.0430

          k = 0.2053 0.5928 0.1288 (  4634 PWs)   bands (ev):

   -40.5010 -39.9420 -39.7538  -0.4807   2.4289   5.1205   5.8314   8.1040
    10.5498  11.8268  12.6025

          k = 0.2053 0.5928 0.2576 (  4642 PWs)   bands (ev):

   -40.4997 -39.9432 -39.7540  -0.3660   2.5346   4.4256   6.0758   7.1279
    12.0004  12.8089  13.2568

          k = 0.3080 0.5335 0.0000 (  4630 PWs)   bands (ev):

   -40.5010 -39.9409 -39.7534  -0.3376   2.1911   4.9706   6.4859   8.7679
     9.3929  11.3619  12.4148

          k = 0.3080 0.5335 0.1288 (  4627 PWs)   bands (ev):

   -40.5003 -39.9412 -39.7538  -0.2660   2.2139   5.0583   5.8101   7.9006
    10.6606  12.1555  12.6212

          k = 0.3080 0.5335 0.2576 (  4651 PWs)   bands (ev):

   -40.4992 -39.9416 -39.7546  -0.1394   2.2551   4.7450   5.7934   6.7661
    11.8175  12.8310  14.0579

     the Fermi energy is     6.9298 ev

!    total energy              =     -51.18709632 Ry
     estimated scf accuracy    <          3.8E-09 Ry
     smearing contrib. (-TS)   =       0.00005167 Ry
     internal energy E=F+TS    =     -51.18714799 Ry

     The total energy is F=E-TS. E is the sum of the following terms:
     one-electron contribution =     -21.29515544 Ry
     hartree contribution      =      11.01927258 Ry
     xc contribution           =     -13.77252518 Ry
     ewald contribution        =     -27.13873995 Ry

     convergence has been achieved in   8 iterations

     Forces acting on atoms (cartesian axes, Ry/au):

     atom    1 type  1   force =     0.00000000   -0.00000000    0.00000000
     atom    2 type  2   force =     0.00000000   -0.00000000    0.08210604
     atom    3 type  2   force =     0.00000000    0.00000000   -0.08210604
     atom    4 type  2   force =     0.00000000    0.00000000    0.00000000
     The non-local contrib.  to forces
     atom    1 type  1   force =     0.00000000    0.00000000    0.00000000
     atom    2 type  2   force =     0.00000000   -0.00000000   -0.23471054
     atom    3 type  2   force =    -0.00000000    0.00000000    0.23471054
     atom    4 type  2   force =     0.00000000    0.00000000    0.00000000
     The ionic contribution  to forces
     atom    1 type  1   force =    -0.00000005    0.00000004    0.00000000
     atom    2 type  2   force =    -0.00000001   -0.00000001   -0.56976847
     atom    3 type  2   force =     0.00000002   -0.00000001    0.56976847
     atom    4 type  2   force =     0.00000004   -0.00000002    0.00000000
     The local contribution  to forces
     atom    1 type  1   force =     0.00000003   -0.00000001    0.00000000
     atom    2 type  2   force =     0.00000058   -0.00000033    0.88661473
     atom    3 type  2   force =    -0.00000058   -0.00000033   -0.88661473
     atom    4 type  2   force =     0.00000000    0.00000000   -0.00000000
     The core correction contribution to forces
     atom    1 type  1   force =     0.00000000   -0.00000000   -0.00000000
     atom    2 type  2   force =     0.00000000    0.00000000    0.00000000
     atom    3 type  2   force =     0.00000000    0.00000000    0.00000000
     atom    4 type  2   force =     0.00000000    0.00000000    0.00000000
     The Hubbard contrib.    to forces
     atom    1 type  1   force =     0.00000000    0.00000000    0.00000000
     atom    2 type  2   force =     0.00000000    0.00000000    0.00000000
     atom    3 type  2   force =     0.00000000    0.00000000    0.00000000
     atom    4 type  2   force =     0.00000000    0.00000000    0.00000000
     The SCF correction term to forces
     atom    1 type  1   force =    -0.00000000    0.00000000    0.00000000
     atom    2 type  2   force =     0.00000000   -0.00000000   -0.00002969
     atom    3 type  2   force =    -0.00000000   -0.00000000    0.00002969
     atom    4 type  2   force =     0.00000000   -0.00000000    0.00000000

     Total force =     0.116115     Total SCF correction =     0.000042


     Computing stress (Cartesian axis) and pressure

          total   stress  (Ry/bohr**3)                   (kbar)     P=      592.95
   0.00504698   0.00000000   0.00000000          742.44        0.00        0.00
   0.00000000   0.00504698   0.00000000            0.00      742.44        0.00
   0.00000000  -0.00000000   0.00199848            0.00       -0.00      293.99

     Energy error            =      1.3E-01 Ry
     Gradient error          =      8.2E-02 Ry/Bohr
     Cell gradient error     =      2.4E+02 kbar

     number of scf cycles    =   4
     number of bfgs steps    =   3

     enthalpy           old  =     -50.1411080064 Ry
     enthalpy           new  =     -50.2703238169 Ry

     CASE: enthalpy          _new < enthalpy          _old

     new trust radius        =       0.7650930182 bohr
ibrav =      4
 celldm(1) =      6.02062400
 celldm(3) =      1.17851643
Input lattice vectors:
     1.01060151    -0.00000000     0.00000000
    -0.50530075     0.87520658    -0.00000000
     0.00000000    -0.00000000     1.19101048
New lattice vectors in INITIAL alat:
     1.01060151     0.00000000     0.00000000
    -0.50530075     0.87520658     0.00000000
     0.00000000     0.00000000     1.19101048
New lattice vectors in NEW alat (for information only):
     1.00000000     0.00000000     0.00000000
    -0.50000000     0.86602540     0.00000000
     0.00000000     0.00000000     1.17851643
Discrepancy in bohr =     0.000000    0.000000    0.000000
     new conv_thr            =       0.0000000082 Ry

     new unit-cell volume =    222.73619 a.u.^3 (    33.00610 Ang^3 )
     density =      2.46059 g/cm^3

CELL_PARAMETERS (alat=  5.95746588)
   1.010601508   0.000000000   0.000000000
  -0.505300754   0.875206579   0.000000000
   0.000000000   0.000000000   1.191010479

ATOMIC_POSITIONS (crystal)
Si            0.6666666700        0.3333333300        0.0000000000
Li            0.3333333300        0.6666666700        0.6945464435
Li            0.3333333400        0.6666666700        0.3054535565
Li            0.0000000000        0.0000000000        0.0000000000



     Writing config-only to output data dir ./output/SiLi.save/
     NEW-OLD atomic charge density approx. for the potential

     negative rho (up, down):  2.774E-05 0.000E+00
     extrapolated charge   10.26058, renormalised to   13.00000

     total cpu time spent up to now is       27.6 secs

     Self-consistent Calculation

     iteration #  1     ecut=    80.00 Ry     beta= 0.70
     Davidson diagonalization with overlap
     c_bands:  1 eigenvalues not converged
     c_bands:  1 eigenvalues not converged
     ethr =  1.00E-06,  avg # of iterations = 13.0

     total cpu time spent up to now is       28.9 secs

     total energy              =     -50.88954811 Ry
     estimated scf accuracy    <       0.25769022 Ry

     iteration #  2     ecut=    80.00 Ry     beta= 0.70
     Davidson diagonalization with overlap
     ethr =  1.98E-03,  avg # of iterations =  2.1

     total cpu time spent up to now is       29.3 secs

     total energy              =     -51.09883845 Ry
     estimated scf accuracy    <       0.20376645 Ry

     iteration #  3     ecut=    80.00 Ry     beta= 0.70
     Davidson diagonalization with overlap
     ethr =  1.57E-03,  avg # of iterations =  1.3

     total cpu time spent up to now is       29.7 secs

     total energy              =     -51.11216319 Ry
     estimated scf accuracy    <       0.01491301 Ry

     iteration #  4     ecut=    80.00 Ry     beta= 0.70
     Davidson diagonalization with overlap
     ethr =  1.15E-04,  avg # of iterations =  2.4

     total cpu time spent up to now is       30.1 secs

     total energy              =     -51.11435463 Ry
     estimated scf accuracy    <       0.00018105 Ry

     iteration #  5     ecut=    80.00 Ry     beta= 0.70
     Davidson diagonalization with overlap
     ethr =  1.39E-06,  avg # of iterations =  5.5

     total cpu time spent up to now is       30.6 secs

     total energy              =     -51.11439933 Ry
     estimated scf accuracy    <       0.00001819 Ry

     iteration #  6     ecut=    80.00 Ry     beta= 0.70
     Davidson diagonalization with overlap
     ethr =  1.40E-07,  avg # of iterations =  2.0

     total cpu time spent up to now is       31.0 secs

     total energy              =     -51.11440235 Ry
     estimated scf accuracy    <       0.00000010 Ry

     iteration #  7     ecut=    80.00 Ry     beta= 0.70
     Davidson diagonalization with overlap
     ethr =  7.69E-10,  avg # of iterations =  2.6

     total cpu time spent up to now is       31.4 secs

     End of self-consistent calculation

          k = 0.0000 0.0000 0.0000 (  4685 PWs)   bands (ev):

   -39.2005 -37.8314 -37.3941  -1.0394   7.1942   8.2291  11.0054  11.0054
    12.1119  12.1119  19.2563

          k = 0.0000 0.0000 0.1679 (  4698 PWs)   bands (ev):

   -39.1730 -37.8868 -37.3691  -0.8104   5.0335  11.0355  11.1781  11.1781
    12.3959  12.3959  19.2457

          k = 0.0000 0.0000 0.3358 (  4650 PWs)   bands (ev):

   -39.1248 -37.9719 -37.3368  -0.3120   3.3426  11.4882  11.4882  13.0728
    13.0728  14.7155  16.7515

          k = 0.0000 0.1143 0.0000 (  4679 PWs)   bands (ev):

   -39.1972 -37.8307 -37.3949  -0.9679   7.2971   8.1139   9.8017   9.8812
    13.4131  13.5635  19.3182

          k = 0.0000 0.1143 0.1679 (  4670 PWs)   bands (ev):

   -39.1703 -37.8835 -37.3718  -0.7372   5.1191   9.6917  10.0978  11.1816
    13.6962  13.7901  17.4738

          k = 0.0000 0.1143 0.3358 (  4677 PWs)   bands (ev):

   -39.1234 -37.9650 -37.3417  -0.2354   3.4323  10.1997  10.5229  13.6848
    14.3476  14.9777  15.8976

          k = 0.0000 0.2285 0.0000 (  4643 PWs)   bands (ev):

   -39.1883 -37.8289 -37.3970  -0.7563   7.1023   7.6011   8.6760   9.3634
    14.7530  15.7118  17.3206

          k = 0.0000 0.2285 0.1679 (  4653 PWs)   bands (ev):

   -39.1632 -37.8747 -37.3791  -0.5206   5.3399   7.9170   8.9047  11.4604
    15.0379  15.2750  15.7212

          k = 0.0000 0.2285 0.3358 (  4662 PWs)   bands (ev):

   -39.1198 -37.9466 -37.3552  -0.0087   3.6977   8.3430   9.3642  13.2090
    14.2974  14.8556  16.2038

          k = 0.0000 0.3428 0.0000 (  4663 PWs)   bands (ev):

   -39.1774 -37.8267 -37.3995  -0.4259   5.6495   7.7963   8.0795   9.8432
    15.1088  15.2718  17.3924

          k = 0.0000 0.3428 0.1679 (  4659 PWs)   bands (ev):

   -39.1545 -37.8635 -37.3884  -0.1818   5.3528   6.7815   8.0302  11.5700
    13.6669  15.9616  19.2198

          k = 0.0000 0.3428 0.3358 (  4651 PWs)   bands (ev):

   -39.1153 -37.9227 -37.3730   0.3462   4.1065   6.7111   8.5041  11.2359
    14.0296  14.7339  16.9381

          k = 0.0000 0.4570 0.0000 (  4638 PWs)   bands (ev):

   -39.1685 -37.8248 -37.4016  -0.0616   4.5243   7.2651   8.6230  10.6247
    13.7554  14.0090  17.4912

          k = 0.0000 0.4570 0.1679 (  4636 PWs)   bands (ev):

   -39.1475 -37.8541 -37.3962   0.1933   4.6216   6.9439   7.5017  10.7554
    13.7132  15.4378  16.0553

          k = 0.0000 0.4570 0.3358 (  4645 PWs)   bands (ev):

   -39.1116 -37.9023 -37.3885   0.7407   4.4847   5.6215   7.9826   9.7395
    13.4970  15.1462  17.6048

          k = 0.0000-0.5713 0.0000 (  4634 PWs)   bands (ev):

   -39.1651 -37.8241 -37.4024   0.1188   4.0807   7.0877   8.9058  11.1894
    13.1444  13.2076  17.6674

          k = 0.0000-0.5713 0.1679 (  4620 PWs)   bands (ev):

   -39.1448 -37.8504 -37.3993   0.3802   4.2197   7.2404   7.3251  10.1792
    14.2035  15.2709  15.5906

          k = 0.0000-0.5713 0.3358 (  4626 PWs)   bands (ev):

   -39.1103 -37.8941 -37.3947   0.9385   4.5061   5.3879   7.8082   9.1372
    13.3165  15.3219  17.9387

          k = 0.0990 0.1714 0.0000 (  4663 PWs)   bands (ev):

   -39.1911 -37.8295 -37.3963  -0.8257   7.5014   7.6156   8.4708   9.7176
    14.5099  15.0467  17.9311

          k = 0.0990 0.1714 0.1679 (  4658 PWs)   bands (ev):

   -39.1654 -37.8775 -37.3768  -0.5917   5.2787   8.4828   8.9668  11.5354
    14.7531  15.1948  15.8888

          k = 0.0990 0.1714 0.3358 (  4667 PWs)   bands (ev):

   -39.1209 -37.9524 -37.3509  -0.0830   3.6113   8.9081   9.5185  13.8328
    14.3428  15.0180  15.6124

          k = 0.0990 0.2856 0.0000 (  4652 PWs)   bands (ev):

   -39.1812 -37.8274 -37.3986  -0.5495   6.3590   7.4830   7.9002  10.0251
    15.5130  15.9175  16.9440

          k = 0.0990 0.2856 0.1679 (  4664 PWs)   bands (ev):

   -39.1575 -37.8674 -37.3851  -0.3086   5.4936   7.0344   8.0515  11.9656
    13.9478  15.8749  16.0459

          k = 0.0990 0.2856 0.3358 (  4658 PWs)   bands (ev):

   -39.1168 -37.9312 -37.3666   0.2136   3.9614   7.3014   8.5827  11.8914
    14.1716  15.0462  16.8116

          k = 0.0990 0.3999 0.0000 (  4650 PWs)   bands (ev):

   -39.1713 -37.8254 -37.4010  -0.1827   5.0402   6.9125   8.4432  10.7073
    14.1787  14.9697  17.4070

          k = 0.0990 0.3999 0.1679 (  4644 PWs)   bands (ev):

   -39.1497 -37.8571 -37.3937   0.0687   5.0657   6.5554   7.4930  11.5571
    13.3142  15.5756  16.5020

          k = 0.0990 0.3999 0.3358 (  4639 PWs)   bands (ev):

   -39.1128 -37.9088 -37.3835   0.6109   4.4144   5.9407   7.9313  10.1691
    13.6463  15.5280  17.5899

          k = 0.0990 0.5142 0.0000 (  4645 PWs)   bands (ev):

   -39.1652 -37.8241 -37.4024   0.1277   4.2136   6.6223   8.9317  11.5870
    13.0689  13.6122  17.6868

          k = 0.0990 0.5142 0.1679 (  4637 PWs)   bands (ev):

   -39.1448 -37.8505 -37.3992   0.3903   4.3464   6.7220   7.3973  10.5638
    13.8597  15.4673  16.0552

          k = 0.0990 0.5142 0.3358 (  4628 PWs)   bands (ev):

   -39.1103 -37.8942 -37.3946   0.9531   4.5922   5.3529   7.5715   9.0963
    13.3507  15.8822  18.1865

          k = 0.1979 0.3428 0.0000 (  4657 PWs)   bands (ev):

   -39.1723 -37.8256 -37.4007  -0.2229   5.4890   6.3736   8.3859  10.9227
    14.3117  16.4510  16.7856

          k = 0.1979 0.3428 0.1679 (  4662 PWs)   bands (ev):

   -39.1505 -37.8582 -37.3927   0.0277   5.4475   6.1491   7.4377  12.2427
    12.9216  15.6435  17.0626

          k = 0.1979 0.3428 0.3358 (  4646 PWs)   bands (ev):

   -39.1132 -37.9113 -37.3816   0.5689   4.3984   6.1005   7.7954  10.2918
    13.7257  16.1026  17.8275

          k = 0.1979 0.4570 0.0000 (  4631 PWs)   bands (ev):

   -39.1652 -37.8241 -37.4023   0.1422   4.5396   5.8764   8.9751  11.9538
    12.9471  14.9406  17.6569

          k = 0.1979 0.4570 0.1679 (  4642 PWs)   bands (ev):

   -39.1449 -37.8505 -37.3991   0.4067   4.6542   5.9892   7.4440  10.9942
    13.5661  15.5769  17.3535

          k = 0.1979 0.4570 0.3358 (  4644 PWs)   bands (ev):

   -39.1103 -37.8944 -37.3944   0.9769   4.7921   5.2331   7.2549   8.9758
    13.4417  17.0054  18.7166

          k = 0.1979 0.5713 0.0000 (  4636 PWs)   bands (ev):

   -39.1625 -37.8236 -37.4030   0.3250   4.1240   5.7362   9.3132  12.3364
    12.9003  13.7090  17.5242

          k = 0.1979 0.5713 0.1679 (  4634 PWs)   bands (ev):

   -39.1427 -37.8475 -37.4016   0.5989   4.2439   5.9578   7.6150  10.4129
    13.8626  15.9414  16.5641

          k = 0.1979 0.5713 0.3358 (  4642 PWs)   bands (ev):

   -39.1092 -37.8877 -37.3996   1.1893   4.5144   5.4272   6.9896   8.4408
    13.3433  17.3921  19.1734

          k = 0.2969 0.5142 0.0000 (  4630 PWs)   bands (ev):

   -39.1615 -37.8233 -37.4032   0.4145   4.1556   5.3202   9.5252  11.9830
    13.1809  14.5755  15.8521

          k = 0.2969 0.5142 0.1679 (  4627 PWs)   bands (ev):

   -39.1419 -37.8464 -37.4025   0.6949   4.2421   5.5980   7.7429  10.2630
    13.8750  16.0251  17.7196

          k = 0.2969 0.5142 0.3358 (  4651 PWs)   bands (ev):

   -39.1087 -37.8852 -37.4014   1.3035   4.3993   5.6305   6.6721   8.1488
    13.3614  18.5468  19.9501

     the Fermi energy is     8.2133 ev

!    total energy              =     -51.11440238 Ry
     estimated scf accuracy    <          2.1E-09 Ry
     smearing contrib. (-TS)   =       0.00059581 Ry
     internal energy E=F+TS    =     -51.11499819 Ry

     The total energy is F=E-TS. E is the sum of the following terms:
[...]
     Pseudo is Norm-conserving, Zval =  3.0
     Generated using ONCVPSP code by D. R. Hamann
     Using radial grid of 1944 points,  4 beta functions with: 
                l(1) =   0
                l(2) =   0
                l(3) =   1
                l(4) =   1

     atomic species   valence    mass     pseudopotential
        Si             4.00    28.08550     Si( 1.00)
        Li             3.00     6.94100     Li( 1.00)

     12 Sym. Ops. (no inversion) found



   Cartesian axes

     site n.     atom                  positions (alat units)
         1           Si  tau(   1) = (   0.5955586   0.3438459   0.0000000  )
         2           Li  tau(   2) = (  -0.0000000   0.6876918   0.7041154  )
         3           Li  tau(   3) = (   0.0000000   0.6876918   0.2522364  )
         4           Li  tau(   4) = (  -0.0000000   0.0000000   0.0000000  )

     number of k points=    42  Marzari-Vanderbilt smearing, width (Ry)=  0.0200
                       cart. coord. in units 2pi/alat
        k(    1) = (   0.0000000   0.0000000   0.0000000), wk =   0.0040000
        k(    2) = (   0.0000000   0.0000000   0.2091281), wk =   0.0080000
        k(    3) = (   0.0000000   0.0000000   0.4182561), wk =   0.0080000
        k(    4) = (   0.0000000   0.0969426   0.0000000), wk =   0.0240000
        k(    5) = (   0.0000000   0.0969426   0.2091281), wk =   0.0480000
        k(    6) = (   0.0000000   0.0969426   0.4182561), wk =   0.0480000
        k(    7) = (   0.0000000   0.1938853   0.0000000), wk =   0.0240000
        k(    8) = (   0.0000000   0.1938853   0.2091281), wk =   0.0480000
        k(    9) = (   0.0000000   0.1938853   0.4182561), wk =   0.0480000
        k(   10) = (   0.0000000   0.2908279   0.0000000), wk =   0.0240000
        k(   11) = (   0.0000000   0.2908279   0.2091281), wk =   0.0480000
        k(   12) = (   0.0000000   0.2908279   0.4182561), wk =   0.0480000
        k(   13) = (   0.0000000   0.3877706   0.0000000), wk =   0.0240000
        k(   14) = (   0.0000000   0.3877706   0.2091281), wk =   0.0480000
        k(   15) = (   0.0000000   0.3877706   0.4182561), wk =   0.0480000
        k(   16) = (   0.0000000  -0.4847132   0.0000000), wk =   0.0120000
        k(   17) = (   0.0000000  -0.4847132   0.2091281), wk =   0.0240000
        k(   18) = (   0.0000000  -0.4847132   0.4182561), wk =   0.0240000
        k(   19) = (   0.0839548   0.1454140   0.0000000), wk =   0.0240000
        k(   20) = (   0.0839548   0.1454140   0.2091281), wk =   0.0480000
        k(   21) = (   0.0839548   0.1454140   0.4182561), wk =   0.0480000
        k(   22) = (   0.0839548   0.2423566   0.0000000), wk =   0.0480000
        k(   23) = (   0.0839548   0.2423566   0.2091281), wk =   0.0960000
        k(   24) = (   0.0839548   0.2423566   0.4182561), wk =   0.0960000
        k(   25) = (   0.0839548   0.3392993   0.0000000), wk =   0.0480000
        k(   26) = (   0.0839548   0.3392993   0.2091281), wk =   0.0960000
        k(   27) = (   0.0839548   0.3392993   0.4182561), wk =   0.0960000
        k(   28) = (   0.0839548   0.4362419   0.0000000), wk =   0.0480000
        k(   29) = (   0.0839548   0.4362419   0.2091281), wk =   0.0960000
        k(   30) = (   0.0839548   0.4362419   0.4182561), wk =   0.0960000
        k(   31) = (   0.1679096   0.2908279   0.0000000), wk =   0.0240000
        k(   32) = (   0.1679096   0.2908279   0.2091281), wk =   0.0480000
        k(   33) = (   0.1679096   0.2908279   0.4182561), wk =   0.0480000
        k(   34) = (   0.1679096   0.3877706   0.0000000), wk =   0.0480000
        k(   35) = (   0.1679096   0.3877706   0.2091281), wk =   0.0960000
        k(   36) = (   0.1679096   0.3877706   0.4182561), wk =   0.0960000
        k(   37) = (   0.1679096   0.4847132   0.0000000), wk =   0.0240000
        k(   38) = (   0.1679096   0.4847132   0.2091281), wk =   0.0480000
        k(   39) = (   0.1679096   0.4847132   0.4182561), wk =   0.0480000
        k(   40) = (   0.2518644   0.4362419   0.0000000), wk =   0.0240000
        k(   41) = (   0.2518644   0.4362419   0.2091281), wk =   0.0480000
        k(   42) = (   0.2518644   0.4362419   0.4182561), wk =   0.0480000

     Dense  grid:    24051 G-vectors     FFT dimensions: (  45,  45,  36)

     Estimated max dynamical RAM per process >      16.83 MB

     Estimated total dynamical RAM >     134.60 MB

     Initial potential from superposition of free atoms

     starting charge      12.9857, renormalised to      13.0000
     Starting wfcs are   10 randomized atomic wfcs +    1 random wfcs

     total cpu time spent up to now is       71.6 secs

     Self-consistent Calculation

     iteration #  1     ecut=    80.00 Ry     beta= 0.70
     Davidson diagonalization with overlap
     c_bands:  1 eigenvalues not converged
     c_bands:  1 eigenvalues not converged
     c_bands:  1 eigenvalues not converged
     c_bands:  1 eigenvalues not converged
     c_bands:  1 eigenvalues not converged
     c_bands:  1 eigenvalues not converged
     c_bands:  1 eigenvalues not converged
     ethr =  1.00E-06,  avg # of iterations = 16.5

     total cpu time spent up to now is       72.9 secs

     total energy              =     -51.35374328 Ry
     estimated scf accuracy    <       0.10188234 Ry

     iteration #  2     ecut=    80.00 Ry     beta= 0.70
     Davidson diagonalization with overlap
     ethr =  7.84E-04,  avg # of iterations =  2.0

     total cpu time spent up to now is       73.3 secs

     total energy              =     -51.36655455 Ry
     estimated scf accuracy    <       0.00164191 Ry

     iteration #  3     ecut=    80.00 Ry     beta= 0.70
     Davidson diagonalization with overlap
     ethr =  1.26E-05,  avg # of iterations =  3.1

     total cpu time spent up to now is       73.7 secs

     total energy              =     -51.36671074 Ry
     estimated scf accuracy    <       0.00011804 Ry

     iteration #  4     ecut=    80.00 Ry     beta= 0.70
     Davidson diagonalization with overlap
     ethr =  9.08E-07,  avg # of iterations =  2.2

     total cpu time spent up to now is       74.1 secs

     total energy              =     -51.36671668 Ry
     estimated scf accuracy    <       0.00000077 Ry

     iteration #  5     ecut=    80.00 Ry     beta= 0.70
     Davidson diagonalization with overlap
     ethr =  5.91E-09,  avg # of iterations =  3.5

     total cpu time spent up to now is       74.5 secs

     total energy              =     -51.36671715 Ry
     estimated scf accuracy    <       0.00000005 Ry

     iteration #  6     ecut=    80.00 Ry     beta= 0.70
     Davidson diagonalization with overlap
     ethr =  3.84E-10,  avg # of iterations =  1.9

     total cpu time spent up to now is       74.9 secs

     total energy              =     -51.36671715 Ry
     estimated scf accuracy    <          2.0E-09 Ry

     iteration #  7     ecut=    80.00 Ry     beta= 0.70
     Davidson diagonalization with overlap
     ethr =  1.51E-11,  avg # of iterations =  2.1

     total cpu time spent up to now is       75.2 secs

     End of self-consistent calculation

          k = 0.0000 0.0000 0.0000 (  2963 PWs)   bands (ev):

   -41.2930 -39.0912 -37.6079  -1.9674   6.8934   6.8934   8.7642   8.7642
    10.6390  11.4935  13.7693

          k = 0.0000 0.0000 0.2091 (  3004 PWs)   bands (ev):

   -41.1199 -39.2963 -37.6042  -1.4260   6.8236   7.4241   7.4241   9.3015
     9.3015  13.9168  14.9918

          k = 0.0000 0.0000 0.4183 (  3028 PWs)   bands (ev):

   -40.7020 -39.7654 -37.5983   0.0882   3.3337   8.7161   8.7161  10.6743
    10.6743  13.7554  13.7554

          k = 0.0000 0.0969 0.0000 (  2967 PWs)   bands (ev):

   -41.2925 -39.0911 -37.6081  -1.9257   6.1788   6.3273   9.3121   9.5923
    10.8202  11.5557  14.1212

          k = 0.0000 0.0969 0.2091 (  2995 PWs)   bands (ev):

   -41.1194 -39.2961 -37.6044  -1.3817   6.6468   6.8635   6.9636   9.9288
    10.1201  14.1028  14.7262

          k = 0.0000 0.0969 0.4183 (  3013 PWs)   bands (ev):

   -40.7018 -39.7650 -37.5987   0.1364   3.4106   8.0157   8.1849  11.3002
    11.4349  12.6226  13.3455

          k = 0.0000 0.1939 0.0000 (  2983 PWs)   bands (ev):

   -41.2912 -39.0910 -37.6087  -1.8088   5.0492   5.5208   9.9115  11.1814
    11.3736  11.7351  15.1216

          k = 0.0000 0.1939 0.2091 (  2994 PWs)   bands (ev):

   -41.1183 -39.2957 -37.6052  -1.2573   5.5310   6.0614   7.2057  10.7088
    11.6870  13.6874  14.8973

          k = 0.0000 0.1939 0.4183 (  3004 PWs)   bands (ev):

   -40.7012 -39.7638 -37.5997   0.2727   3.6337   6.9025   7.4047  10.9277
    12.1966  12.3146  13.2917

          k = 0.0000 0.2908 0.0000 (  3004 PWs)   bands (ev):

   -41.2897 -39.0908 -37.6094  -1.6450   4.0671   4.8956  10.2458  12.0022
    12.1166  13.0954  16.2537

          k = 0.0000 0.2908 0.2091 (  2996 PWs)   bands (ev):

   -41.1169 -39.2951 -37.6061  -1.0817   4.5377   5.4388   7.6358  10.9427
    12.9268  13.5215  15.4741

          k = 0.0000 0.2908 0.4183 (  3006 PWs)   bands (ev):

   -40.7004 -39.7623 -37.6009   0.4666   3.9665   5.9409   6.7938   9.4482
    11.8615  12.8311  14.7531

          k = 0.0000 0.3878 0.0000 (  3006 PWs)   bands (ev):

   -41.2884 -39.0907 -37.6100  -1.4910   3.3997   4.5117  10.4417  12.2758
    12.8451  15.2199  16.1053

          k = 0.0000 0.3878 0.2091 (  3001 PWs)   bands (ev):

   -41.1158 -39.2947 -37.6068  -0.9150   3.8574   5.0563   8.1734  10.4596
    12.7444  14.9103  15.8177

          k = 0.0000 0.3878 0.4183 (  3001 PWs)   bands (ev):

   -40.6998 -39.7611 -37.6018   0.6529   4.2835   5.3411   6.4174   8.3544
    11.5016  13.2098  14.8665

          k = 0.0000-0.4847 0.0000 (  3008 PWs)   bands (ev):

   -41.2879 -39.0906 -37.6102  -1.4255   3.1600   4.3828  10.5111  12.4018
    13.2235  15.7081  16.8786

          k = 0.0000-0.4847 0.2091 (  2988 PWs)   bands (ev):

   -41.1153 -39.2945 -37.6071  -0.8434   3.6117   4.9278   8.5163  10.0458
    12.7707  15.0223  15.9277

          k = 0.0000-0.4847 0.4183 (  3004 PWs)   bands (ev):

   -40.6996 -39.7606 -37.6022   0.7339   4.3810   5.1993   6.2908   7.9158
    11.3772  13.3385  14.9037

          k = 0.0840 0.1454 0.0000 (  2964 PWs)   bands (ev):

   -41.2916 -39.0910 -37.6085  -1.8462   5.3974   5.6570  10.0351  10.3724
    11.3022  11.6770  14.8083

          k = 0.0840 0.1454 0.2091 (  2993 PWs)   bands (ev):

   -41.1187 -39.2958 -37.6050  -1.2972   5.9172   6.1359   7.1517  10.6657
    11.1089  14.0307  14.5176

          k = 0.0840 0.1454 0.4183 (  3008 PWs)   bands (ev):

   -40.7014 -39.7641 -37.5993   0.2289   3.5612   7.2386   7.5435  11.4750
    12.1317  12.1791  12.7067

          k = 0.0840 0.2424 0.0000 (  2990 PWs)   bands (ev):

   -41.2902 -39.0909 -37.6092  -1.7042   4.4405   4.9898  10.5085  11.4147
    11.9046  12.4706  15.9751

          k = 0.0840 0.2424 0.2091 (  2990 PWs)   bands (ev):

   -41.1174 -39.2953 -37.6058  -1.1454   4.9393   5.4889   7.5014  11.2439
    12.5662  13.2703  14.5319

          k = 0.0840 0.2424 0.4183 (  3003 PWs)   bands (ev):

   -40.7007 -39.7628 -37.6004   0.3958   3.8457   6.3047   6.8728  10.0639
    11.7526  12.9163  13.8399

          k = 0.0840 0.3393 0.0000 (  2992 PWs)   bands (ev):

   -41.2888 -39.0907 -37.6098  -1.5404   3.6484   4.5238  10.7326  12.1896
    12.4122  14.1334  16.4840

          k = 0.0840 0.3393 0.2091 (  3006 PWs)   bands (ev):

   -41.1161 -39.2948 -37.6066  -0.9688   4.1287   5.0341   7.9855  11.0567
    12.8077  14.1563  14.6436

          k = 0.0840 0.3393 0.4183 (  3005 PWs)   bands (ev):

   -40.7000 -39.7614 -37.6015   0.5918   4.1998   5.5501   6.3863   8.8359
    11.3069  13.4092  15.1464

          k = 0.0840 0.4362 0.0000 (  3011 PWs)   bands (ev):

   -41.2879 -39.0906 -37.6102  -1.4243   3.2020   4.2861  10.8563  12.4130
    13.1396  15.5376  16.3824

          k = 0.0840 0.4362 0.2091 (  3006 PWs)   bands (ev):

   -41.1153 -39.2945 -37.6071  -0.8424   3.6702   4.8004   8.4666  10.4440
    12.8889  14.1634  16.2020

          k = 0.0840 0.4362 0.4183 (  3006 PWs)   bands (ev):

   -40.6996 -39.7606 -37.6022   0.7338   4.4291   5.2125   6.1142   8.0765
    11.0790  13.6669  15.4449

          k = 0.1679 0.2908 0.0000 (  2996 PWs)   bands (ev):

   -41.2889 -39.0907 -37.6097  -1.5583   3.7966   4.4491  11.5471  11.5964
    12.1613  13.6938  16.7107

          k = 0.1679 0.2908 0.2091 (  3007 PWs)   bands (ev):

   -41.1163 -39.2948 -37.6065  -0.9884   4.3124   4.9096   7.9379  11.7874
    12.5816  13.6271  14.0758

          k = 0.1679 0.2908 0.4183 (  3017 PWs)   bands (ev):

   -40.7001 -39.7616 -37.6014   0.5693   4.1725   5.6934   6.2757   9.1222
    11.0563  13.9000  14.6797

          k = 0.1679 0.3878 0.0000 (  3002 PWs)   bands (ev):

   -41.2879 -39.0906 -37.6102  -1.4224   3.2866   4.1178  11.7278  12.4313
    12.7156  14.7845  16.3413

          k = 0.1679 0.3878 0.2091 (  3005 PWs)   bands (ev):

   -41.1153 -39.2945 -37.6071  -0.8409   3.7968   4.5697   8.4155  11.3144
    12.7608  13.5676  15.2365

          k = 0.1679 0.3878 0.4183 (  3008 PWs)   bands (ev):

   -40.6996 -39.7606 -37.6022   0.7335   4.5195   5.2455   5.8400   8.3207
    10.6610  14.4871  15.9416

          k = 0.1679 0.4847 0.0000 (  3006 PWs)   bands (ev):

   -41.2875 -39.0906 -37.6103  -1.3650   3.0925   4.0088  11.7972  12.5589
    13.3362  15.0945  16.0981

          k = 0.1679 0.4847 0.2091 (  3014 PWs)   bands (ev):

   -41.1150 -39.2943 -37.6074  -0.7782   3.5976   4.4599   8.6745  10.9397
    12.8552  13.5845  16.7310

          k = 0.1679 0.4847 0.4183 (  3004 PWs)   bands (ev):

   -40.6994 -39.7602 -37.6025   0.8039   4.6466   5.1619   5.6362   7.9925
    10.5370  14.6671  16.6223

          k = 0.2519 0.4362 0.0000 (  3018 PWs)   bands (ev):

   -41.2874 -39.0906 -37.6104  -1.3409   3.0617   3.8867  12.6263  12.6597
    13.1488  14.7473  15.9141

          k = 0.2519 0.4362 0.2091 (  3010 PWs)   bands (ev):

   -41.1149 -39.2943 -37.6074  -0.7521   3.5950   4.2991   8.7395  11.4750
    12.1980  14.0515  15.8678

          k = 0.2519 0.4362 0.4183 (  3007 PWs)   bands (ev):

   -40.6993 -39.7601 -37.6026   0.8319   4.8509   5.0971   5.3735   7.9763
    10.3173  15.6872  16.6211

     the Fermi energy is     7.7580 ev

!    total energy              =     -51.36671715 Ry
     estimated scf accuracy    <          6.0E-11 Ry
     smearing contrib. (-TS)   =       0.00014500 Ry
     internal energy E=F+TS    =     -51.36686216 Ry

     The total energy is F=E-TS. E is the sum of the following terms:
     one-electron contribution =     -18.66094201 Ry
     hartree contribution      =      10.06638328 Ry
     xc contribution           =     -13.78440260 Ry
     ewald contribution        =     -28.98790082 Ry

     convergence has been achieved in   7 iterations

     Forces acting on atoms (cartesian axes, Ry/au):

     atom    1 type  1   force =     0.00000000    0.00000000    0.00000000
     atom    2 type  2   force =     0.00000000    0.00000000    0.00000052
     atom    3 type  2   force =    -0.00000000    0.00000000   -0.00000052
     atom    4 type  2   force =     0.00000000    0.00000000    0.00000000
     The non-local contrib.  to forces
     atom    1 type  1   force =     0.00000000    0.00000000    0.00000000
     atom    2 type  2   force =     0.00000000   -0.00000000   -0.21803369
     atom    3 type  2   force =     0.00000000    0.00000000    0.21803369
     atom    4 type  2   force =     0.00000000    0.00000000    0.00000000
     The ionic contribution  to forces
     atom    1 type  1   force =    -0.00000007    0.00000006    0.00000000
     atom    2 type  2   force =    -0.00000003   -0.00000003   -0.09442106
     atom    3 type  2   force =     0.00000007   -0.00000003    0.09442106
     atom    4 type  2   force =     0.00000003    0.00000000    0.00000000
     The local contribution  to forces
     atom    1 type  1   force =     0.00000003   -0.00000002   -0.00000000
     atom    2 type  2   force =     0.00000071   -0.00000041    0.31245763
     atom    3 type  2   force =    -0.00000071   -0.00000041   -0.31245763
     atom    4 type  2   force =    -0.00000000   -0.00000000    0.00000000
     The core correction contribution to forces
     atom    1 type  1   force =     0.00000000   -0.00000000    0.00000000
     atom    2 type  2   force =     0.00000000    0.00000000    0.00000000
     atom    3 type  2   force =     0.00000000    0.00000000    0.00000000
     atom    4 type  2   force =     0.00000000    0.00000000    0.00000000
     The Hubbard contrib.    to forces
     atom    1 type  1   force =     0.00000000    0.00000000    0.00000000
     atom    2 type  2   force =     0.00000000    0.00000000    0.00000000
     atom    3 type  2   force =     0.00000000    0.00000000    0.00000000
     atom    4 type  2   force =     0.00000000    0.00000000    0.00000000
     The SCF correction term to forces
     atom    1 type  1   force =    -0.00000000    0.00000000    0.00000000
     atom    2 type  2   force =     0.00000000   -0.00000000   -0.00000236
     atom    3 type  2   force =    -0.00000000   -0.00000000    0.00000236
     atom    4 type  2   force =     0.00000000    0.00000000    0.00000000

     Total force =     0.000001     Total SCF correction =     0.000003
     SCF correction compared to forces is large: reduce conv_thr to get better values


     Computing stress (Cartesian axis) and pressure

          total   stress  (Ry/bohr**3)                   (kbar)     P=      512.34
   0.00352359   0.00000000  -0.00000000          518.34        0.00       -0.00
   0.00000000   0.00352359   0.00000000            0.00      518.34        0.00
  -0.00000000   0.00000000   0.00340126           -0.00        0.00      500.34


     Writing all to output data dir ./output/SiLi.save/

     init_run     :      1.10s CPU      1.34s WALL (       2 calls)
     electrons    :     48.84s CPU     54.08s WALL (      15 calls)
     update_pot   :      4.77s CPU      4.82s WALL (      13 calls)
     forces       :      3.24s CPU      3.34s WALL (      15 calls)
     stress       :     11.20s CPU     11.87s WALL (      15 calls)

     Called by init_run:
     wfcinit      :      0.24s CPU      0.25s WALL (       2 calls)
     potinit      :      0.29s CPU      0.41s WALL (       2 calls)
     hinit0       :      0.54s CPU      0.62s WALL (       2 calls)

     Called by electrons:
     c_bands      :     42.01s CPU     46.16s WALL (     113 calls)
     sum_band     :      5.85s CPU      6.14s WALL (     113 calls)
     v_of_rho     :      1.00s CPU      1.72s WALL (     125 calls)
     mix_rho      :      0.09s CPU      0.13s WALL (     113 calls)

     Called by c_bands:
     init_us_2    :      1.44s CPU      1.56s WALL (   10836 calls)
     init_us_2:cp :      1.42s CPU      1.55s WALL (   10836 calls)
     cegterg      :     39.44s CPU     40.75s WALL (    4746 calls)

     Called by *egterg:
     cdiaghg      :      2.60s CPU      2.69s WALL (   19217 calls)
     h_psi        :     32.77s CPU     33.87s WALL (   19973 calls)
     g_psi        :      0.19s CPU      0.20s WALL (   15143 calls)

     Called by h_psi:
     h_psi:calbec :      2.05s CPU      2.12s WALL (   19973 calls)
     vloc_psi     :     29.06s CPU     30.04s WALL (   19973 calls)
     add_vuspsi   :      1.50s CPU      1.55s WALL (   19973 calls)

     General routines
     calbec       :      2.56s CPU      2.65s WALL (   23123 calls)
     fft          :      1.13s CPU      2.06s WALL (    1626 calls)
     ffts         :      0.04s CPU      0.07s WALL (     113 calls)
     fftw         :     29.49s CPU     30.45s WALL (  352526 calls)

     Parallel routines

     PWSCF        :   1m 9.48s CPU   1m16.14s WALL


   This run was terminated on:  11:41:37  29Dec2024            

=------------------------------------------------------------------------------=
   JOB DONE.
=------------------------------------------------------------------------------=
