
     Program PWSCF v.7.2 starts on 29Dec2024 at 11:52:26 

     This program is part of the open-source Quantum ESPRESSO suite
     for quantum simulation of materials; please cite
         "P. Giannozzi et al., J. Phys.:Condens. Matter 21 395502 (2009);
         "P. Giannozzi et al., J. Phys.:Condens. Matter 29 465901 (2017);
         "P. Giannozzi et al., J. Chem. Phys. 152 154105 (2020);
          URL http://www.quantum-espresso.org", 
     in publications or presentations arising from this work. More details at
     http://www.quantum-espresso.org/quote

     Parallel version (MPI & OpenMP), running on       8 processor cores
     Number of MPI processes:                 8
     Threads/MPI process:                     1

     MPI processes distributed on     1 nodes
     488044 MiB available memory on the printing compute node when the environment starts

     Waiting for input...
     Reading input from standard input

     Current dimensions of program PWSCF are:
     Max number of different atomic species (ntypx) = 10
     Max number of k-points (npk) =  40000
     Max angular momentum in pseudopotentials (lmaxx) =  4

     R & G space division:  proc/nbgrp/npool/nimage =       8
     Subspace diagonalization in iterative solution of the eigenvalue problem:
     a serial algorithm will be used


     Parallelization info
     --------------------
     sticks:   dense  smooth     PW     G-vecs:    dense   smooth      PW
     Min         162     162     45                10996    10996    1637
     Max         165     165     46                10999    10999    1644
     Sum        1303    1303    367                87971    87971   13139

     Using Slab Decomposition



     bravais-lattice index     =            4
     lattice parameter (alat)  =       7.7139  a.u.
     unit-cell volume          =     912.2682 (a.u.)^3
     number of atoms/cell      =            4
     number of atomic types    =            2
     number of electrons       =        13.00
     number of Kohn-Sham states=           11
     kinetic-energy cutoff     =      80.0000  Ry
     charge density cutoff     =     320.0000  Ry
     scf convergence threshold =      1.0E-08
     mixing beta               =       0.7000
     number of iterations used =            8  plain     mixing
     energy convergence thresh.=      1.0E-04
     force convergence thresh. =      1.0E-03
     press convergence thresh. =      1.0E+00
     Exchange-correlation= PBE
                           (   1   4   3   4   0   0   0)
     nstep                     =           50


     celldm(1)=   7.713933  celldm(2)=   0.000000  celldm(3)=   2.294903
     celldm(4)=   0.000000  celldm(5)=   0.000000  celldm(6)=   0.000000

     crystal axes: (cart. coord. in units of alat)
               a(1) = (   1.000000   0.000000   0.000000 )  
               a(2) = (  -0.500000   0.866025   0.000000 )  
               a(3) = (   0.000000   0.000000   2.294903 )  

     reciprocal axes: (cart. coord. in units 2 pi/alat)
               b(1) = (  1.000000  0.577350 -0.000000 )  
               b(2) = (  0.000000  1.154701  0.000000 )  
               b(3) = (  0.000000 -0.000000  0.435748 )  


     PseudoPot. # 1 for Si read from file:
     ../pseudo/Si_ONCV_PBE_sr.upf
     MD5 check sum: e543d271109d17c80368dfa7c482276d
     Pseudo is Norm-conserving + core correction, Zval =  4.0
     Generated using ONCVPSP code by D. R. Hamann
     Using radial grid of 1510 points,  6 beta functions with: 
                l(1) =   0
                l(2) =   0
                l(3) =   1
                l(4) =   1
                l(5) =   2
                l(6) =   2

     PseudoPot. # 2 for Li read from file:
     ../pseudo/Li_ONCV_PBE_sr.upf
     MD5 check sum: 50ff420e78310ffa21704f3361e624a4
     Pseudo is Norm-conserving, Zval =  3.0
     Generated using ONCVPSP code by D. R. Hamann
     Using radial grid of 1944 points,  4 beta functions with: 
                l(1) =   0
                l(2) =   0
                l(3) =   1
                l(4) =   1

     atomic species   valence    mass     pseudopotential
        Si             4.00    28.08550     Si( 1.00)
        Li             3.00     6.94100     Li( 1.00)

      6 Sym. Ops. (no inversion) found



   Cartesian axes

     site n.     atom                  positions (alat units)
         1           Si  tau(   1) = (  -0.0000000   0.5773503   2.0736811  )
         2           Li  tau(   2) = (   0.0000000   0.0000000   0.6154723  )
         3           Li  tau(   3) = (   0.0000000   0.0000000   1.0820146  )
         4           Li  tau(   4) = (   0.5000000   0.2886751   1.9888225  )

     number of k points=    68  Marzari-Vanderbilt smearing, width (Ry)=  0.0200
                       cart. coord. in units 2pi/alat
        k(    1) = (   0.0000000   0.0000000   0.0000000), wk =   0.0033058
        k(    2) = (   0.0000000   0.0000000   0.0871497), wk =   0.0066116
        k(    3) = (   0.0000000   0.0000000   0.1742993), wk =   0.0066116
        k(    4) = (   0.0000000   0.1049728   0.0000000), wk =   0.0198347
        k(    5) = (   0.0000000   0.1049728   0.0871497), wk =   0.0198347
        k(    6) = (   0.0000000   0.1049728   0.1742993), wk =   0.0198347
        k(    7) = (   0.0000000   0.2099456   0.0000000), wk =   0.0198347
        k(    8) = (   0.0000000   0.2099456   0.0871497), wk =   0.0198347
        k(    9) = (   0.0000000   0.2099456   0.1742993), wk =   0.0198347
        k(   10) = (   0.0000000   0.3149183   0.0000000), wk =   0.0198347
        k(   11) = (   0.0000000   0.3149183   0.0871497), wk =   0.0198347
        k(   12) = (   0.0000000   0.3149183   0.1742993), wk =   0.0198347
        k(   13) = (   0.0000000   0.4198911   0.0000000), wk =   0.0198347
        k(   14) = (   0.0000000   0.4198911   0.0871497), wk =   0.0198347
        k(   15) = (   0.0000000   0.4198911   0.1742993), wk =   0.0198347
        k(   16) = (   0.0000000   0.5248639   0.0000000), wk =   0.0198347
        k(   17) = (   0.0000000   0.5248639   0.0871497), wk =   0.0198347
        k(   18) = (   0.0000000   0.5248639   0.1742993), wk =   0.0198347
        k(   19) = (   0.0909091   0.1574592   0.0000000), wk =   0.0198347
        k(   20) = (   0.0909091   0.1574592   0.0871497), wk =   0.0396694
        k(   21) = (   0.0909091   0.1574592   0.1742993), wk =   0.0396694
        k(   22) = (   0.0909091   0.2624319   0.0000000), wk =   0.0396694
        k(   23) = (   0.0909091   0.2624319   0.0871497), wk =   0.0396694
        k(   24) = (   0.0909091   0.2624319   0.1742993), wk =   0.0396694
        k(   25) = (   0.0909091   0.3674047   0.0000000), wk =   0.0396694
        k(   26) = (   0.0909091   0.3674047   0.0871497), wk =   0.0396694
        k(   27) = (   0.0909091   0.3674047   0.1742993), wk =   0.0396694
        k(   28) = (   0.0909091   0.4723775   0.0000000), wk =   0.0396694
        k(   29) = (   0.0909091   0.4723775   0.0871497), wk =   0.0396694
        k(   30) = (   0.0909091   0.4723775   0.1742993), wk =   0.0396694
        k(   31) = (   0.0909091   0.5773503   0.0000000), wk =   0.0198347
        k(   32) = (   0.0909091   0.5773503   0.0871497), wk =   0.0396694
        k(   33) = (   0.0909091   0.5773503   0.1742993), wk =   0.0396694
        k(   34) = (   0.1818182   0.3149183   0.0000000), wk =   0.0198347
        k(   35) = (   0.1818182   0.3149183   0.0871497), wk =   0.0396694
        k(   36) = (   0.1818182   0.3149183   0.1742993), wk =   0.0396694
        k(   37) = (   0.1818182   0.4198911   0.0000000), wk =   0.0396694
        k(   38) = (   0.1818182   0.4198911   0.0871497), wk =   0.0396694
        k(   39) = (   0.1818182   0.4198911   0.1742993), wk =   0.0396694
        k(   40) = (   0.1818182   0.5248639   0.0000000), wk =   0.0396694
        k(   41) = (   0.1818182   0.5248639   0.0871497), wk =   0.0396694
        k(   42) = (   0.1818182   0.5248639   0.1742993), wk =   0.0396694
        k(   43) = (   0.2727273   0.4723775   0.0000000), wk =   0.0198347
        k(   44) = (   0.2727273   0.4723775   0.0871497), wk =   0.0396694
        k(   45) = (   0.2727273   0.4723775   0.1742993), wk =   0.0396694
        k(   46) = (   0.2727273   0.5773503   0.0000000), wk =   0.0198347
        k(   47) = (   0.2727273   0.5773503   0.0871497), wk =   0.0396694
        k(   48) = (   0.2727273   0.5773503   0.1742993), wk =   0.0396694
        k(   49) = (   0.0000000  -0.1049728   0.0871497), wk =   0.0198347
        k(   50) = (   0.0000000  -0.1049728   0.1742993), wk =   0.0198347
        k(   51) = (   0.0000000  -0.2099456   0.0871497), wk =   0.0198347
        k(   52) = (   0.0000000  -0.2099456   0.1742993), wk =   0.0198347
        k(   53) = (   0.0000000  -0.3149183   0.0871497), wk =   0.0198347
        k(   54) = (   0.0000000  -0.3149183   0.1742993), wk =   0.0198347
        k(   55) = (   0.0000000  -0.4198911   0.0871497), wk =   0.0198347
        k(   56) = (   0.0000000  -0.4198911   0.1742993), wk =   0.0198347
        k(   57) = (   0.0000000  -0.5248639   0.0871497), wk =   0.0198347
        k(   58) = (   0.0000000  -0.5248639   0.1742993), wk =   0.0198347
        k(   59) = (  -0.0909091  -0.2624319   0.0871497), wk =   0.0396694
        k(   60) = (  -0.0909091  -0.2624319   0.1742993), wk =   0.0396694
        k(   61) = (  -0.0909091  -0.3674047   0.0871497), wk =   0.0396694
        k(   62) = (  -0.0909091  -0.3674047   0.1742993), wk =   0.0396694
        k(   63) = (  -0.0909091  -0.4723775   0.0871497), wk =   0.0396694
        k(   64) = (  -0.0909091  -0.4723775   0.1742993), wk =   0.0396694
        k(   65) = (  -0.1818182  -0.4198911   0.0871497), wk =   0.0396694
        k(   66) = (  -0.1818182  -0.4198911   0.1742993), wk =   0.0396694
        k(   67) = (  -0.1818182  -0.5248639   0.0871497), wk =   0.0396694
        k(   68) = (  -0.1818182  -0.5248639   0.1742993), wk =   0.0396694

     Dense  grid:    87971 G-vectors     FFT dimensions: (  45,  45, 108)

     Estimated max dynamical RAM per process >      36.13 MB

     Estimated total dynamical RAM >     289.02 MB

     Initial potential from superposition of free atoms

     starting charge      12.9857, renormalised to      13.0000
     Starting wfcs are   10 randomized atomic wfcs +    1 random wfcs

     total cpu time spent up to now is        4.2 secs

     Self-consistent Calculation

     iteration #  1     ecut=    80.00 Ry     beta= 0.70
     Davidson diagonalization with overlap
     ethr =  1.00E-02,  avg # of iterations =  6.5

     total cpu time spent up to now is        7.0 secs

     total energy              =     -50.85104452 Ry
     estimated scf accuracy    <       0.73104745 Ry

     iteration #  2     ecut=    80.00 Ry     beta= 0.70
     Davidson diagonalization with overlap
     ethr =  5.62E-03,  avg # of iterations =  5.4

     total cpu time spent up to now is        9.7 secs

     total energy              =     -50.31816044 Ry
     estimated scf accuracy    <      13.68941283 Ry

     iteration #  3     ecut=    80.00 Ry     beta= 0.70
     Davidson diagonalization with overlap
     ethr =  5.62E-03,  avg # of iterations =  3.7

     total cpu time spent up to now is       11.9 secs

     total energy              =     -51.36967694 Ry
     estimated scf accuracy    <       0.13111507 Ry

     iteration #  4     ecut=    80.00 Ry     beta= 0.70
     Davidson diagonalization with overlap
     ethr =  1.01E-03,  avg # of iterations =  4.0

     total cpu time spent up to now is       13.8 secs

     total energy              =     -51.37975346 Ry
     estimated scf accuracy    <       0.00505312 Ry

     iteration #  5     ecut=    80.00 Ry     beta= 0.70
     Davidson diagonalization with overlap
     ethr =  3.89E-05,  avg # of iterations =  5.2

     total cpu time spent up to now is       16.1 secs

     total energy              =     -51.38077842 Ry
     estimated scf accuracy    <       0.00172728 Ry

     iteration #  6     ecut=    80.00 Ry     beta= 0.70
     Davidson diagonalization with overlap
     ethr =  1.33E-05,  avg # of iterations =  2.4

     total cpu time spent up to now is       17.8 secs

     total energy              =     -51.38088822 Ry
     estimated scf accuracy    <       0.00089421 Ry

     iteration #  7     ecut=    80.00 Ry     beta= 0.70
     Davidson diagonalization with overlap
     ethr =  6.88E-06,  avg # of iterations =  1.1

     total cpu time spent up to now is       19.3 secs

     total energy              =     -51.38100307 Ry
     estimated scf accuracy    <       0.00014509 Ry

     iteration #  8     ecut=    80.00 Ry     beta= 0.70
     Davidson diagonalization with overlap
     ethr =  1.12E-06,  avg # of iterations =  2.0

     total cpu time spent up to now is       21.0 secs

     total energy              =     -51.38101789 Ry
     estimated scf accuracy    <       0.00000187 Ry

     iteration #  9     ecut=    80.00 Ry     beta= 0.70
     Davidson diagonalization with overlap
     ethr =  1.43E-08,  avg # of iterations =  2.4

     total cpu time spent up to now is       22.6 secs

     total energy              =     -51.38101802 Ry
     estimated scf accuracy    <       0.00000068 Ry

     iteration # 10     ecut=    80.00 Ry     beta= 0.70
     Davidson diagonalization with overlap
     ethr =  5.23E-09,  avg # of iterations =  1.1

     total cpu time spent up to now is       24.1 secs

     End of self-consistent calculation

          k = 0.0000 0.0000 0.0000 ( 10983 PWs)   bands (ev):

   -48.6447 -48.3941 -45.7923  -7.2482  -2.0652  -1.6600   1.4097   1.4097
     1.8880   2.4081   5.3708

          k = 0.0000 0.0000 0.0871 ( 10959 PWs)   bands (ev):

   -48.6447 -48.3941 -45.7923  -7.2479  -2.2270  -1.3853   1.2524   1.4098
     1.4098   3.0759   5.3895

          k = 0.0000 0.0000 0.1743 ( 10898 PWs)   bands (ev):

   -48.6447 -48.3941 -45.7923  -7.2474  -2.3692  -0.9925   0.6287   1.4099
     1.4099   3.7457   5.4229

          k = 0.0000 0.1050 0.0000 ( 10997 PWs)   bands (ev):

   -48.6447 -48.3941 -45.7923  -7.1978  -1.9889  -1.5775   1.0233   1.2762
     1.9842   2.5065   5.0173

          k = 0.0000 0.1050 0.0871 ( 10987 PWs)   bands (ev):

   -48.6447 -48.3941 -45.7923  -7.1975  -2.1480  -1.3064   0.9783   1.2764
     1.4146   3.1420   5.0279

          k = 0.0000 0.1050 0.1743 ( 10946 PWs)   bands (ev):

   -48.6447 -48.3941 -45.7923  -7.1970  -2.2891  -0.9164   0.6375   1.1424
     1.2766   3.7652   5.0636

          k = 0.0000 0.2099 0.0000 ( 11005 PWs)   bands (ev):

   -48.6446 -48.3940 -45.7922  -7.0539  -1.7622  -1.3341   0.2253   0.9708
     2.1807   2.7393   4.1696

          k = 0.0000 0.2099 0.0871 ( 11000 PWs)   bands (ev):

   -48.6446 -48.3940 -45.7922  -7.0536  -1.9126  -1.0770   0.2166   0.9710
     1.6253   3.2731   4.1938

          k = 0.0000 0.2099 0.1743 ( 10999 PWs)   bands (ev):

   -48.6446 -48.3940 -45.7922  -7.0531  -2.0503  -0.6975   0.1617   0.9715
     1.0955   3.6952   4.2743

          k = 0.0000 0.3149 0.0000 ( 11025 PWs)   bands (ev):

   -48.6446 -48.3940 -45.7920  -6.8415  -1.4061  -0.9559  -0.5971   0.6458
     2.4076   2.8453   3.3748

          k = 0.0000 0.3149 0.0871 ( 11030 PWs)   bands (ev):

   -48.6446 -48.3940 -45.7920  -6.8413  -1.5302  -0.8229  -0.5053   0.6462
     1.9617   2.9244   3.6171

          k = 0.0000 0.3149 0.1743 ( 11028 PWs)   bands (ev):

   -48.6446 -48.3940 -45.7920  -6.8409  -1.6591  -0.7159  -0.2799   0.6468
     1.4685   2.8901   3.8723

          k = 0.0000 0.4199 0.0000 ( 11025 PWs)   bands (ev):

   -48.6445 -48.3940 -45.7919  -6.6134  -1.4421  -0.7817  -0.4303   0.3948
     1.8782   2.5601   3.6451

          k = 0.0000 0.4199 0.0871 ( 11013 PWs)   bands (ev):

   -48.6445 -48.3940 -45.7919  -6.6132  -1.4287  -0.9629  -0.1725   0.3952
     1.8176   2.4729   3.3237

          k = 0.0000 0.4199 0.1743 ( 11030 PWs)   bands (ev):

   -48.6445 -48.3940 -45.7919  -6.6129  -1.4146  -1.1094   0.1358   0.3960
     1.7782   2.0925   3.3903

          k = 0.0000 0.5249 0.0000 ( 11027 PWs)   bands (ev):

   -48.6444 -48.3939 -45.7918  -6.4565  -1.8209  -0.2288   0.0220   0.2610
     1.0203   2.2298   3.8373

          k = 0.0000 0.5249 0.0871 ( 11027 PWs)   bands (ev):

   -48.6444 -48.3939 -45.7918  -6.4563  -1.8167  -0.4100   0.2537   0.2616
     1.0030   2.3912   3.3417

          k = 0.0000 0.5249 0.1743 ( 11032 PWs)   bands (ev):

   -48.6444 -48.3939 -45.7918  -6.4561  -1.8109  -0.5526   0.2624   0.4608
     1.0347   2.6670   2.9148

          k = 0.0909 0.1575 0.0000 ( 11011 PWs)   bands (ev):

   -48.6446 -48.3941 -45.7922  -7.1005  -1.8372  -1.4144   0.4845   1.0149
     2.1230   2.6711   4.5533

          k = 0.0909 0.1575 0.0871 ( 10995 PWs)   bands (ev):

   -48.6446 -48.3941 -45.7922  -7.1002  -1.9912  -1.1502   0.4640   1.0143
     1.5654   3.2408   4.5656

          k = 0.0909 0.1575 0.1743 ( 10999 PWs)   bands (ev):

   -48.6446 -48.3941 -45.7922  -7.0997  -2.1298  -0.7667   0.3754   0.9966
     1.0750   3.7630   4.6024

          k = 0.0909 0.2624 0.0000 ( 11023 PWs)   bands (ev):

   -48.6446 -48.3940 -45.7921  -6.9213  -1.5409  -1.0983  -0.2688   0.6403
     2.3441   2.9215   3.7221

          k = 0.0909 0.2624 0.0871 ( 11008 PWs)   bands (ev):

   -48.6446 -48.3940 -45.7921  -6.9210  -1.6810  -0.8644  -0.2629   0.6392
     1.8484   3.2710   3.8075

          k = 0.0909 0.2624 0.1743 ( 11028 PWs)   bands (ev):

   -48.6446 -48.3940 -45.7921  -6.9206  -1.8139  -0.5229  -0.2690   0.6365
     1.3297   3.4124   3.9579

          k = 0.0909 0.3674 0.0000 ( 11021 PWs)   bands (ev):

   -48.6445 -48.3940 -45.7920  -6.6973  -1.2419  -0.8888  -0.6286   0.3206
     2.3710   2.6468   3.4664

          k = 0.0909 0.3674 0.0871 ( 11032 PWs)   bands (ev):

   -48.6445 -48.3940 -45.7920  -6.6971  -1.2721  -1.0314  -0.3602   0.3200
     2.1463   2.5589   3.5113

          k = 0.0909 0.3674 0.1743 ( 11028 PWs)   bands (ev):

   -48.6445 -48.3940 -45.7920  -6.6967  -1.3600  -1.0701  -0.0445   0.3207
     1.7880   2.4197   3.5888

          k = 0.0909 0.4724 0.0000 ( 11038 PWs)   bands (ev):

   -48.6445 -48.3939 -45.7919  -6.4975  -1.6448  -0.4580  -0.1397   0.1207
     1.4658   2.4626   3.5391

          k = 0.0909 0.4724 0.0871 ( 11025 PWs)   bands (ev):

   -48.6445 -48.3939 -45.7919  -6.4973  -1.6389  -0.6280   0.0663   0.1537
     1.4274   2.5588   3.2631

          k = 0.0909 0.4724 0.1743 ( 11044 PWs)   bands (ev):

   -48.6445 -48.3939 -45.7919  -6.4971  -1.6315  -0.7674   0.1026   0.3844
     1.4116   2.4492   3.1359

          k = 0.0909 0.5774 0.0000 ( 11015 PWs)   bands (ev):

   -48.6444 -48.3939 -45.7918  -6.4143  -1.8422  -0.0889   0.0932   0.1654
     0.8680   2.2172   3.4992

          k = 0.0909 0.5774 0.0871 ( 11042 PWs)   bands (ev):

   -48.6444 -48.3939 -45.7918  -6.4142  -1.8391  -0.2298   0.0386   0.3909
     0.8684   2.3758   3.4620

          k = 0.0909 0.5774 0.1743 ( 11050 PWs)   bands (ev):

   -48.6444 -48.3939 -45.7918  -6.4140  -1.8341  -0.3644   0.0347   0.5114
     0.9686   2.7247   3.1522

          k = 0.1818 0.3149 0.0000 ( 11027 PWs)   bands (ev):

   -48.6445 -48.3940 -45.7920  -6.7276  -1.2215  -0.7938  -0.6999   0.1793
     2.5316   2.9692   3.2210

          k = 0.1818 0.3149 0.0871 ( 11028 PWs)   bands (ev):

   -48.6445 -48.3940 -45.7920  -6.7274  -1.3187  -0.8621  -0.4427   0.1816
     2.1801   3.0231   3.1989

          k = 0.1818 0.3149 0.1743 ( 11025 PWs)   bands (ev):

   -48.6445 -48.3940 -45.7920  -6.7270  -1.4293  -0.8792  -0.1307   0.1891
     1.7338   3.0190   3.1167

          k = 0.1818 0.4199 0.0000 ( 11025 PWs)   bands (ev):

   -48.6445 -48.3939 -45.7919  -6.5227  -1.4137  -0.6029  -0.2831  -0.1169
     2.0777   2.6444   2.8556

          k = 0.1818 0.4199 0.0871 ( 11035 PWs)   bands (ev):

   -48.6445 -48.3939 -45.7919  -6.5226  -1.4061  -0.7586  -0.2172   0.0466
     2.0110   2.6239   2.8306

          k = 0.1818 0.4199 0.1743 ( 11033 PWs)   bands (ev):

   -48.6445 -48.3939 -45.7919  -6.5223  -1.3953  -0.8961  -0.2082   0.3195
     1.9755   2.3528   2.7828

          k = 0.1818 0.5249 0.0000 ( 11032 PWs)   bands (ev):

   -48.6444 -48.3939 -45.7918  -6.3843  -1.7146  -0.4380   0.0562   0.1975
     1.1899   2.4688   2.6926

          k = 0.1818 0.5249 0.0871 ( 11044 PWs)   bands (ev):

   -48.6444 -48.3939 -45.7918  -6.3842  -1.7119  -0.4386  -0.1402   0.4341
     1.1752   2.5969   2.7103

          k = 0.1818 0.5249 0.1743 ( 11037 PWs)   bands (ev):

   -48.6444 -48.3939 -45.7918  -6.3840  -1.7078  -0.4361  -0.2803   0.6083
     1.2156   2.6303   2.9397

          k = 0.2727 0.4724 0.0000 ( 11027 PWs)   bands (ev):

   -48.6444 -48.3939 -45.7918  -6.3736  -1.5966  -0.6741   0.0344   0.1919
     1.6879   2.0338   2.7016

          k = 0.2727 0.4724 0.0871 ( 11023 PWs)   bands (ev):

   -48.6444 -48.3939 -45.7918  -6.3735  -1.5946  -0.6680  -0.1653   0.4339
     1.6543   2.0228   2.8249

          k = 0.2727 0.4724 0.1743 ( 11042 PWs)   bands (ev):

   -48.6444 -48.3939 -45.7918  -6.3733  -1.5913  -0.6560  -0.3137   0.6416
     1.6540   2.0171   2.9165

          k = 0.2727 0.5774 0.0000 ( 11023 PWs)   bands (ev):

   -48.6444 -48.3939 -45.7918  -6.3137  -1.6636  -0.8181   0.3188   0.6265
     1.0793   1.8927   2.7269

          k = 0.2727 0.5774 0.0871 ( 11047 PWs)   bands (ev):

   -48.6444 -48.3939 -45.7918  -6.3136  -1.6626  -0.8111   0.1798   0.7414
     1.1156   1.8776   2.9104

          k = 0.2727 0.5774 0.1743 ( 11028 PWs)   bands (ev):

   -48.6444 -48.3939 -45.7918  -6.3134  -1.6610  -0.7992   0.0513   0.7545
     1.2717   1.8673   3.3024

          k = 0.0000-0.1050 0.0871 ( 10987 PWs)   bands (ev):

   -48.6447 -48.3941 -45.7923  -7.1975  -2.1482  -1.3059   0.9725   1.2764
     1.4222   3.1386   5.0308

          k = 0.0000-0.1050 0.1743 ( 10946 PWs)   bands (ev):

   -48.6447 -48.3941 -45.7923  -7.1970  -2.2892  -0.9160   0.6347   1.1455
     1.2766   3.7639   5.0621

          k = 0.0000-0.2099 0.0871 ( 11000 PWs)   bands (ev):

   -48.6446 -48.3940 -45.7922  -7.0536  -1.9142  -1.0716   0.2061   0.9711
     1.6414   3.2641   4.1615

          k = 0.0000-0.2099 0.1743 ( 10999 PWs)   bands (ev):

   -48.6446 -48.3940 -45.7922  -7.0531  -2.0508  -0.6921   0.1498   0.9715
     1.1057   3.7025   4.2364

          k = 0.0000-0.3149 0.0871 ( 11030 PWs)   bands (ev):

   -48.6446 -48.3940 -45.7920  -6.8413  -1.5396  -0.7549  -0.5698   0.6462
     1.9897   2.9109   3.5591

          k = 0.0000-0.3149 0.1743 ( 11028 PWs)   bands (ev):

   -48.6446 -48.3940 -45.7920  -6.8409  -1.6624  -0.6911  -0.3071   0.6469
     1.4812   2.8854   3.8420

          k = 0.0000-0.4199 0.0871 ( 11013 PWs)   bands (ev):

   -48.6445 -48.3940 -45.7919  -6.6132  -1.4411  -0.9356  -0.1903   0.3953
     1.8455   2.4011   3.4209

          k = 0.0000-0.4199 0.1743 ( 11030 PWs)   bands (ev):

   -48.6445 -48.3940 -45.7919  -6.6129  -1.4248  -1.0937   0.1276   0.3960
     1.8184   2.0381   3.4292

          k = 0.0000-0.5249 0.0871 ( 11027 PWs)   bands (ev):

   -48.6444 -48.3939 -45.7918  -6.4563  -1.8178  -0.4045   0.2523   0.2616
     1.0000   2.3538   3.4890

          k = 0.0000-0.5249 0.1743 ( 11032 PWs)   bands (ev):

   -48.6444 -48.3939 -45.7918  -6.4561  -1.8116  -0.5502   0.2624   0.4615
     1.0327   2.5699   3.0732

          k =-0.0909-0.2624 0.0871 ( 11008 PWs)   bands (ev):

   -48.6446 -48.3940 -45.7921  -6.9210  -1.6836  -0.8515  -0.2775   0.6406
     1.8598   3.2771   3.7467

          k =-0.0909-0.2624 0.1743 ( 11028 PWs)   bands (ev):

   -48.6446 -48.3940 -45.7921  -6.9206  -1.8148  -0.5011  -0.2941   0.6381
     1.3352   3.4203   3.9169

          k =-0.0909-0.3674 0.0871 ( 11032 PWs)   bands (ev):

   -48.6445 -48.3940 -45.7920  -6.6971  -1.3001  -0.9814  -0.3880   0.3227
     2.2057   2.4834   3.5044

          k =-0.0909-0.3674 0.1743 ( 11028 PWs)   bands (ev):

   -48.6445 -48.3940 -45.7920  -6.6967  -1.3712  -1.0515  -0.0581   0.3241
     1.8053   2.3980   3.5822

          k =-0.0909-0.4724 0.0871 ( 11025 PWs)   bands (ev):

   -48.6445 -48.3939 -45.7919  -6.4973  -1.6416  -0.6154   0.0449   0.1647
     1.4356   2.4857   3.4090

          k =-0.0909-0.4724 0.1743 ( 11044 PWs)   bands (ev):

   -48.6445 -48.3939 -45.7919  -6.4971  -1.6333  -0.7619   0.0992   0.3836
     1.4185   2.3994   3.2150

          k =-0.1818-0.4199 0.0871 ( 11035 PWs)   bands (ev):

   -48.6445 -48.3939 -45.7919  -6.5226  -1.4095  -0.7458  -0.2324   0.0518
     2.0460   2.5001   2.9136

          k =-0.1818-0.4199 0.1743 ( 11033 PWs)   bands (ev):

   -48.6445 -48.3939 -45.7919  -6.5223  -1.3978  -0.8902  -0.2122   0.3196
     2.0138   2.2802   2.8143

          k =-0.1818-0.5249 0.0871 ( 11044 PWs)   bands (ev):

   -48.6444 -48.3939 -45.7918  -6.3842  -1.7124  -0.4332  -0.1455   0.4347
     1.1789   2.5186   2.7747

          k =-0.1818-0.5249 0.1743 ( 11037 PWs)   bands (ev):

   -48.6444 -48.3939 -45.7918  -6.3840  -1.7082  -0.4306  -0.2854   0.6082
     1.2187   2.5885   2.9495

     the Fermi energy is    -0.0965 ev

!    total energy              =     -51.38101807 Ry
     estimated scf accuracy    <          8.7E-09 Ry
     smearing contrib. (-TS)   =      -0.00024654 Ry
     internal energy E=F+TS    =     -51.38077153 Ry

     The total energy is F=E-TS. E is the sum of the following terms:
     one-electron contribution =     -36.85270181 Ry
     hartree contribution      =      15.07948987 Ry
     xc contribution           =     -12.76394144 Ry
     ewald contribution        =     -16.84361814 Ry

     convergence has been achieved in  10 iterations

     Forces acting on atoms (cartesian axes, Ry/au):

     atom    1 type  1   force =     0.00000000   -0.00000000    0.02227259
     atom    2 type  2   force =     0.00000000    0.00000000   -0.10458048
     atom    3 type  2   force =     0.00000000    0.00000000    0.09753691
     atom    4 type  2   force =     0.00000000   -0.00000000   -0.01522902
     The non-local contrib.  to forces
     atom    1 type  1   force =     0.00000000   -0.00000000    0.04595849
     atom    2 type  2   force =     0.00000000    0.00000000    0.02820022
     atom    3 type  2   force =     0.00000000    0.00000000   -0.01507842
     atom    4 type  2   force =     0.00000000   -0.00000000   -0.04552507
     The ionic contribution  to forces
     atom    1 type  1   force =     0.00000004   -0.00000003    0.17674871
     atom    2 type  2   force =    -0.00000000    0.00000000   -0.60809452
     atom    3 type  2   force =     0.00000000   -0.00000000    0.96225038
     atom    4 type  2   force =    -0.00000004    0.00000003   -0.53090457
     The local contribution  to forces
     atom    1 type  1   force =     0.00000001   -0.00000001   -0.19737702
     atom    2 type  2   force =    -0.00000000   -0.00000000    0.47526467
     atom    3 type  2   force =     0.00000000    0.00000000   -0.84964480
     atom    4 type  2   force =    -0.00000076    0.00000044    0.56125121
     The core correction contribution to forces
     atom    1 type  1   force =    -0.00000000    0.00000000   -0.00301223
     atom    2 type  2   force =     0.00000000    0.00000000    0.00000000
     atom    3 type  2   force =     0.00000000    0.00000000    0.00000000
     atom    4 type  2   force =     0.00000000    0.00000000    0.00000000
     The Hubbard contrib.    to forces
     atom    1 type  1   force =     0.00000000    0.00000000    0.00000000
     atom    2 type  2   force =     0.00000000    0.00000000    0.00000000
     atom    3 type  2   force =     0.00000000    0.00000000    0.00000000
     atom    4 type  2   force =     0.00000000    0.00000000    0.00000000
     The SCF correction term to forces
     atom    1 type  1   force =     0.00000000   -0.00000000   -0.00004472
     atom    2 type  2   force =    -0.00000000    0.00000000    0.00004979
     atom    3 type  2   force =     0.00000000   -0.00000000    0.00001038
     atom    4 type  2   force =    -0.00000000    0.00000000   -0.00004996

     Total force =     0.145528     Total SCF correction =     0.000084


     Computing stress (Cartesian axis) and pressure

          total   stress  (Ry/bohr**3)                   (kbar)     P=       -4.94
  -0.00011227   0.00000000   0.00000000          -16.52        0.00        0.00
   0.00000000  -0.00011227   0.00000000            0.00      -16.52        0.00
   0.00000000   0.00000000   0.00012377            0.00        0.00       18.21


     BFGS Geometry Optimization
     Energy error            =      0.0E+00 Ry
     Gradient error          =      1.0E-01 Ry/Bohr
     Cell gradient error     =      5.2E+02 kbar

     number of scf cycles    =   1
     number of bfgs steps    =   0

     enthalpy           new  =     -48.2802815829 Ry

     new trust radius        =       0.5000000000 bohr
ibrav =      4
 celldm(1) =      7.07544226
 celldm(3) =      2.30882452
Input lattice vectors:
     0.91722890     0.00000000     0.00000000
    -0.45861445     0.79434352     0.00000000
     0.00000000     0.00000000     2.11772056
New lattice vectors in INITIAL alat:
     0.91722890     0.00000000     0.00000000
    -0.45861445     0.79434352     0.00000000
     0.00000000     0.00000000     2.11772056
New lattice vectors in NEW alat (for information only):
     1.00000000     0.00000000     0.00000000
    -0.50000000     0.86602540     0.00000000
     0.00000000     0.00000000     2.30882452
Discrepancy in bohr =     0.000000    0.000000    0.000000
     new conv_thr            =       0.0000000100 Ry

     new unit-cell volume =    708.24307 a.u.^3 (   104.95079 Ang^3 )
     density =      0.77383 g/cm^3

CELL_PARAMETERS (alat=  7.71393301)
   0.917228896   0.000000000   0.000000000
  -0.458614448   0.794343525   0.000000000
   0.000000000   0.000000000   2.117720565

ATOMIC_POSITIONS (crystal)
Si            0.3333333300        0.6666666700        0.9047893516
Li            0.0000000000        0.0000000000        0.2626205107
Li            0.0000000000        0.0000000000        0.4766813128
Li            0.6666666700        0.3333333300        0.8658148249



     Writing config-only to output data dir ./output/SiLi.save/
     NEW-OLD atomic charge density approx. for the potential
     extrapolated charge    9.25918, renormalised to   13.00000

     total cpu time spent up to now is       28.1 secs

     Self-consistent Calculation

     iteration #  1     ecut=    80.00 Ry     beta= 0.70
     Davidson diagonalization with overlap
     c_bands:  1 eigenvalues not converged
     c_bands:  1 eigenvalues not converged
     c_bands:  1 eigenvalues not converged
     c_bands:  1 eigenvalues not converged
     c_bands:  1 eigenvalues not converged
     c_bands:  2 eigenvalues not converged
     c_bands:  1 eigenvalues not converged
     c_bands:  1 eigenvalues not converged
     c_bands:  1 eigenvalues not converged
     c_bands:  1 eigenvalues not converged
     c_bands:  1 eigenvalues not converged
     c_bands:  1 eigenvalues not converged
     c_bands:  1 eigenvalues not converged
     c_bands:  1 eigenvalues not converged
     c_bands:  1 eigenvalues not converged
     c_bands:  1 eigenvalues not converged
     c_bands:  1 eigenvalues not converged
     c_bands:  1 eigenvalues not converged
     c_bands:  1 eigenvalues not converged
     ethr =  1.00E-06,  avg # of iterations = 17.5

     total cpu time spent up to now is       34.9 secs

     total energy              =     -48.69059359 Ry
     estimated scf accuracy    <       2.67563662 Ry

     iteration #  2     ecut=    80.00 Ry     beta= 0.70
     Davidson diagonalization with overlap
     ethr =  1.00E-02,  avg # of iterations =  7.1

     total cpu time spent up to now is       38.2 secs

     total energy              =     -50.65818450 Ry
     estimated scf accuracy    <      30.16193832 Ry

     iteration #  3     ecut=    80.00 Ry     beta= 0.70
     Davidson diagonalization with overlap
     ethr =  1.00E-02,  avg # of iterations =  4.2

     total cpu time spent up to now is       40.4 secs

     total energy              =     -51.19775503 Ry
     estimated scf accuracy    <       4.73334011 Ry

     iteration #  4     ecut=    80.00 Ry     beta= 0.70
     Davidson diagonalization with overlap
     ethr =  1.00E-02,  avg # of iterations =  2.7

     total cpu time spent up to now is       42.1 secs

     total energy              =     -51.42304787 Ry
     estimated scf accuracy    <       0.51850363 Ry

     iteration #  5     ecut=    80.00 Ry     beta= 0.70
     Davidson diagonalization with overlap
     ethr =  3.99E-03,  avg # of iterations =  1.8

     total cpu time spent up to now is       43.6 secs

     total energy              =     -51.41438593 Ry
     estimated scf accuracy    <       0.33239107 Ry

     iteration #  6     ecut=    80.00 Ry     beta= 0.70
     Davidson diagonalization with overlap
     ethr =  2.56E-03,  avg # of iterations =  2.0

     total cpu time spent up to now is       45.2 secs

     total energy              =     -51.36380647 Ry
     estimated scf accuracy    <       0.21124191 Ry

     iteration #  7     ecut=    80.00 Ry     beta= 0.70
     Davidson diagonalization with overlap
     ethr =  1.62E-03,  avg # of iterations =  2.3

     total cpu time spent up to now is       46.8 secs

     total energy              =     -51.39402322 Ry
     estimated scf accuracy    <       0.01282229 Ry

     iteration #  8     ecut=    80.00 Ry     beta= 0.70
     Davidson diagonalization with overlap
     ethr =  9.86E-05,  avg # of iterations =  3.8

     total cpu time spent up to now is       48.5 secs

     total energy              =     -51.39286593 Ry
     estimated scf accuracy    <       0.00932427 Ry

     iteration #  9     ecut=    80.00 Ry     beta= 0.70
     Davidson diagonalization with overlap
     ethr =  7.17E-05,  avg # of iterations =  1.1

     total cpu time spent up to now is       49.9 secs

     total energy              =     -51.39390952 Ry
     estimated scf accuracy    <       0.00017113 Ry

     iteration # 10     ecut=    80.00 Ry     beta= 0.70
     Davidson diagonalization with overlap
     ethr =  1.32E-06,  avg # of iterations =  6.8

     total cpu time spent up to now is       52.0 secs

     total energy              =     -51.39390615 Ry
     estimated scf accuracy    <       0.00009650 Ry

     iteration # 11     ecut=    80.00 Ry     beta= 0.70
     Davidson diagonalization with overlap
     ethr =  7.42E-07,  avg # of iterations =  1.0

     total cpu time spent up to now is       53.4 secs

     total energy              =     -51.39391181 Ry
     estimated scf accuracy    <       0.00000445 Ry

     iteration # 12     ecut=    80.00 Ry     beta= 0.70
     Davidson diagonalization with overlap
     ethr =  3.42E-08,  avg # of iterations =  1.8

     total cpu time spent up to now is       55.0 secs

     total energy              =     -51.39391266 Ry
     estimated scf accuracy    <       0.00000062 Ry

     iteration # 13     ecut=    80.00 Ry     beta= 0.70
     Davidson diagonalization with overlap
     ethr =  4.78E-09,  avg # of iterations =  1.4

     total cpu time spent up to now is       56.4 secs

     End of self-consistent calculation

          k = 0.0000 0.0000 0.0000 ( 10983 PWs)   bands (ev):

   -47.4254 -47.1124 -44.9454  -6.8839  -1.4066  -1.3358   2.8306   2.8306
     3.0780   3.7617   7.1228

          k = 0.0000 0.0000 0.0944 ( 10959 PWs)   bands (ev):

   -47.4254 -47.1124 -44.9454  -6.8831  -1.7483  -0.8582   2.3262   2.8307
     2.8307   4.5653   7.1526

          k = 0.0000 0.0000 0.1889 ( 10898 PWs)   bands (ev):

   -47.4254 -47.1124 -44.9454  -6.8820  -1.9439  -0.3590   1.5746   2.8309
     2.8309   5.4051   7.2126

          k = 0.0000 0.1144 0.0000 ( 10997 PWs)   bands (ev):

   -47.4253 -47.1124 -44.9452  -6.8160  -1.3134  -1.2433   2.3347   2.6281
     3.2160   3.8536   6.8992

          k = 0.0000 0.1144 0.0944 ( 10987 PWs)   bands (ev):

   -47.4253 -47.1124 -44.9452  -6.8152  -1.6549  -0.7664   2.2240   2.5798
     2.6283   4.6418   6.9161

          k = 0.0000 0.1144 0.1889 ( 10946 PWs)   bands (ev):

   -47.4253 -47.1124 -44.9452  -6.8141  -1.8503  -0.2681   1.6289   2.4301
     2.6287   5.4387   6.9880

          k = 0.0000 0.2289 0.0000 ( 11005 PWs)   bands (ev):

   -47.4251 -47.1123 -44.9448  -6.6192  -1.0485  -0.9583   1.3253   2.1900
     3.4672   4.1086   6.0974

          k = 0.0000 0.2289 0.0944 ( 11000 PWs)   bands (ev):

   -47.4251 -47.1123 -44.9448  -6.6185  -1.3775  -0.4972   1.3145   2.1904
     2.7603   4.8173   6.1030

          k = 0.0000 0.2289 0.1889 ( 10999 PWs)   bands (ev):

   -47.4251 -47.1123 -44.9448  -6.6174  -1.5718  -0.0038   1.2462   2.1028
     2.1912   5.4141   6.1342

          k = 0.0000 0.3433 0.0000 ( 11025 PWs)   bands (ev):

   -47.4249 -47.1121 -44.9443  -6.3194  -0.6642  -0.4807   0.2628   1.7481
     3.7750   4.4011   4.9320

          k = 0.0000 0.3433 0.0944 ( 11030 PWs)   bands (ev):

   -47.4249 -47.1121 -44.9443  -6.3188  -0.9330  -0.1418   0.3206   1.7487
     3.1703   4.5660   5.1863

          k = 0.0000 0.3433 0.1889 ( 11028 PWs)   bands (ev):

   -47.4249 -47.1121 -44.9443  -6.3178  -1.1211   0.0983   0.5393   1.7497
     2.5134   4.5022   5.4900

          k = 0.0000 0.4578 0.0000 ( 11025 PWs)   bands (ev):

   -47.4246 -47.1119 -44.9438  -5.9798  -0.8525   0.0567   0.1724   1.4174
     3.3980   3.8355   5.0479

          k = 0.0000 0.4578 0.0944 ( 11013 PWs)   bands (ev):

   -47.4246 -47.1119 -44.9438  -5.9793  -0.8452  -0.2628   0.6034   1.4181
     3.2451   3.8337   4.5071

          k = 0.0000 0.4578 0.1889 ( 11030 PWs)   bands (ev):

   -47.4246 -47.1119 -44.9438  -5.9785  -0.8428  -0.4494   1.0398   1.4192
     3.0540   3.3578   4.6922

          k = 0.0000 0.5722 0.0000 ( 11027 PWs)   bands (ev):

   -47.4245 -47.1118 -44.9436  -5.7301  -1.3771   0.5946   0.7952   1.2439
     2.4819   3.1416   5.3149

          k = 0.0000 0.5722 0.0944 ( 11027 PWs)   bands (ev):

   -47.4245 -47.1118 -44.9436  -5.7297  -1.3724   0.3223   1.1434   1.2447
     2.4074   3.3863   4.6735

          k = 0.0000 0.5722 0.1889 ( 11032 PWs)   bands (ev):

   -47.4245 -47.1118 -44.9436  -5.7291  -1.3654   0.1298   1.4680   2.3933
     3.7816   4.0302   5.4331

          k = 0.0991 0.1717 0.0000 ( 11011 PWs)   bands (ev):

   -47.4252 -47.1123 -44.9450  -6.6834  -1.1342  -1.0542   1.6608   2.2470
     3.3963   4.0274   6.5721

          k = 0.0991 0.1717 0.0944 ( 10995 PWs)   bands (ev):

   -47.4252 -47.1123 -44.9450  -6.6827  -1.4698  -0.5841   1.6359   2.2408
     2.6993   4.7664   6.5880

          k = 0.0991 0.1717 0.1889 ( 10999 PWs)   bands (ev):

   -47.4252 -47.1123 -44.9450  -6.6816  -1.6642  -0.0884   1.4972   2.0631
     2.2809   5.4643   6.6044

          k = 0.0991 0.2861 0.0000 ( 11023 PWs)   bands (ev):

   -47.4250 -47.1121 -44.9445  -6.4335  -0.8009  -0.6695   0.6886   1.7438
     3.6875   4.3433   5.5102

          k = 0.0991 0.2861 0.0944 ( 11008 PWs)   bands (ev):

   -47.4250 -47.1121 -44.9445  -6.4329  -1.1061  -0.2405   0.6917   1.7403
     3.0297   4.8834   5.5492

          k = 0.0991 0.2861 0.1889 ( 11028 PWs)   bands (ev):

   -47.4250 -47.1121 -44.9445  -6.4319  -1.2976   0.2284   0.6817   1.7244
     2.3698   5.1279   5.6692

          k = 0.0991 0.4006 0.0000 ( 11021 PWs)   bands (ev):

   -47.4247 -47.1120 -44.9440  -6.1073  -0.5477  -0.1247  -0.0420   1.3373
     3.8528   4.1495   4.9116

          k = 0.0991 0.4006 0.0944 ( 11032 PWs)   bands (ev):

   -47.4247 -47.1120 -44.9440  -6.1068  -0.6380  -0.3247   0.3723   1.3365
     3.4432   4.0955   4.9380

          k = 0.0991 0.4006 0.1889 ( 11028 PWs)   bands (ev):

   -47.4247 -47.1120 -44.9440  -6.1059  -0.7863  -0.3471   0.8046   1.3348
     2.8883   3.9134   5.1294

          k = 0.0991 0.5150 0.0000 ( 11038 PWs)   bands (ev):

   -47.4245 -47.1118 -44.9436  -5.7971  -1.1489   0.3727   0.5677   1.0886
     2.9287   3.5470   5.1262

          k = 0.0991 0.5150 0.0944 ( 11025 PWs)   bands (ev):

   -47.4245 -47.1118 -44.9436  -5.7967  -1.1434   0.0969   0.9153   1.1144
     2.8242   3.7668   4.5070

          k = 0.0991 0.5150 0.1889 ( 11044 PWs)   bands (ev):

   -47.4245 -47.1118 -44.9436  -5.7960  -1.1363  -0.0920   1.0468   1.3736
     2.7535   3.6431   4.3277

          k = 0.0991 0.6295 0.0000 ( 11015 PWs)   bands (ev):

   -47.4244 -47.1118 -44.9435  -5.6602  -1.4299   0.7107   0.9835   1.0397
     2.3329   3.0869   5.1945

          k = 0.0991 0.6295 0.0944 ( 11042 PWs)   bands (ev):

   -47.4244 -47.1118 -44.9435  -5.6598  -1.4263   0.5007   0.9646   1.3276
     2.2772   3.3183   4.9779

          k = 0.0991 0.6295 0.1889 ( 11050 PWs)   bands (ev):

   -47.4244 -47.1118 -44.9435  -5.6592  -1.4203   0.3233   0.9672   1.5484
     2.3403   3.7407   4.3562

          k = 0.1982 0.3433 0.0000 ( 11027 PWs)   bands (ev):

   -47.4247 -47.1120 -44.9441  -6.1526  -0.4615  -0.1965   0.0023   1.1736
     3.9403   4.6068   4.7587

          k = 0.1982 0.3433 0.0944 ( 11028 PWs)   bands (ev):

   -47.4247 -47.1120 -44.9441  -6.1520  -0.6797  -0.1269   0.2718   1.1754
     3.4320   4.6256   4.8661

          k = 0.1982 0.3433 0.1889 ( 11025 PWs)   bands (ev):

   -47.4247 -47.1120 -44.9441  -6.1511  -0.8542  -0.1159   0.6894   1.1787
     2.8227   4.4883   4.8971

          k = 0.1982 0.4578 0.0000 ( 11025 PWs)   bands (ev):

   -47.4245 -47.1118 -44.9437  -5.8378  -0.8610   0.1648   0.4231   0.8215
     3.5348   3.9491   4.5222

          k = 0.1982 0.4578 0.0944 ( 11035 PWs)   bands (ev):

   -47.4245 -47.1118 -44.9437  -5.8373  -0.8560  -0.0658   0.6239   0.9587
     3.3702   4.0029   4.4958

          k = 0.1982 0.4578 0.1889 ( 11033 PWs)   bands (ev):

   -47.4245 -47.1118 -44.9437  -5.8366  -0.8498  -0.2416   0.6805   1.3008
     3.2379   3.5970   4.4741

          k = 0.1982 0.5722 0.0000 ( 11032 PWs)   bands (ev):

   -47.4244 -47.1118 -44.9434  -5.6099  -1.3168   0.3646   0.9513   1.0633
     2.5676   3.4386   4.3831

          k = 0.1982 0.5722 0.0944 ( 11044 PWs)   bands (ev):

   -47.4244 -47.1118 -44.9434  -5.6095  -1.3141   0.3477   0.6967   1.3973
     2.5097   3.6775   4.3520

          k = 0.1982 0.5722 0.1889 ( 11037 PWs)   bands (ev):

   -47.4244 -47.1118 -44.9434  -5.6089  -1.3102   0.3073   0.5613   1.6538
     2.5352   4.0512   4.3163

          k = 0.2973 0.5150 0.0000 ( 11027 PWs)   bands (ev):

   -47.4244 -47.1118 -44.9434  -5.5920  -1.2098   0.1123   0.9511   1.0612
     2.8766   3.7588   3.8904

          k = 0.2973 0.5150 0.0944 ( 11023 PWs)   bands (ev):

   -47.4244 -47.1118 -44.9434  -5.5916  -1.2086   0.1167   0.6660   1.4210
     2.7935   3.8121   4.0212

          k = 0.2973 0.5150 0.1889 ( 11042 PWs)   bands (ev):

   -47.4244 -47.1118 -44.9434  -5.5910  -1.2065   0.1233   0.4874   1.7104
     2.7858   3.7905   4.1473

          k = 0.2973 0.6295 0.0000 ( 11023 PWs)   bands (ev):

   -47.4243 -47.1117 -44.9433  -5.4877  -1.3579  -0.0089   1.2038   1.5980
     2.2576   3.6574   3.7005

          k = 0.2973 0.6295 0.0944 ( 11047 PWs)   bands (ev):

   -47.4243 -47.1117 -44.9433  -5.4873  -1.3571   0.0025   1.0203   1.7518
     2.2920   3.6574   3.9106

          k = 0.2973 0.6295 0.1889 ( 11028 PWs)   bands (ev):

   -47.4243 -47.1117 -44.9433  -5.4868  -1.3559   0.0222   0.8528   1.7534
     2.5347   3.6091   4.3870

          k = 0.0000-0.1144 0.0944 ( 10987 PWs)   bands (ev):

   -47.4253 -47.1124 -44.9452  -6.8152  -1.6550  -0.7660   2.2160   2.5898
     2.6284   4.6375   6.9412

          k = 0.0000-0.1144 0.1889 ( 10946 PWs)   bands (ev):

   -47.4253 -47.1124 -44.9452  -6.8141  -1.8503  -0.2677   1.6271   2.4323
     2.6288   5.4366   7.0166

          k = 0.0000-0.2289 0.0944 ( 11000 PWs)   bands (ev):

   -47.4251 -47.1123 -44.9448  -6.6185  -1.3792  -0.4925   1.3051   2.1905
     2.7755   4.8052   6.0479

          k = 0.0000-0.2289 0.1889 ( 10999 PWs)   bands (ev):

   -47.4251 -47.1123 -44.9448  -6.6174  -1.5724   0.0003   1.2350   2.1133
     2.1912   5.4246   6.0694

          k = 0.0000-0.3433 0.0944 ( 11030 PWs)   bands (ev):

   -47.4249 -47.1121 -44.9443  -6.3188  -0.9424  -0.0990   0.2839   1.7487
     3.1882   4.5675   5.0777

          k = 0.0000-0.3433 0.1889 ( 11028 PWs)   bands (ev):

   -47.4249 -47.1121 -44.9443  -6.3178  -1.1240   0.1223   0.5148   1.7497
     2.5208   4.4990   5.4445

          k = 0.0000-0.4578 0.0944 ( 11013 PWs)   bands (ev):

   -47.4246 -47.1119 -44.9438  -5.9793  -0.8557  -0.2431   0.5980   1.4181
     3.2762   3.6783   4.7086

          k = 0.0000-0.4578 0.1889 ( 11030 PWs)   bands (ev):

   -47.4246 -47.1119 -44.9438  -5.9785  -0.8509  -0.4382   1.0404   1.4192
     3.0671   3.3081   4.7604

          k = 0.0000-0.5722 0.0944 ( 11027 PWs)   bands (ev):

   -47.4245 -47.1118 -44.9436  -5.7297  -1.3732   0.3208   1.1612   1.2447
     2.3831   3.3486   4.8570

          k = 0.0000-0.5722 0.1889 ( 11032 PWs)   bands (ev):

   -47.4245 -47.1118 -44.9436  -5.7291  -1.3659   0.1299   1.2458   1.4823
     2.3750   3.6476   4.2339

          k =-0.0991-0.2861 0.0944 ( 11008 PWs)   bands (ev):

   -47.4250 -47.1121 -44.9445  -6.4329  -1.1089  -0.2311   0.6817   1.7418
     3.0382   4.8975   5.4423

          k =-0.0991-0.2861 0.1889 ( 11028 PWs)   bands (ev):

   -47.4250 -47.1121 -44.9445  -6.4318  -1.2985   0.2403   0.6670   1.7265
     2.3733   5.1486   5.5944

          k =-0.0991-0.4006 0.0944 ( 11032 PWs)   bands (ev):

   -47.4247 -47.1120 -44.9440  -6.1068  -0.6634  -0.2796   0.3505   1.3390
     3.4717   4.0199   4.9581

          k =-0.0991-0.4006 0.1889 ( 11028 PWs)   bands (ev):

   -47.4247 -47.1120 -44.9440  -6.1059  -0.7943  -0.3333   0.7959   1.3381
     2.8918   3.8950   5.1302

          k =-0.0991-0.5150 0.0944 ( 11025 PWs)   bands (ev):

   -47.4245 -47.1118 -44.9436  -5.7967  -1.1457   0.1029   0.9053   1.1305
     2.8156   3.6550   4.7311

          k =-0.0991-0.5150 0.1889 ( 11044 PWs)   bands (ev):

   -47.4245 -47.1118 -44.9436  -5.7960  -1.1378  -0.0890   1.0420   1.3864
     2.7440   3.5663   4.4571

          k =-0.1982-0.4578 0.0944 ( 11035 PWs)   bands (ev):

   -47.4245 -47.1118 -44.9437  -5.8373  -0.8589  -0.0562   0.6082   0.9705
     3.3953   3.8788   4.5805

          k =-0.1982-0.4578 0.1889 ( 11033 PWs)   bands (ev):

   -47.4245 -47.1118 -44.9437  -5.8366  -0.8519  -0.2373   0.6760   1.3057
     3.2558   3.5463   4.4963

          k =-0.1982-0.5722 0.0944 ( 11044 PWs)   bands (ev):

   -47.4244 -47.1118 -44.9434  -5.6095  -1.3146   0.3546   0.6831   1.4159
     2.4958   3.6394   4.3734

          k =-0.1982-0.5722 0.1889 ( 11037 PWs)   bands (ev):

   -47.4244 -47.1118 -44.9434  -5.6089  -1.3105   0.3119   0.5549   1.6647
     2.5258   3.9433   4.3896

     the Fermi energy is     0.7722 ev

!    total energy              =     -51.39391273 Ry
     estimated scf accuracy    <          8.1E-09 Ry
     smearing contrib. (-TS)   =      -0.00023329 Ry
     internal energy E=F+TS    =     -51.39367944 Ry

     The total energy is F=E-TS. E is the sum of the following terms:
     one-electron contribution =     -34.37272893 Ry
     hartree contribution      =      14.34896918 Ry
     xc contribution           =     -12.91420671 Ry
     ewald contribution        =     -18.45571298 Ry

     convergence has been achieved in  13 iterations

     Forces acting on atoms (cartesian axes, Ry/au):

     atom    1 type  1   force =     0.00000000    0.00000000    0.04637447
     atom    2 type  2   force =     0.00000000   -0.00000000   -0.11160744
     atom    3 type  2   force =     0.00000000    0.00000000    0.10330340
     atom    4 type  2   force =     0.00000000    0.00000000   -0.03807043
     The non-local contrib.  to forces
     atom    1 type  1   force =     0.00000000    0.00000000    0.07040302
     atom    2 type  2   force =     0.00000000    0.00000000    0.05315388
     atom    3 type  2   force =     0.00000000    0.00000000   -0.03640639
     atom    4 type  2   force =     0.00000000    0.00000000   -0.04991418
     The ionic contribution  to forces
     atom    1 type  1   force =     0.00000005   -0.00000003    0.23159675
     atom    2 type  2   force =    -0.00000000    0.00000000   -0.47946505
     atom    3 type  2   force =     0.00000000   -0.00000000    0.91170800
     atom    4 type  2   force =    -0.00000005    0.00000003   -0.66383969
     The local contribution  to forces
     atom    1 type  1   force =     0.00000001   -0.00000000   -0.25113208
     atom    2 type  2   force =     0.00000000   -0.00000000    0.31470644
     atom    3 type  2   force =     0.00000000    0.00000000   -0.77196189
     atom    4 type  2   force =    -0.00000069    0.00000040    0.67568424
     The core correction contribution to forces
     atom    1 type  1   force =    -0.00000000    0.00000000   -0.00453620
     atom    2 type  2   force =     0.00000000    0.00000000    0.00000000
     atom    3 type  2   force =     0.00000000    0.00000000    0.00000000
     atom    4 type  2   force =     0.00000000    0.00000000    0.00000000
     The Hubbard contrib.    to forces
     atom    1 type  1   force =     0.00000000    0.00000000    0.00000000
     atom    2 type  2   force =     0.00000000    0.00000000    0.00000000
     atom    3 type  2   force =     0.00000000    0.00000000    0.00000000
     atom    4 type  2   force =     0.00000000    0.00000000    0.00000000
     The SCF correction term to forces
     atom    1 type  1   force =    -0.00000000    0.00000000    0.00004763
     atom    2 type  2   force =     0.00000000   -0.00000000    0.00000195
     atom    3 type  2   force =    -0.00000000   -0.00000000   -0.00003166
     atom    4 type  2   force =     0.00000000   -0.00000000    0.00000386

     Total force =     0.163486     Total SCF correction =     0.000057


     Computing stress (Cartesian axis) and pressure

          total   stress  (Ry/bohr**3)                   (kbar)     P=       21.36
   0.00014589   0.00000000   0.00000000           21.46        0.00        0.00
  -0.00000000   0.00014589  -0.00000000           -0.00       21.46       -0.00
   0.00000000   0.00000000   0.00014390            0.00        0.00       21.17

     Energy error            =      7.1E-01 Ry
     Gradient error          =      1.1E-01 Ry/Bohr
     Cell gradient error     =      4.8E+02 kbar

     number of scf cycles    =   2
     number of bfgs steps    =   1

     enthalpy           old  =     -48.2802815829 Ry
     enthalpy           new  =     -48.9866434715 Ry

     CASE: enthalpy          _new < enthalpy          _old

     new trust radius        =       0.7204659164 bohr
ibrav =      4
 celldm(1) =      6.11770613
 celldm(3) =      2.31200824
Input lattice vectors:
     0.79307224     0.00000000     0.00000000
    -0.39653612     0.68682071    -0.00000000
     0.00000000    -0.00000000     1.83358956
New lattice vectors in INITIAL alat:
     0.79307224     0.00000000     0.00000000
    -0.39653612     0.68682071     0.00000000
     0.00000000     0.00000000     1.83358956
New lattice vectors in NEW alat (for information only):
     1.00000000     0.00000000     0.00000000
    -0.50000000     0.86602540     0.00000000
     0.00000000     0.00000000     2.31200824
Discrepancy in bohr =     0.000000    0.000000    0.000000
     new conv_thr            =       0.0000000100 Ry

     new unit-cell volume =    458.44353 a.u.^3 (    67.93432 Ang^3 )
     density =      1.19549 g/cm^3

CELL_PARAMETERS (alat=  7.71393301)
   0.793072240   0.000000000   0.000000000
  -0.396536120   0.686820707   0.000000000
   0.000000000   0.000000000   1.833589556

ATOMIC_POSITIONS (crystal)
Si            0.3333333300        0.6666666700        0.9092590917
Li           -0.0000000000       -0.0000000000        0.2520363418
Li            0.0000000000        0.0000000000        0.4864754743
Li            0.6666666700        0.3333333300        0.8621350923



     Writing config-only to output data dir ./output/SiLi.save/
     NEW-OLD atomic charge density approx. for the potential

     negative rho (up, down):  2.932E-02 0.000E+00
     extrapolated charge    5.92427, renormalised to   13.00000

     total cpu time spent up to now is       60.3 secs

     Self-consistent Calculation

     iteration #  1     ecut=    80.00 Ry     beta= 0.70
     Davidson diagonalization with overlap
     c_bands:  1 eigenvalues not converged
     c_bands:  1 eigenvalues not converged
     c_bands:  2 eigenvalues not converged
     c_bands:  1 eigenvalues not converged
     c_bands:  1 eigenvalues not converged
     c_bands:  1 eigenvalues not converged
     c_bands:  1 eigenvalues not converged
     c_bands:  1 eigenvalues not converged
     c_bands:  1 eigenvalues not converged
     c_bands:  1 eigenvalues not converged
     c_bands:  2 eigenvalues not converged
     c_bands:  1 eigenvalues not converged
     c_bands:  1 eigenvalues not converged
     c_bands:  1 eigenvalues not converged
     c_bands:  1 eigenvalues not converged
     c_bands:  1 eigenvalues not converged
     c_bands:  1 eigenvalues not converged
     c_bands:  1 eigenvalues not converged
     c_bands:  1 eigenvalues not converged
     c_bands:  1 eigenvalues not converged
     c_bands:  1 eigenvalues not converged
     c_bands:  1 eigenvalues not converged
     c_bands:  3 eigenvalues not converged
     c_bands:  1 eigenvalues not converged
     c_bands:  2 eigenvalues not converged
     c_bands:  2 eigenvalues not converged
     c_bands:  2 eigenvalues not converged
     c_bands:  1 eigenvalues not converged
     c_bands:  1 eigenvalues not converged
     c_bands:  1 eigenvalues not converged
     c_bands:  1 eigenvalues not converged
     c_bands:  1 eigenvalues not converged
     c_bands:  1 eigenvalues not converged
     c_bands:  1 eigenvalues not converged
     c_bands:  1 eigenvalues not converged
     c_bands:  1 eigenvalues not converged
     ethr =  1.00E-06,  avg # of iterations = 19.0

     total cpu time spent up to now is       67.7 secs

     total energy              =     -46.98009495 Ry
     estimated scf accuracy    <       5.09937708 Ry

     iteration #  2     ecut=    80.00 Ry     beta= 0.70
     Davidson diagonalization with overlap
     ethr =  1.00E-02,  avg # of iterations =  7.7

     total cpu time spent up to now is       71.1 secs

     total energy              =     -49.91545732 Ry
     estimated scf accuracy    <      33.61658569 Ry

     iteration #  3     ecut=    80.00 Ry     beta= 0.70
     Davidson diagonalization with overlap
     ethr =  1.00E-02,  avg # of iterations =  4.5

     total cpu time spent up to now is       73.4 secs

     total energy              =     -51.17355628 Ry
     estimated scf accuracy    <       2.97277940 Ry

     iteration #  4     ecut=    80.00 Ry     beta= 0.70
     Davidson diagonalization with overlap
     ethr =  1.00E-02,  avg # of iterations =  2.5

     total cpu time spent up to now is       75.0 secs

     total energy              =     -51.24288484 Ry
     estimated scf accuracy    <       0.57709438 Ry

     iteration #  5     ecut=    80.00 Ry     beta= 0.70
     Davidson diagonalization with overlap
     ethr =  4.44E-03,  avg # of iterations =  2.5

     total cpu time spent up to now is       76.6 secs

     total energy              =     -51.28902221 Ry
     estimated scf accuracy    <       0.14107397 Ry

     iteration #  6     ecut=    80.00 Ry     beta= 0.70
     Davidson diagonalization with overlap
     ethr =  1.09E-03,  avg # of iterations =  3.1

     total cpu time spent up to now is       78.2 secs

     total energy              =     -51.31068077 Ry
     estimated scf accuracy    <       0.03339179 Ry

     iteration #  7     ecut=    80.00 Ry     beta= 0.70
     Davidson diagonalization with overlap
     ethr =  2.57E-04,  avg # of iterations =  1.5

     total cpu time spent up to now is       79.7 secs

     total energy              =     -51.31589677 Ry
     estimated scf accuracy    <       0.00521844 Ry

     iteration #  8     ecut=    80.00 Ry     beta= 0.70
     Davidson diagonalization with overlap
     ethr =  4.01E-05,  avg # of iterations =  5.3

     total cpu time spent up to now is       81.4 secs

     total energy              =     -51.31677825 Ry
     estimated scf accuracy    <       0.00088255 Ry

     iteration #  9     ecut=    80.00 Ry     beta= 0.70
     Davidson diagonalization with overlap
     ethr =  6.79E-06,  avg # of iterations =  2.8

     total cpu time spent up to now is       83.0 secs

     total energy              =     -51.31688538 Ry
     estimated scf accuracy    <       0.00000497 Ry

     iteration # 10     ecut=    80.00 Ry     beta= 0.70
     Davidson diagonalization with overlap
     ethr =  3.82E-08,  avg # of iterations =  2.9

     total cpu time spent up to now is       84.6 secs

     total energy              =     -51.31688701 Ry
     estimated scf accuracy    <       0.00000003 Ry

     iteration # 11     ecut=    80.00 Ry     beta= 0.70
     Davidson diagonalization with overlap
     ethr =  2.59E-10,  avg # of iterations =  3.6

     total cpu time spent up to now is       86.4 secs

     End of self-consistent calculation

          k = 0.0000 0.0000 0.0000 ( 10983 PWs)   bands (ev):

   -44.5905 -44.1517 -43.7178  -5.9780  -0.6505   0.5652   5.8070   6.2837
     6.2837   7.0824  10.0977

          k = 0.0000 0.0000 0.1091 ( 10959 PWs)   bands (ev):

   -44.5905 -44.1517 -43.7178  -5.9759  -0.8111   0.9022   4.9105   6.2839
     6.2840   8.0863  10.1081

          k = 0.0000 0.0000 0.2182 ( 10898 PWs)   bands (ev):

   -44.5905 -44.1517 -43.7178  -5.9724  -0.9942   1.4809   3.9355   6.2844
     6.2844   9.2920  10.1253

          k = 0.0000 0.1324 0.0000 ( 10997 PWs)   bands (ev):

   -44.5900 -44.1513 -43.7168  -5.8797  -0.5195   0.6632   5.4791   5.8712
     6.0410   7.1899  10.0541

          k = 0.0000 0.1324 0.1091 ( 10987 PWs)   bands (ev):

   -44.5900 -44.1513 -43.7168  -5.8776  -0.6855   1.0067   4.9633   5.6558
     5.8718   8.1875  10.0629

          k = 0.0000 0.1324 0.2182 ( 10946 PWs)   bands (ev):

   -44.5900 -44.1513 -43.7168  -5.8741  -0.8724   1.5919   4.0267   5.6152
     5.8728   9.3586  10.0835

          k = 0.0000 0.2647 0.0000 ( 11005 PWs)   bands (ev):

   -44.5885 -44.1503 -43.7143  -5.5897  -0.1321   0.9546   4.0347   5.1015
     6.3430   7.4853  10.0398

          k = 0.0000 0.2647 0.1091 ( 11000 PWs)   bands (ev):

   -44.5885 -44.1503 -43.7143  -5.5876  -0.3146   1.3179   3.9999   5.1025
     5.4744   8.4282  10.0360

          k = 0.0000 0.2647 0.2182 ( 10999 PWs)   bands (ev):

   -44.5885 -44.1503 -43.7143  -5.5841  -0.5118   1.9192   3.8720   4.6167
     5.1042   9.3783  10.0088

          k = 0.0000 0.3971 0.0000 ( 11025 PWs)   bands (ev):

   -44.5866 -44.1490 -43.7109  -5.1287   0.4688   1.4073   2.4968   4.4036
     6.8218   7.9205   8.6562

          k = 0.0000 0.3971 0.1091 ( 11030 PWs)   bands (ev):

   -44.5866 -44.1490 -43.7109  -5.1266   0.2649   1.7894   2.4819   4.4048
     6.0107   8.1062   8.9160

          k = 0.0000 0.3971 0.2182 ( 11028 PWs)   bands (ev):

   -44.5866 -44.1490 -43.7109  -5.1231   0.0602   2.2106   2.6602   4.4068
     5.0423   7.9464   9.2662

          k = 0.0000 0.5294 0.0000 ( 11025 PWs)   bands (ev):

   -44.5849 -44.1478 -43.7078  -4.5615   0.6175   1.6620   2.1905   3.9077
     6.4237   6.9907   8.1327

          k = 0.0000 0.5294 0.1091 ( 11013 PWs)   bands (ev):

   -44.5849 -44.1478 -43.7078  -4.5596   0.5726   1.4669   2.5844   3.9091
     6.2363   7.0116   7.4133

          k = 0.0000 0.5294 0.2182 ( 11030 PWs)   bands (ev):

   -44.5849 -44.1478 -43.7078  -4.5564   0.5228   1.2619   3.2320   3.9113
     5.7327   6.3130   7.9056

          k = 0.0000 0.6618 0.0000 ( 11027 PWs)   bands (ev):

   -44.5838 -44.1470 -43.7060  -4.0875  -0.1387   2.4226   2.8003   3.6536
     5.0978   5.8919   8.7570

          k = 0.0000 0.6618 0.1091 ( 11027 PWs)   bands (ev):

   -44.5838 -44.1470 -43.7060  -4.0858  -0.1324   2.0649   3.2572   3.6550
     5.0796   6.1578   7.8206

          k = 0.0000 0.6618 0.2182 ( 11032 PWs)   bands (ev):

   -44.5838 -44.1470 -43.7060  -4.0831  -0.1189   1.7664   3.6572   3.7689
     5.1711   6.5820   6.7950

          k = 0.1146 0.1985 0.0000 ( 11011 PWs)   bands (ev):

   -44.5890 -44.1506 -43.7151  -5.6853  -0.2597   0.8587   4.5449   5.1572
     6.2710   7.3911  10.1988

          k = 0.1146 0.1985 0.1091 ( 10995 PWs)   bands (ev):

   -44.5890 -44.1506 -43.7151  -5.6832  -0.4365   1.2141   4.5176   5.0468
     5.4969   8.3743  10.2051

          k = 0.1146 0.1985 0.2182 ( 10999 PWs)   bands (ev):

   -44.5890 -44.1506 -43.7151  -5.6797  -0.6307   1.8109   4.1431   4.6651
     5.2749   9.4569  10.2147

          k = 0.1146 0.3309 0.0000 ( 11023 PWs)   bands (ev):

   -44.5873 -44.1495 -43.7121  -5.3070   0.2449   1.2436   3.0876   4.4099
     6.6942   7.7718   9.5413

          k = 0.1146 0.3309 0.1091 ( 11008 PWs)   bands (ev):

   -44.5873 -44.1495 -43.7121  -5.3049   0.0472   1.6235   3.0765   4.3907
     5.8317   8.5586   9.4252

          k = 0.1146 0.3309 0.2182 ( 11028 PWs)   bands (ev):

   -44.5873 -44.1495 -43.7121  -5.3014  -0.1584   2.2251   3.0810   4.2631
     4.9854   8.8287   9.6523

          k = 0.1146 0.4633 0.0000 ( 11021 PWs)   bands (ev):

   -44.5855 -44.1482 -43.7089  -4.7803   0.8355   1.5961   1.9720   3.8442
     6.9593   7.7271   8.2483

          k = 0.1146 0.4633 0.1091 ( 11032 PWs)   bands (ev):

   -44.5855 -44.1482 -43.7089  -4.7783   0.6567   1.6261   2.2854   3.8409
     6.3972   7.3945   8.2713

          k = 0.1146 0.4633 0.2182 ( 11028 PWs)   bands (ev):

   -44.5855 -44.1482 -43.7089  -4.7749   0.4748   1.5799   2.9126   3.8242
     5.5086   7.0804   8.7250

          k = 0.1146 0.5956 0.0000 ( 11038 PWs)   bands (ev):

   -44.5841 -44.1472 -43.7064  -4.2184   0.1915   2.0481   2.5637   3.4895
     5.8348   6.3321   8.5137

          k = 0.1146 0.5956 0.1091 ( 11025 PWs)   bands (ev):

   -44.5841 -44.1472 -43.7064  -4.2166   0.1925   1.7655   2.9679   3.4995
     5.6899   6.7152   7.4917

          k = 0.1146 0.5956 0.2182 ( 11044 PWs)   bands (ev):

   -44.5841 -44.1472 -43.7064  -4.2137   0.2014   1.4950   3.3506   3.7189
     5.5506   6.4748   7.2753

          k = 0.1146 0.7280 0.0000 ( 11015 PWs)   bands (ev):

   -44.5835 -44.1468 -43.7055  -3.9342  -0.2825   2.5727   3.0261   3.3523
     5.0099   5.6841   8.9133

          k = 0.1146 0.7280 0.1091 ( 11042 PWs)   bands (ev):

   -44.5835 -44.1468 -43.7055  -3.9326  -0.2756   2.2443   3.2232   3.5824
     4.9589   5.9606   8.2531

          k = 0.1146 0.7280 0.2182 ( 11050 PWs)   bands (ev):

   -44.5835 -44.1468 -43.7055  -3.9301  -0.2641   1.9726   3.2588   3.8953
     5.2090   6.3716   7.1762

          k = 0.2293 0.3971 0.0000 ( 11027 PWs)   bands (ev):

   -44.5857 -44.1483 -43.7093  -4.8548   0.8360   1.7257   1.8938   3.6790
     7.0814   8.1831   8.3260

          k = 0.2293 0.3971 0.1091 ( 11028 PWs)   bands (ev):

   -44.5857 -44.1483 -43.7093  -4.8527   0.6259   1.8465   2.1587   3.6743
     6.3170   7.9142   8.7986

          k = 0.2293 0.3971 0.2182 ( 11025 PWs)   bands (ev):

   -44.5857 -44.1483 -43.7093  -4.8493   0.4128   1.8579   2.7542   3.6433
     5.4321   7.6255   9.0713

          k = 0.2293 0.5294 0.0000 ( 11025 PWs)   bands (ev):

   -44.5842 -44.1473 -43.7067  -4.2918   0.5935   1.6572   2.3836   3.2632
     6.6273   6.8768   8.3003

          k = 0.2293 0.5294 0.1091 ( 11035 PWs)   bands (ev):

   -44.5842 -44.1473 -43.7067  -4.2899   0.5884   1.4516   2.6659   3.3531
     6.2479   7.2160   7.6669

          k = 0.2293 0.5294 0.2182 ( 11033 PWs)   bands (ev):

   -44.5842 -44.1473 -43.7067  -4.2867   0.5872   1.2348   2.9021   3.7095
     5.8592   6.5378   8.0727

          k = 0.2293 0.6618 0.0000 ( 11032 PWs)   bands (ev):

   -44.5833 -44.1467 -43.7051  -3.8103  -0.2481   2.2166   3.0042   3.3243
     5.5548   5.7203   8.4104

          k = 0.2293 0.6618 0.1091 ( 11044 PWs)   bands (ev):

   -44.5833 -44.1467 -43.7051  -3.8087  -0.2450   2.1108   2.8464   3.6695
     5.3333   6.2047   8.0612

          k = 0.2293 0.6618 0.2182 ( 11037 PWs)   bands (ev):

   -44.5833 -44.1467 -43.7051  -3.8060  -0.2391   1.9535   2.7627   4.0468
     5.3826   6.7234   7.2415

          k = 0.3439 0.5956 0.0000 ( 11027 PWs)   bands (ev):

   -44.5833 -44.1466 -43.7050  -3.7630  -0.1855   1.9446   2.9783   3.3782
     5.7401   6.1894   7.6978

          k = 0.3439 0.5956 0.1091 ( 11023 PWs)   bands (ev):

   -44.5833 -44.1466 -43.7050  -3.7612  -0.1845   1.8988   2.7496   3.7953
     5.4223   6.6799   7.6442

          k = 0.3439 0.5956 0.2182 ( 11042 PWs)   bands (ev):

   -44.5833 -44.1466 -43.7050  -3.7584  -0.1828   1.8175   2.6182   4.2189
     5.3507   6.9068   7.4686

          k = 0.3439 0.7280 0.0000 ( 11023 PWs)   bands (ev):

   -44.5829 -44.1464 -43.7044  -3.4896  -0.5745   1.9717   3.2525   3.9845
     4.9698   5.8348   7.2450

          k = 0.3439 0.7280 0.1091 ( 11047 PWs)   bands (ev):

   -44.5829 -44.1464 -43.7044  -3.4880  -0.5735   1.9871   3.0095   4.1707
     4.9669   6.2357   7.2582

          k = 0.3439 0.7280 0.2182 ( 11028 PWs)   bands (ev):

   -44.5829 -44.1464 -43.7044  -3.4853  -0.5718   2.0125   2.7789   4.0936
     5.4490   6.6923   7.4635

          k = 0.0000-0.1324 0.1091 ( 10987 PWs)   bands (ev):

   -44.5900 -44.1513 -43.7168  -5.8776  -0.6854   1.0063   4.9737   5.6416
     5.8719   8.1932  10.0632

          k = 0.0000-0.1324 0.2182 ( 10946 PWs)   bands (ev):

   -44.5900 -44.1513 -43.7168  -5.8741  -0.8723   1.5915   4.0288   5.6121
     5.8729   9.3656  10.0789

          k = 0.0000-0.2647 0.1091 ( 11000 PWs)   bands (ev):

   -44.5885 -44.1503 -43.7143  -5.5876  -0.3137   1.3127   4.0307   5.1026
     5.4320   8.4496  10.0265

          k = 0.0000-0.2647 0.2182 ( 10999 PWs)   bands (ev):

   -44.5885 -44.1503 -43.7143  -5.5841  -0.5115   1.9133   3.9134   4.5751
     5.1043   9.4263   9.9728

          k = 0.0000-0.3971 0.1091 ( 11030 PWs)   bands (ev):

   -44.5866 -44.1490 -43.7109  -5.1266   0.2729   1.7168   2.5762   4.4049
     5.9315   8.1773   8.6504

          k = 0.0000-0.3971 0.2182 ( 11028 PWs)   bands (ev):

   -44.5866 -44.1490 -43.7109  -5.1231   0.0630   2.1320   2.7680   4.4069
     4.9915   7.9544   9.1855

          k = 0.0000-0.5294 0.1091 ( 11013 PWs)   bands (ev):

   -44.5849 -44.1478 -43.7078  -4.5596   0.6034   1.3685   2.7019   3.9091
     6.0416   6.8788   7.7468

          k = 0.0000-0.5294 0.2182 ( 11030 PWs)   bands (ev):

   -44.5849 -44.1478 -43.7078  -4.5564   0.5405   1.2202   3.3097   3.9113
     5.5524   6.3906   7.9748

          k = 0.0000-0.6618 0.1091 ( 11027 PWs)   bands (ev):

   -44.5838 -44.1470 -43.7060  -4.0858  -0.1296   2.0206   3.3746   3.6550
     4.9444   6.1535   7.9798

          k = 0.0000-0.6618 0.2182 ( 11032 PWs)   bands (ev):

   -44.5838 -44.1470 -43.7060  -4.0832  -0.1171   1.7507   3.6573   3.8523
     5.0535   6.4424   7.0257

          k =-0.1146-0.3309 0.1091 ( 11008 PWs)   bands (ev):

   -44.5873 -44.1495 -43.7121  -5.3049   0.0492   1.6098   3.1049   4.3864
     5.8027   8.6253   9.1862

          k =-0.1146-0.3309 0.2182 ( 11028 PWs)   bands (ev):

   -44.5873 -44.1495 -43.7121  -5.3014  -0.1576   2.2053   3.1206   4.2504
     4.9714   8.8597   9.5256

          k =-0.1146-0.4633 0.1091 ( 11032 PWs)   bands (ev):

   -44.5855 -44.1482 -43.7089  -4.7783   0.6809   1.5202   2.3947   3.8437
     6.2725   7.3786   8.3780

          k =-0.1146-0.4633 0.2182 ( 11028 PWs)   bands (ev):

   -44.5855 -44.1482 -43.7089  -4.7750   0.4830   1.5452   2.9681   3.8263
     5.4401   7.0898   8.7427

          k =-0.1146-0.5956 0.1091 ( 11025 PWs)   bands (ev):

   -44.5841 -44.1472 -43.7064  -4.2166   0.1996   1.7152   3.0276   3.5547
     5.5188   6.6166   7.8190

          k =-0.1146-0.5956 0.2182 ( 11044 PWs)   bands (ev):

   -44.5841 -44.1472 -43.7064  -4.2137   0.2062   1.4748   3.3409   3.8203
     5.3786   6.4535   7.4558

          k =-0.2293-0.5294 0.1091 ( 11035 PWs)   bands (ev):

   -44.5842 -44.1473 -43.7067  -4.2899   0.5970   1.4269   2.6716   3.3915
     6.1531   7.0592   8.0171

          k =-0.2293-0.5294 0.2182 ( 11033 PWs)   bands (ev):

   -44.5842 -44.1473 -43.7067  -4.2867   0.5934   1.2223   2.8976   3.7505
     5.7642   6.5613   8.1709

          k =-0.2293-0.6618 0.1091 ( 11044 PWs)   bands (ev):

   -44.5833 -44.1467 -43.7051  -3.8087  -0.2442   2.1081   2.8029   3.7900
     5.1847   6.2277   8.1810

          k =-0.2293-0.6618 0.2182 ( 11037 PWs)   bands (ev):

   -44.5833 -44.1467 -43.7051  -3.8060  -0.2385   1.9509   2.7490   4.1214
     5.2821   6.6331   7.4602

     the Fermi energy is     2.9650 ev

!    total energy              =     -51.31688703 Ry
     estimated scf accuracy    <          4.1E-09 Ry
     smearing contrib. (-TS)   =      -0.00070051 Ry
     internal energy E=F+TS    =     -51.31618653 Ry

     The total energy is F=E-TS. E is the sum of the following terms:
     one-electron contribution =     -29.54830638 Ry
     hartree contribution      =      13.07515427 Ry
     xc contribution           =     -13.25152701 Ry
     ewald contribution        =     -21.59150741 Ry

     convergence has been achieved in  11 iterations

     Forces acting on atoms (cartesian axes, Ry/au):

     atom    1 type  1   force =     0.00000000    0.00000000    0.12129619
     atom    2 type  2   force =     0.00000000    0.00000000   -0.12209769
     atom    3 type  2   force =     0.00000000    0.00000000    0.11515958
     atom    4 type  2   force =     0.00000000    0.00000000   -0.11435808
     The non-local contrib.  to forces
     atom    1 type  1   force =     0.00000000    0.00000000    0.12265869
     atom    2 type  2   force =     0.00000000   -0.00000000    0.07995630
     atom    3 type  2   force =    -0.00000000   -0.00000000   -0.05743660
     atom    4 type  2   force =     0.00000000    0.00000000   -0.04904567
     The ionic contribution  to forces
     atom    1 type  1   force =     0.00000007   -0.00000004    0.40806225
     atom    2 type  2   force =    -0.00000000    0.00000000   -0.12228193
     atom    3 type  2   force =     0.00000000   -0.00000000    0.73898105
     atom    4 type  2   force =    -0.00000007    0.00000004   -1.02476137
     The local contribution  to forces
     atom    1 type  1   force =    -0.00000001    0.00000001   -0.40179368
     atom    2 type  2   force =    -0.00000000   -0.00000000   -0.07982409
     atom    3 type  2   force =     0.00000000    0.00000000   -0.56635174
     atom    4 type  2   force =    -0.00000059    0.00000034    0.95943939
     The core correction contribution to forces
     atom    1 type  1   force =    -0.00000000    0.00000000   -0.00765156
     atom    2 type  2   force =     0.00000000    0.00000000    0.00000000
     atom    3 type  2   force =     0.00000000    0.00000000    0.00000000
     atom    4 type  2   force =     0.00000000    0.00000000    0.00000000
     The Hubbard contrib.    to forces
     atom    1 type  1   force =     0.00000000    0.00000000    0.00000000
     atom    2 type  2   force =     0.00000000    0.00000000    0.00000000
     atom    3 type  2   force =     0.00000000    0.00000000    0.00000000
     atom    4 type  2   force =     0.00000000    0.00000000    0.00000000
     The SCF correction term to forces
     atom    1 type  1   force =     0.00000000   -0.00000000    0.00001598
     atom    2 type  2   force =    -0.00000000    0.00000000    0.00004751
     atom    3 type  2   force =     0.00000000   -0.00000000   -0.00003764
     atom    4 type  2   force =    -0.00000000    0.00000000    0.00000506

     Total force =     0.236559     Total SCF correction =     0.000063


     Computing stress (Cartesian axis) and pressure

          total   stress  (Ry/bohr**3)                   (kbar)     P=      158.81
   0.00141880  -0.00000000   0.00000000          208.71       -0.00        0.00
  -0.00000000   0.00141880   0.00000000           -0.00      208.71        0.00
   0.00000000  -0.00000000   0.00040103            0.00       -0.00       58.99

     Energy error            =      7.7E-01 Ry
     Gradient error          =      1.2E-01 Ry/Bohr
     Cell gradient error     =      4.4E+02 kbar

     number of scf cycles    =   3
     number of bfgs steps    =   2

     enthalpy           old  =     -48.9866434715 Ry
     enthalpy           new  =     -49.7586691576 Ry

     CASE: enthalpy          _new < enthalpy          _old

     new trust radius        =       0.8000000000 bohr
ibrav =      4
 celldm(1) =      5.17995167
 celldm(3) =      2.22044703
Input lattice vectors:
     0.67150592    -0.00000000     0.00000000
    -0.33575296     0.58154118    -0.00000000
     0.00000000     0.00000000     1.49104332
New lattice vectors in INITIAL alat:
     0.67150592     0.00000000     0.00000000
    -0.33575296     0.58154118     0.00000000
     0.00000000     0.00000000     1.49104332
New lattice vectors in NEW alat (for information only):
     1.00000000     0.00000000     0.00000000
    -0.50000000     0.86602540     0.00000000
     0.00000000     0.00000000     2.22044703
Discrepancy in bohr =     0.000000    0.000000    0.000000
     new conv_thr            =       0.0000000100 Ry

     new unit-cell volume =    267.26874 a.u.^3 (    39.60514 Ang^3 )
     density =      2.05060 g/cm^3

CELL_PARAMETERS (alat=  7.71393301)
   0.671505919   0.000000000   0.000000000
  -0.335752959   0.581541184   0.000000000
   0.000000000   0.000000000   1.491043323

ATOMIC_POSITIONS (crystal)
Si            0.3333333300        0.6666666700        0.9213024819
Li           -0.0000000000       -0.0000000000        0.2366821951
Li            0.0000000000        0.0000000000        0.5008604812
Li            0.6666666700        0.3333333300        0.8510608418



     Writing config-only to output data dir ./output/SiLi.save/
     NEW-OLD atomic charge density approx. for the potential

     negative rho (up, down):  5.067E-01 0.000E+00
     extrapolated charge    3.71145, renormalised to   13.00000

     total cpu time spent up to now is       90.2 secs

     Self-consistent Calculation

     iteration #  1     ecut=    80.00 Ry     beta= 0.70
     Davidson diagonalization with overlap
     c_bands:  1 eigenvalues not converged
     c_bands:  1 eigenvalues not converged
     c_bands:  1 eigenvalues not converged
     c_bands:  1 eigenvalues not converged
     c_bands:  1 eigenvalues not converged
     c_bands:  1 eigenvalues not converged
     c_bands:  1 eigenvalues not converged
     c_bands:  1 eigenvalues not converged
     c_bands:  1 eigenvalues not converged
     c_bands:  1 eigenvalues not converged
     c_bands:  2 eigenvalues not converged
     c_bands:  2 eigenvalues not converged
     c_bands:  2 eigenvalues not converged
     c_bands:  2 eigenvalues not converged
     c_bands:  1 eigenvalues not converged
     c_bands:  2 eigenvalues not converged
     c_bands:  1 eigenvalues not converged
     c_bands:  1 eigenvalues not converged
     c_bands:  1 eigenvalues not converged
     c_bands:  1 eigenvalues not converged
     c_bands:  1 eigenvalues not converged
     c_bands:  1 eigenvalues not converged
     c_bands:  1 eigenvalues not converged
     c_bands:  1 eigenvalues not converged
     c_bands:  1 eigenvalues not converged
     c_bands:  1 eigenvalues not converged
     c_bands:  1 eigenvalues not converged
     c_bands:  1 eigenvalues not converged
     c_bands:  1 eigenvalues not converged
     c_bands:  1 eigenvalues not converged
     c_bands:  1 eigenvalues not converged
     c_bands:  1 eigenvalues not converged
     c_bands:  1 eigenvalues not converged
     c_bands:  1 eigenvalues not converged
     c_bands:  1 eigenvalues not converged
     c_bands:  1 eigenvalues not converged
     c_bands:  1 eigenvalues not converged
     c_bands:  1 eigenvalues not converged
     c_bands:  1 eigenvalues not converged
     ethr =  1.00E-06,  avg # of iterations = 19.1

     negative rho (up, down):  1.616E-02 0.000E+00

     total cpu time spent up to now is       97.3 secs

     total energy              =     -44.93112871 Ry
     estimated scf accuracy    <      14.96223389 Ry

     iteration #  2     ecut=    80.00 Ry     beta= 0.70
     Davidson diagonalization with overlap
     ethr =  1.00E-02,  avg # of iterations =  6.2

     negative rho (up, down):  1.066E-02 0.000E+00

     total cpu time spent up to now is      100.4 secs

     total energy              =     -46.40011986 Ry
     estimated scf accuracy    <      32.64417292 Ry

     iteration #  3     ecut=    80.00 Ry     beta= 0.70
     Davidson diagonalization with overlap
     ethr =  1.00E-02,  avg # of iterations =  4.9

     negative rho (up, down):  9.300E-07 0.000E+00

     total cpu time spent up to now is      102.8 secs

     total energy              =     -50.78853680 Ry
     estimated scf accuracy    <       1.22011714 Ry

     iteration #  4     ecut=    80.00 Ry     beta= 0.70
     Davidson diagonalization with overlap
     ethr =  9.39E-03,  avg # of iterations =  2.0

     total cpu time spent up to now is      104.3 secs

     total energy              =     -50.78096516 Ry
     estimated scf accuracy    <       0.63706239 Ry

     iteration #  5     ecut=    80.00 Ry     beta= 0.70
     Davidson diagonalization with overlap
     ethr =  4.90E-03,  avg # of iterations =  2.0

     total cpu time spent up to now is      105.9 secs

     total energy              =     -50.94067708 Ry
     estimated scf accuracy    <       0.26290350 Ry

     iteration #  6     ecut=    80.00 Ry     beta= 0.70
     Davidson diagonalization with overlap
     ethr =  2.02E-03,  avg # of iterations =  1.4

     total cpu time spent up to now is      107.3 secs

     total energy              =     -50.97844402 Ry
     estimated scf accuracy    <       0.00550820 Ry

     iteration #  7     ecut=    80.00 Ry     beta= 0.70
     Davidson diagonalization with overlap
     ethr =  4.24E-05,  avg # of iterations =  5.5

     total cpu time spent up to now is      109.3 secs

     total energy              =     -50.97977409 Ry
     estimated scf accuracy    <       0.00038425 Ry

     iteration #  8     ecut=    80.00 Ry     beta= 0.70
     Davidson diagonalization with overlap
     ethr =  2.96E-06,  avg # of iterations =  3.6

     total cpu time spent up to now is      110.9 secs

     total energy              =     -50.97978023 Ry
     estimated scf accuracy    <       0.00007923 Ry

     iteration #  9     ecut=    80.00 Ry     beta= 0.70
     Davidson diagonalization with overlap
     ethr =  6.09E-07,  avg # of iterations =  1.2

     total cpu time spent up to now is      112.3 secs

     total energy              =     -50.97978911 Ry
     estimated scf accuracy    <       0.00000077 Ry

     iteration # 10     ecut=    80.00 Ry     beta= 0.70
     Davidson diagonalization with overlap
     ethr =  5.96E-09,  avg # of iterations =  3.0

     total cpu time spent up to now is      114.0 secs

     total energy              =     -50.97978944 Ry
     estimated scf accuracy    <       0.00000004 Ry

     iteration # 11     ecut=    80.00 Ry     beta= 0.70
     Davidson diagonalization with overlap
     ethr =  2.94E-10,  avg # of iterations =  2.1

     total cpu time spent up to now is      115.5 secs

     End of self-consistent calculation

          k = 0.0000 0.0000 0.0000 ( 10983 PWs)   bands (ev):

   -42.1441 -39.9375 -39.1892  -3.9544   1.4452   4.5928  11.1129  12.5893
    12.5893  13.9978  15.7828

          k = 0.0000 0.0000 0.1341 ( 10959 PWs)   bands (ev):

   -42.1441 -39.9376 -39.1891  -3.9486   1.3358   4.9381  10.1001  12.5904
    12.5904  15.2006  15.7978

          k = 0.0000 0.0000 0.2683 ( 10898 PWs)   bands (ev):

   -42.1440 -39.9377 -39.1890  -3.9393   1.1815   5.6237   8.8211  12.5921
    12.5921  15.8226  15.8226

[...]

     iteration #  2     ecut=    80.00 Ry     beta= 0.70
     Davidson diagonalization with overlap
     ethr =  1.17E-03,  avg # of iterations =  3.8

     total cpu time spent up to now is      524.3 secs

     total energy              =     -51.15637767 Ry
     estimated scf accuracy    <       3.28482084 Ry

     iteration #  3     ecut=    80.00 Ry     beta= 0.70
     Davidson diagonalization with overlap
     ethr =  1.17E-03,  avg # of iterations =  2.8

     total cpu time spent up to now is      524.7 secs

     total energy              =     -51.47731121 Ry
     estimated scf accuracy    <       0.00146000 Ry

     iteration #  4     ecut=    80.00 Ry     beta= 0.70
     Davidson diagonalization with overlap
     ethr =  1.12E-05,  avg # of iterations =  6.2

     total cpu time spent up to now is      525.3 secs

     total energy              =     -51.47688307 Ry
     estimated scf accuracy    <       0.00642956 Ry

     iteration #  5     ecut=    80.00 Ry     beta= 0.70
     Davidson diagonalization with overlap
     ethr =  1.12E-05,  avg # of iterations =  2.1

     total cpu time spent up to now is      525.7 secs

     total energy              =     -51.47771019 Ry
     estimated scf accuracy    <       0.00049514 Ry

     iteration #  6     ecut=    80.00 Ry     beta= 0.70
     Davidson diagonalization with overlap
     ethr =  3.81E-06,  avg # of iterations =  1.0

     total cpu time spent up to now is      526.1 secs

     total energy              =     -51.47775132 Ry
     estimated scf accuracy    <       0.00002797 Ry

     iteration #  7     ecut=    80.00 Ry     beta= 0.70
     Davidson diagonalization with overlap
     ethr =  2.15E-07,  avg # of iterations =  1.2

     total cpu time spent up to now is      526.4 secs

     total energy              =     -51.47775452 Ry
     estimated scf accuracy    <       0.00000027 Ry

     iteration #  8     ecut=    80.00 Ry     beta= 0.70
     Davidson diagonalization with overlap
     ethr =  2.09E-09,  avg # of iterations =  2.7

     total cpu time spent up to now is      526.9 secs

     total energy              =     -51.47775461 Ry
     estimated scf accuracy    <       0.00000005 Ry

     iteration #  9     ecut=    80.00 Ry     beta= 0.70
     Davidson diagonalization with overlap
     ethr =  3.82E-10,  avg # of iterations =  1.6

     total cpu time spent up to now is      527.2 secs

     total energy              =     -51.47775461 Ry
     estimated scf accuracy    <          8.2E-09 Ry

     iteration # 10     ecut=    80.00 Ry     beta= 0.70
     Davidson diagonalization with overlap
     ethr =  6.28E-11,  avg # of iterations =  1.5

     total cpu time spent up to now is      527.6 secs

     End of self-consistent calculation

          k = 0.0000 0.0000 0.0000 (  2969 PWs)   bands (ev):

   -38.1211 -37.8401 -37.7068  -6.5914   1.6463   4.2948   6.3356  11.0356
    19.2770  20.3914  22.8587

          k = 0.0000 0.0000 0.1081 (  2981 PWs)   bands (ev):

   -38.1211 -37.8404 -37.7067  -6.5914   1.6390   4.3786   6.1672  11.3263
    17.7964  22.2149  22.8600

          k = 0.0000 0.0000 0.2163 (  2956 PWs)   bands (ev):

   -38.1209 -37.8408 -37.7064  -6.5914   1.6274   4.5453   5.8778  11.8588
    16.5250  22.8620  22.8620

          k = 0.0000 0.1817 0.0000 (  2967 PWs)   bands (ev):

   -38.1048 -37.8253 -37.6939  -6.3144   1.8634   4.4338   6.5756  11.1050
    19.0675  19.5748  20.6050

          k = 0.0000 0.1817 0.1081 (  2969 PWs)   bands (ev):

   -38.1047 -37.8256 -37.6937  -6.3144   1.8544   4.5250   6.3901  11.4151
    17.7514  19.5833  21.2607

          k = 0.0000 0.1817 0.2163 (  2979 PWs)   bands (ev):

   -38.1046 -37.8260 -37.6934  -6.3144   1.8402   4.7082   6.0709  11.9951
    16.4378  19.6721  21.2634

          k = 0.0000 0.3634 0.0000 (  2991 PWs)   bands (ev):

   -38.0607 -37.7855 -37.6590  -5.4873   2.5090   4.8519   7.2917  11.2114
    15.2142  19.0681  20.1618

          k = 0.0000 0.3634 0.1081 (  2977 PWs)   bands (ev):

   -38.0606 -37.7857 -37.6589  -5.4873   2.4930   4.9672   7.0539  11.5263
    15.3525  17.7733  19.4856

          k = 0.0000 0.3634 0.2163 (  2982 PWs)   bands (ev):

   -38.0606 -37.7860 -37.6587  -5.4872   2.4697   5.2041   6.6341  12.2090
    15.2569  16.5952  19.4892

          k = 0.0000 0.5451 0.0000 (  2983 PWs)   bands (ev):

   -38.0028 -37.7332 -37.6131  -4.1222   3.5600   5.5329   8.3942  10.1826
    12.5038  17.3386  18.4347

          k = 0.0000 0.5451 0.1081 (  2967 PWs)   bands (ev):

   -38.0027 -37.7333 -37.6130  -4.1222   3.5242   5.6925   8.1264  10.0779
    13.1017  17.2626  17.8783

          k = 0.0000 0.5451 0.2163 (  2973 PWs)   bands (ev):

   -38.0027 -37.7335 -37.6129  -4.1221   3.4798   6.0343   7.4748  10.3518
    13.8914  16.1137  17.7802

          k = 0.0000 0.7268 0.0000 (  2969 PWs)   bands (ev):

   -37.9492 -37.6849 -37.5707  -2.2431   4.8763   6.0354   7.0912  10.2876
    11.9378  14.8610  16.0325

          k = 0.0000 0.7268 0.1081 (  2965 PWs)   bands (ev):

   -37.9492 -37.6849 -37.5707  -2.2428   4.7787   6.1736   7.3063   9.4293
    12.8750  14.6832  16.1634

          k = 0.0000 0.7268 0.2163 (  2975 PWs)   bands (ev):

   -37.9492 -37.6850 -37.5706  -2.2426   4.7086   6.3353   7.4935   8.8046
    13.8598  14.5765  15.9936

          k = 0.0000 0.9085 0.0000 (  2967 PWs)   bands (ev):

   -37.9173 -37.6561 -37.5454   0.0701   3.1332   6.5393   7.5000  10.4027
    12.3071  13.5421  14.8372

          k = 0.0000 0.9085 0.1081 (  2972 PWs)   bands (ev):

   -37.9173 -37.6561 -37.5454   0.0710   3.1296   6.4018   7.8728   9.8943
    12.8214  13.2139  14.6729

          k = 0.0000 0.9085 0.2163 (  2969 PWs)   bands (ev):

   -37.9173 -37.6561 -37.5454   0.0710   3.1367   6.2401   8.4862   9.2912
    12.7015  13.4996  14.5535

          k = 0.1574 0.2725 0.0000 (  2979 PWs)   bands (ev):

   -38.0745 -37.7980 -37.6700  -5.7623   2.2951   4.7135   7.0547  11.2131
    16.8009  18.1919  19.7195

          k = 0.1574 0.2725 0.1081 (  2983 PWs)   bands (ev):

   -38.0745 -37.7982 -37.6698  -5.7623   2.2822   4.8205   6.8294  11.5738
    16.6210  17.8075  18.8398

          k = 0.1574 0.2725 0.2163 (  2984 PWs)   bands (ev):

   -38.0744 -37.7985 -37.6696  -5.7623   2.2621   5.0388   6.4476  12.2423
    15.9497  17.3661  18.6592

          k = 0.1574 0.4542 0.0000 (  2970 PWs)   bands (ev):

   -38.0235 -37.7519 -37.6296  -4.6661   3.1472   5.2752   7.9972  11.1406
    13.2795  16.3130  19.0446

          k = 0.1574 0.4542 0.1081 (  2976 PWs)   bands (ev):

   -38.0235 -37.7521 -37.6295  -4.6660   3.1221   5.4164   7.6987  11.3760
    13.5280  16.2437  18.1104

          k = 0.1574 0.4542 0.2163 (  2974 PWs)   bands (ev):

   -38.0234 -37.7523 -37.6293  -4.6660   3.0867   5.7133   7.1674  11.9414
    13.7137  16.1360  16.9873

          k = 0.1574 0.6359 0.0000 (  2972 PWs)   bands (ev):

   -37.9678 -37.7016 -37.5854  -3.0426   4.3771   6.0587   8.3822   9.7622
    12.1005  14.6461  16.6375

          k = 0.1574 0.6359 0.1081 (  2963 PWs)   bands (ev):

   -37.9678 -37.7017 -37.5853  -3.0425   4.3181   6.2507   8.6384   8.9341
    12.8403  14.7167  16.3142

          k = 0.1574 0.6359 0.2163 (  2966 PWs)   bands (ev):

   -37.9677 -37.7018 -37.5852  -3.0424   4.2532   6.6748   7.9098   9.0368
    13.5865  14.9424  15.8807

          k = 0.1574 0.8176 0.0000 (  2966 PWs)   bands (ev):

   -37.9251 -37.6631 -37.5515  -0.9289   4.7229   6.0910   7.3261  11.0692
    11.8239  12.9773  14.5645

          k = 0.1574 0.8176 0.1081 (  2970 PWs)   bands (ev):

   -37.9251 -37.6631 -37.5514  -0.9283   4.6892   6.0514   7.6453  10.0502
    12.7537  13.0243  14.5302

          k = 0.1574 0.8176 0.2163 (  2962 PWs)   bands (ev):

   -37.9251 -37.6631 -37.5514  -0.9281   4.6960   5.9361   8.1854   9.2660
    12.8240  13.6871  14.3941

          k = 0.1574 0.9993 0.0000 (  2962 PWs)   bands (ev):

   -37.9091 -37.6487 -37.5388   1.1546   2.3471   7.0460   7.8457  10.2245
    12.2755  13.3066  14.1644

          k = 0.1574 0.9993 0.1081 (  2957 PWs)   bands (ev):

   -37.9091 -37.6487 -37.5388   1.1541   2.3504   6.8687   8.1713  10.0740
    12.1998  13.2650  14.0161

          k = 0.1574 0.9993 0.2163 (  2964 PWs)   bands (ev):

   -37.9091 -37.6487 -37.5388   1.1533   2.3558   6.6860   8.7265   9.6873
    12.0797  13.2393  13.8696

          k = 0.3147 0.5451 0.0000 (  2956 PWs)   bands (ev):

   -37.9747 -37.7079 -37.5908  -3.3107   4.1941   5.9912   9.0473  10.8076
    10.8807  14.0029  17.1416

          k = 0.3147 0.5451 0.1081 (  2961 PWs)   bands (ev):

   -37.9747 -37.7079 -37.5908  -3.3107   4.1507   6.1794   8.6205  10.6234
    11.3852  14.2817  16.9537

          k = 0.3147 0.5451 0.2163 (  2964 PWs)   bands (ev):

   -37.9747 -37.7081 -37.5907  -3.3105   4.0887   6.5897   7.9429  10.5815
    11.7854  15.1068  16.4791

          k = 0.3147 0.7268 0.0000 (  2967 PWs)   bands (ev):

   -37.9298 -37.6673 -37.5550  -1.4451   5.5470   6.6999   7.5631  10.1610
    11.1639  12.9518  14.7371

          k = 0.3147 0.7268 0.1081 (  2967 PWs)   bands (ev):

   -37.9298 -37.6673 -37.5550  -1.4448   5.4452   6.8624   7.7548   9.5792
    11.0898  13.6713  14.5702

          k = 0.3147 0.7268 0.2163 (  2957 PWs)   bands (ev):

   -37.9298 -37.6674 -37.5550  -1.4446   5.3539   7.0450   8.0990   8.8966
    10.9919  14.0311  15.2147

          k = 0.3147 0.9085 0.0000 (  2957 PWs)   bands (ev):

   -37.9030 -37.6432 -37.5337   0.8508   3.8883   7.2657   8.1195   9.8283
    11.0553  12.7348  13.5923

          k = 0.3147 0.9085 0.1081 (  2955 PWs)   bands (ev):

   -37.9030 -37.6432 -37.5337   0.8517   3.8852   7.1327   8.4548   9.7607
    10.7047  12.8618  13.6781

          k = 0.3147 0.9085 0.2163 (  2949 PWs)   bands (ev):

   -37.9030 -37.6432 -37.5336   0.8519   3.8915   6.9640   9.0460   9.5124
    10.4115  12.8918  13.7779

          k = 0.4721 0.8176 0.0000 (  2956 PWs)   bands (ev):

   -37.9008 -37.6411 -37.5317   0.6306   5.7154   6.9719   7.3426   8.8909
    12.2660  12.7326  13.0695

          k = 0.4721 0.8176 0.1081 (  2956 PWs)   bands (ev):

   -37.9008 -37.6412 -37.5317   0.6310   5.7049   6.9944   7.2874   9.0766
    11.7845  12.2731  13.6263

          k = 0.4721 0.8176 0.2163 (  2954 PWs)   bands (ev):

   -37.9008 -37.6412 -37.5317   0.6315   5.6883   7.0529   7.1842   9.4749
    11.0024  12.1022  14.2610

          k = 0.4721 0.9993 0.0000 (  2938 PWs)   bands (ev):

   -37.8900 -37.6314 -37.5230   2.7031   3.6894   6.5220   8.5129   9.6426
    11.1128  11.4225  13.3948

          k = 0.4721 0.9993 0.1081 (  2938 PWs)   bands (ev):

   -37.8900 -37.6314 -37.5230   2.7029   3.6913   6.5389   8.3453   9.8554
    11.1141  11.5477  13.1352

          k = 0.4721 0.9993 0.2163 (  2947 PWs)   bands (ev):

   -37.8900 -37.6314 -37.5230   2.7025   3.6944   6.5692   8.1360  10.1518
    11.1612  11.6539  12.9892

          k = 0.0000-0.1817 0.1081 (  2969 PWs)   bands (ev):

   -38.1047 -37.8256 -37.6937  -6.3144   1.8545   4.5250   6.3886  11.4239
    17.6325  19.7906  21.2609

          k = 0.0000-0.1817 0.2163 (  2979 PWs)   bands (ev):

   -38.1046 -37.8260 -37.6934  -6.3144   1.8403   4.7083   6.0700  12.0025
    16.4028  19.7252  21.2636

          k = 0.0000-0.3634 0.1081 (  2977 PWs)   bands (ev):

   -38.0607 -37.7857 -37.6589  -5.4873   2.4945   4.9674   7.0351  11.6480
    15.0246  17.9321  19.4857

          k = 0.0000-0.3634 0.2163 (  2982 PWs)   bands (ev):

   -38.0606 -37.7860 -37.6587  -5.4872   2.4706   5.2052   6.6235  12.3253
    14.9011  16.8300  19.4893

          k = 0.0000-0.5451 0.1081 (  2967 PWs)   bands (ev):

   -38.0027 -37.7333 -37.6130  -4.1222   3.5332   5.6958   7.9284  10.6111
    12.6302  16.8884  18.1275

          k = 0.0000-0.5451 0.2163 (  2973 PWs)   bands (ev):

   -38.0027 -37.7334 -37.6129  -4.1221   3.4849   6.0477   7.3811  10.5972
    13.5763  16.0687  17.9474

          k = 0.0000-0.7268 0.1081 (  2965 PWs)   bands (ev):

   -37.9492 -37.6849 -37.5707  -2.2431   4.8469   6.1504   7.0244   9.9942
    12.3987  15.0550  15.7779

          k = 0.0000-0.7268 0.2163 (  2975 PWs)   bands (ev):

   -37.9492 -37.6850 -37.5706  -2.2428   4.7434   6.3508   7.2091   9.1668
    13.4969  15.0992  15.5659

          k = 0.0000-0.9085 0.1081 (  2972 PWs)   bands (ev):

   -37.9173 -37.6561 -37.5454   0.0696   3.1426   6.3891   7.7383  10.2981
    12.1163  13.7965  14.8550

          k = 0.0000-0.9085 0.2163 (  2969 PWs)   bands (ev):

   -37.9173 -37.6561 -37.5454   0.0701   3.1449   6.2305   8.2884   9.6163
    12.3650  13.7987  14.6233

          k =-0.1574-0.4542 0.1081 (  2976 PWs)   bands (ev):

   -38.0235 -37.7521 -37.6295  -4.6660   3.1247   5.4170   7.6572  11.6775
    13.1238  16.3613  17.9624

          k =-0.1574-0.4542 0.2163 (  2974 PWs)   bands (ev):

   -38.0234 -37.7523 -37.6293  -4.6660   3.0882   5.7161   7.1456  12.2026
    13.3294  16.3262  16.9005

          k =-0.1574-0.6359 0.1081 (  2963 PWs)   bands (ev):

   -37.9678 -37.7017 -37.5853  -3.0426   4.3376   6.2648   8.0010   9.8447
    12.4225  14.6567  16.7377

          k =-0.1574-0.6359 0.2163 (  2966 PWs)   bands (ev):

   -37.9678 -37.7018 -37.5852  -3.0424   4.2638   6.7381   7.5905   9.4122
    13.3829  14.7705  16.2664

          k =-0.1574-0.8176 0.1081 (  2970 PWs)   bands (ev):

   -37.9251 -37.6631 -37.5514  -0.9290   4.7534   5.9686   7.5021  10.6078
    12.2000  13.1200  14.5120

          k =-0.1574-0.8176 0.2163 (  2962 PWs)   bands (ev):

   -37.9251 -37.6631 -37.5514  -0.9285   4.7361   5.8869   7.9884   9.6110
    12.7362  13.5304  14.4523

          k =-0.3147-0.7268 0.1081 (  2967 PWs)   bands (ev):

   -37.9298 -37.6673 -37.5550  -1.4450   5.4898   6.8525   7.5415  10.0155
    10.9454  13.3429  14.8538

          k =-0.3147-0.7268 0.2163 (  2957 PWs)   bands (ev):

   -37.9298 -37.6674 -37.5550  -1.4447   5.3758   7.0688   7.8095   9.2495
    10.9355  13.8596  15.5123

          k =-0.3147-0.9085 0.1081 (  2955 PWs)   bands (ev):

   -37.9030 -37.6432 -37.5337   0.8506   3.8967   7.1004   8.3780   9.8136
    10.9600  12.9194  13.2268

          k =-0.3147-0.9085 0.2163 (  2949 PWs)   bands (ev):

   -37.9030 -37.6432 -37.5336   0.8512   3.8987   6.9463   8.9000   9.6459
    10.5474  12.8914  13.5054

     the Fermi energy is     7.7598 ev

!    total energy              =     -51.47775461 Ry
     estimated scf accuracy    <          1.2E-11 Ry
     smearing contrib. (-TS)   =       0.00009834 Ry
     internal energy E=F+TS    =     -51.47785295 Ry

     The total energy is F=E-TS. E is the sum of the following terms:
     one-electron contribution =     -15.96637527 Ry
     hartree contribution      =       9.03001477 Ry
     xc contribution           =     -13.82785572 Ry
     ewald contribution        =     -30.71363672 Ry

     convergence has been achieved in  10 iterations

     Forces acting on atoms (cartesian axes, Ry/au):

     atom    1 type  1   force =     0.00000000    0.00000000    0.00011095
     atom    2 type  2   force =     0.00000000    0.00000000   -0.00002401
     atom    3 type  2   force =     0.00000000    0.00000000    0.00003585
     atom    4 type  2   force =     0.00000000    0.00000000   -0.00012280
     The non-local contrib.  to forces
     atom    1 type  1   force =     0.00000000   -0.00000000    0.00467292
     atom    2 type  2   force =     0.00000000    0.00000000    0.03678202
     atom    3 type  2   force =     0.00000000   -0.00000000   -0.03393540
     atom    4 type  2   force =     0.00000000   -0.00000000   -0.00084281
     The ionic contribution  to forces
     atom    1 type  1   force =     0.00000000   -0.00000000    0.11309342
     atom    2 type  2   force =    -0.00000000    0.00000000    0.97872036
     atom    3 type  2   force =     0.00000000   -0.00000000   -0.02544012
     atom    4 type  2   force =    -0.00000000    0.00000000   -1.06637366
     The local contribution  to forces
     atom    1 type  1   force =    -0.00000001    0.00000001   -0.11735532
     atom    2 type  2   force =    -0.00000000   -0.00000000   -1.01552550
     atom    3 type  2   force =     0.00000000    0.00000000    0.05941141
     atom    4 type  2   force =    -0.00000043    0.00000025    1.06709590
     The core correction contribution to forces
     atom    1 type  1   force =    -0.00000000    0.00000000   -0.00030355
     atom    2 type  2   force =     0.00000000    0.00000000    0.00000000
     atom    3 type  2   force =     0.00000000    0.00000000    0.00000000
     atom    4 type  2   force =     0.00000000    0.00000000    0.00000000
     The Hubbard contrib.    to forces
     atom    1 type  1   force =     0.00000000    0.00000000    0.00000000
     atom    2 type  2   force =     0.00000000    0.00000000    0.00000000
     atom    3 type  2   force =     0.00000000    0.00000000    0.00000000
     atom    4 type  2   force =     0.00000000    0.00000000    0.00000000
     The SCF correction term to forces
     atom    1 type  1   force =    -0.00000000    0.00000000    0.00000349
     atom    2 type  2   force =    -0.00000000    0.00000000   -0.00000088
     atom    3 type  2   force =     0.00000000   -0.00000000   -0.00000003
     atom    4 type  2   force =    -0.00000000    0.00000000   -0.00000221

     Total force =     0.000171     Total SCF correction =     0.000004


     Computing stress (Cartesian axis) and pressure

          total   stress  (Ry/bohr**3)                   (kbar)     P=      499.96
   0.00339846   0.00000000   0.00000000          499.93        0.00        0.00
   0.00000000   0.00339846  -0.00000000            0.00      499.93       -0.00
   0.00000000  -0.00000000   0.00339912            0.00       -0.00      500.03


     Writing all to output data dir ./output/SiLi.save/

     init_run     :      2.07s CPU      4.11s WALL (       2 calls)
     electrons    :    381.71s CPU    426.12s WALL (      27 calls)
     update_pot   :     20.85s CPU     21.08s WALL (      25 calls)
     forces       :     14.13s CPU     14.50s WALL (      27 calls)
     stress       :     58.35s CPU     61.01s WALL (      27 calls)

     Called by init_run:
     wfcinit      :      1.00s CPU      2.71s WALL (       2 calls)
     potinit      :      0.53s CPU      0.68s WALL (       2 calls)
     hinit0       :      0.42s CPU      0.53s WALL (       2 calls)

     Called by electrons:
     c_bands      :    329.25s CPU    365.60s WALL (     229 calls)
     sum_band     :     48.85s CPU     54.67s WALL (     229 calls)
     v_of_rho     :      3.59s CPU      4.50s WALL (     255 calls)
     mix_rho      :      0.29s CPU      0.51s WALL (     229 calls)

     Called by c_bands:
     init_us_2    :     10.01s CPU     10.98s WALL (   34952 calls)
     init_us_2:cp :      9.97s CPU     10.95s WALL (   34952 calls)
     cegterg      :    312.21s CPU    344.02s WALL (   15572 calls)

     Called by *egterg:
     cdiaghg      :      8.77s CPU      9.52s WALL (   66946 calls)
     h_psi        :    277.93s CPU    309.45s WALL (   68850 calls)
     g_psi        :      1.44s CPU      1.50s WALL (   53142 calls)

     Called by h_psi:
     h_psi:calbec :     10.70s CPU     11.94s WALL (   68850 calls)
     vloc_psi     :    257.66s CPU    287.14s WALL (   68850 calls)
     add_vuspsi   :      8.67s CPU      9.41s WALL (   68850 calls)

     General routines
     calbec       :     13.05s CPU     14.35s WALL (   78030 calls)
     fft          :      1.88s CPU      2.85s WALL (    3224 calls)
     ffts         :      0.13s CPU      0.20s WALL (     229 calls)
     fftw         :    270.75s CPU    301.72s WALL ( 1179876 calls)

     Parallel routines

     PWSCF        :   7m57.75s CPU   8m48.65s WALL


   This run was terminated on:  12: 1:15  29Dec2024            

=------------------------------------------------------------------------------=
   JOB DONE.
=------------------------------------------------------------------------------=
