
     Program PWSCF v.7.2 starts on 29Dec2024 at 11:28:49 

     This program is part of the open-source Quantum ESPRESSO suite
     for quantum simulation of materials; please cite
         "P. Giannozzi et al., J. Phys.:Condens. Matter 21 395502 (2009);
         "P. Giannozzi et al., J. Phys.:Condens. Matter 29 465901 (2017);
         "P. Giannozzi et al., J. Chem. Phys. 152 154105 (2020);
          URL http://www.quantum-espresso.org", 
     in publications or presentations arising from this work. More details at
     http://www.quantum-espresso.org/quote

     Parallel version (MPI & OpenMP), running on       8 processor cores
     Number of MPI processes:                 8
     Threads/MPI process:                     1

     MPI processes distributed on     1 nodes
     494919 MiB available memory on the printing compute node when the environment starts

     Waiting for input...
     Reading input from standard input

     Current dimensions of program PWSCF are:
     Max number of different atomic species (ntypx) = 10
     Max number of k-points (npk) =  40000
     Max angular momentum in pseudopotentials (lmaxx) =  4

     R & G space division:  proc/nbgrp/npool/nimage =       8
     Subspace diagonalization in iterative solution of the eigenvalue problem:
     a serial algorithm will be used


     Parallelization info
     --------------------
     sticks:   dense  smooth     PW     G-vecs:    dense   smooth      PW
     Min          93      93     31                 1631     1631     321
     Max          94      94     32                 1632     1632     323
     Sum         747     747    255                13049    13049    2577

     Using Slab Decomposition



     bravais-lattice index     =            7
     lattice parameter (alat)  =       5.1822  a.u.
     unit-cell volume          =     135.0230 (a.u.)^3
     number of atoms/cell      =            4
     number of atomic types    =            2
     number of electrons       =        15.00
     number of Kohn-Sham states=           12
     kinetic-energy cutoff     =      80.0000  Ry
     charge density cutoff     =     320.0000  Ry
     scf convergence threshold =      1.0E-08
     mixing beta               =       0.7000
     number of iterations used =            8  plain     mixing
     energy convergence thresh.=      1.0E-04
     force convergence thresh. =      1.0E-03
     press convergence thresh. =      1.0E+00
     Exchange-correlation= PBE
                           (   1   4   3   4   0   0   0)
     nstep                     =           50


     celldm(1)=   5.182191  celldm(2)=   0.000000  celldm(3)=   1.940428
     celldm(4)=   0.000000  celldm(5)=   0.000000  celldm(6)=   0.000000

     crystal axes: (cart. coord. in units of alat)
               a(1) = (   0.500000  -0.500000   0.970214 )  
               a(2) = (   0.500000   0.500000   0.970214 )  
               a(3) = (  -0.500000  -0.500000   0.970214 )  

     reciprocal axes: (cart. coord. in units 2 pi/alat)
               b(1) = (  1.000000 -1.000000  0.000000 )  
               b(2) = (  0.000000  1.000000  0.515350 )  
               b(3) = ( -1.000000  0.000000  0.515350 )  


     PseudoPot. # 1 for Si read from file:
     ../pseudo/Si_ONCV_PBE_sr.upf
     MD5 check sum: e543d271109d17c80368dfa7c482276d
     Pseudo is Norm-conserving + core correction, Zval =  4.0
     Generated using ONCVPSP code by D. R. Hamann
     Using radial grid of 1510 points,  6 beta functions with: 
                l(1) =   0
                l(2) =   0
                l(3) =   1
                l(4) =   1
                l(5) =   2
                l(6) =   2

     PseudoPot. # 2 for Li read from file:
     ../pseudo/Li_ONCV_PBE_sr.upf
     MD5 check sum: 50ff420e78310ffa21704f3361e624a4
     Pseudo is Norm-conserving, Zval =  3.0
     Generated using ONCVPSP code by D. R. Hamann
     Using radial grid of 1944 points,  4 beta functions with: 
                l(1) =   0
                l(2) =   0
                l(3) =   1
                l(4) =   1

     atomic species   valence    mass     pseudopotential
        Si             4.00    28.08550     Si( 1.00)
        Li             3.00     6.94100     Li( 1.00)

     16 Sym. Ops., with inversion, found



   Cartesian axes

     site n.     atom                  positions (alat units)
         1           Si  tau(   1) = (   0.0000000   0.5000000   0.4851070  )
         2           Si  tau(   2) = (   0.0000000   0.5000000   1.4553210  )
         3           Si  tau(   3) = (   0.0000000   0.0000000   0.9702140  )
         4           Li  tau(   4) = (   0.0000000   0.0000000   0.0000000  )

     number of k points=    65  Marzari-Vanderbilt smearing, width (Ry)=  0.0200
                       cart. coord. in units 2pi/alat
        k(    1) = (   0.0000000   0.0000000   0.0000000), wk =   0.0136054
        k(    2) = (  -0.3333333   0.0000000   0.1717834), wk =   0.0272109
        k(    3) = (   0.0000000   0.1428571   0.0736215), wk =   0.0544218
        k(    4) = (  -0.3333333   0.1428571   0.2454049), wk =   0.0272109
        k(    5) = (   0.3333333   0.1428571  -0.0981619), wk =   0.0272109
        k(    6) = (   0.0000000   0.2857143   0.1472429), wk =   0.0544218
        k(    7) = (  -0.3333333   0.2857143   0.3190263), wk =   0.0272109
        k(    8) = (   0.3333333   0.2857143  -0.0245405), wk =   0.0272109
        k(    9) = (   0.0000000   0.4285714   0.2208644), wk =   0.0544218
        k(   10) = (  -0.3333333   0.4285714   0.3926478), wk =   0.0272109
        k(   11) = (   0.3333333   0.4285714   0.0490810), wk =   0.0272109
        k(   12) = (   0.1428571  -0.1428571   0.0000000), wk =   0.0272109
        k(   13) = (  -0.1904762  -0.1428571   0.1717834), wk =   0.0272109
        k(   14) = (   0.4761905  -0.1428571  -0.1717834), wk =   0.0272109
        k(   15) = (  -0.1904762   0.0000000   0.2454049), wk =   0.0272109
        k(   16) = (   0.4761905   0.0000000  -0.0981619), wk =   0.0272109
        k(   17) = (   0.1428571   0.1428571   0.1472429), wk =   0.0272109
        k(   18) = (  -0.1904762   0.1428571   0.3190263), wk =   0.0272109
        k(   19) = (   0.4761905   0.1428571  -0.0245405), wk =   0.0272109
        k(   20) = (   0.1428571   0.2857143   0.2208644), wk =   0.0544218
        k(   21) = (  -0.1904762   0.2857143   0.3926478), wk =   0.0272109
        k(   22) = (   0.4761905   0.2857143   0.0490810), wk =   0.0272109
        k(   23) = (   0.1428571  -0.5714286  -0.2208644), wk =   0.0544218
        k(   24) = (  -0.1904762  -0.5714286  -0.0490810), wk =   0.0272109
        k(   25) = (   0.4761905  -0.5714286  -0.3926478), wk =   0.0272109
        k(   26) = (   0.1428571  -0.4285714  -0.1472429), wk =   0.0544218
        k(   27) = (  -0.1904762  -0.4285714   0.0245405), wk =   0.0272109
        k(   28) = (   0.4761905  -0.4285714  -0.3190263), wk =   0.0272109
        k(   29) = (   0.1428571  -0.2857143  -0.0736215), wk =   0.0544218
        k(   30) = (  -0.1904762  -0.2857143   0.0981619), wk =   0.0272109
        k(   31) = (   0.4761905  -0.2857143  -0.2454049), wk =   0.0272109
        k(   32) = (   0.2857143  -0.2857143   0.0000000), wk =   0.0272109
        k(   33) = (  -0.0476190  -0.2857143   0.1717834), wk =   0.0272109
        k(   34) = (   0.6190476  -0.2857143  -0.1717834), wk =   0.0272109
        k(   35) = (  -0.0476190  -0.1428571   0.2454049), wk =   0.0272109
        k(   36) = (   0.6190476  -0.1428571  -0.0981619), wk =   0.0272109
        k(   37) = (  -0.0476190   0.0000000   0.3190263), wk =   0.0272109
        k(   38) = (   0.6190476   0.0000000  -0.0245405), wk =   0.0272109
        k(   39) = (  -0.0476190   0.1428571   0.3926478), wk =   0.0272109
        k(   40) = (   0.6190476   0.1428571   0.0490810), wk =   0.0272109
        k(   41) = (   0.2857143  -0.7142857  -0.2208644), wk =   0.0272109
        k(   42) = (  -0.0476190  -0.7142857  -0.0490810), wk =   0.0272109
        k(   43) = (   0.6190476  -0.7142857  -0.3926478), wk =   0.0272109
        k(   44) = (   0.2857143  -0.5714286  -0.1472429), wk =   0.0544218
        k(   45) = (  -0.0476190  -0.5714286   0.0245405), wk =   0.0272109
        k(   46) = (   0.6190476  -0.5714286  -0.3190263), wk =   0.0272109
        k(   47) = (   0.2857143  -0.4285714  -0.0736215), wk =   0.0544218
        k(   48) = (  -0.0476190  -0.4285714   0.0981619), wk =   0.0272109
        k(   49) = (   0.6190476  -0.4285714  -0.2454049), wk =   0.0272109
        k(   50) = (   0.4285714  -0.4285714   0.0000000), wk =   0.0272109
        k(   51) = (   0.0952381  -0.4285714   0.1717834), wk =   0.0272109
        k(   52) = (   0.7619048  -0.4285714  -0.1717834), wk =   0.0272109
        k(   53) = (   0.0952381  -0.2857143   0.2454049), wk =   0.0272109
        k(   54) = (   0.7619048  -0.2857143  -0.0981619), wk =   0.0272109
        k(   55) = (   0.0952381  -0.1428571   0.3190263), wk =   0.0272109
        k(   56) = (   0.7619048  -0.1428571  -0.0245405), wk =   0.0272109
        k(   57) = (   0.0952381   0.0000000   0.3926478), wk =   0.0272109
        k(   58) = (   0.7619048   0.0000000   0.0490810), wk =   0.0272109
        k(   59) = (   0.0952381  -0.8571429  -0.0490810), wk =   0.0272109
        k(   60) = (   0.7619048  -0.8571429  -0.3926478), wk =   0.0272109
        k(   61) = (   0.0952381  -0.7142857   0.0245405), wk =   0.0272109
        k(   62) = (   0.7619048  -0.7142857  -0.3190263), wk =   0.0272109
        k(   63) = (   0.4285714  -0.5714286  -0.0736215), wk =   0.0272109
        k(   64) = (   0.0952381  -0.5714286   0.0981619), wk =   0.0272109
        k(   65) = (   0.7619048  -0.5714286  -0.2454049), wk =   0.0272109

     Dense  grid:    13049 G-vectors     FFT dimensions: (  36,  36,  36)

     Estimated max dynamical RAM per process >      15.51 MB

     Estimated total dynamical RAM >     124.06 MB

     Initial potential from superposition of free atoms

     starting charge      14.9936, renormalised to      15.0000
     Starting wfcs are   14 randomized atomic wfcs

     total cpu time spent up to now is        0.6 secs

     Self-consistent Calculation

     iteration #  1     ecut=    80.00 Ry     beta= 0.70
     Davidson diagonalization with overlap
     ethr =  1.00E-02,  avg # of iterations =  7.0

     Threshold (ethr) on eigenvalues was too large:
     Diagonalizing with lowered threshold

     Davidson diagonalization with overlap
     ethr =  4.99E-04,  avg # of iterations =  2.5

     total cpu time spent up to now is        1.6 secs

     total energy              =     -37.50010905 Ry
     estimated scf accuracy    <       0.07582187 Ry

     iteration #  2     ecut=    80.00 Ry     beta= 0.70
     Davidson diagonalization with overlap
     ethr =  5.05E-04,  avg # of iterations =  1.5

     total cpu time spent up to now is        2.0 secs

     total energy              =     -37.50650017 Ry
     estimated scf accuracy    <       0.00438784 Ry

     iteration #  3     ecut=    80.00 Ry     beta= 0.70
     Davidson diagonalization with overlap
     c_bands:  1 eigenvalues not converged
     ethr =  2.93E-05,  avg # of iterations =  5.7

     total cpu time spent up to now is        2.5 secs

     total energy              =     -37.50688882 Ry
     estimated scf accuracy    <       0.00029495 Ry

     iteration #  4     ecut=    80.00 Ry     beta= 0.70
     Davidson diagonalization with overlap
     ethr =  1.97E-06,  avg # of iterations =  4.7

     total cpu time spent up to now is        2.9 secs

     total energy              =     -37.50691608 Ry
     estimated scf accuracy    <       0.00000179 Ry

     iteration #  5     ecut=    80.00 Ry     beta= 0.70
     Davidson diagonalization with overlap
     ethr =  1.20E-08,  avg # of iterations =  3.4

     total cpu time spent up to now is        3.4 secs

     total energy              =     -37.50691744 Ry
     estimated scf accuracy    <       0.00000010 Ry

     iteration #  6     ecut=    80.00 Ry     beta= 0.70
     Davidson diagonalization with overlap
     ethr =  6.72E-10,  avg # of iterations =  2.1

     total cpu time spent up to now is        3.9 secs

     End of self-consistent calculation

          k = 0.0000 0.0000 0.0000 (  1663 PWs)   bands (ev):

   -21.7837   4.6594  19.2525  22.3823  22.3823  22.5931  23.0279  23.0279
    23.2996  24.2204  31.9464  34.7313

          k =-0.3333 0.0000 0.1718 (  1625 PWs)   bands (ev):

   -21.7155   6.5166  13.2503  17.8996  18.5261  22.1210  25.8644  26.7094
    27.8230  29.3283  31.5217  37.9411

          k = 0.0000 0.1429 0.0736 (  1631 PWs)   bands (ev):

   -21.7666   5.0051  17.8690  19.4287  20.6594  21.8831  24.3384  24.5023
    25.7534  27.0969  29.8461  36.0940

          k =-0.3333 0.1429 0.2454 (  1629 PWs)   bands (ev):

   -21.7000   7.2002  12.8399  16.4093  18.0394  21.8484  24.3060  27.2259
    29.9269  32.0913  33.2271  34.5239

          k = 0.3333 0.1429-0.0982 (  1628 PWs)   bands (ev):

   -21.7085   6.5925  14.1489  17.2114  19.5568  21.3428  23.0276  24.6544
    28.0346  31.3341  33.2181  37.3902

          k = 0.0000 0.2857 0.1472 (  1634 PWs)   bands (ev):

   -21.7281   6.0347  14.3758  18.1527  18.9009  21.9310  26.3706  26.4232
    27.1663  28.5193  30.2716  37.8055

          k =-0.3333 0.2857 0.3190 (  1630 PWs)   bands (ev):

   -21.6738   8.6467  13.0458  14.1654  16.2892  21.9698  24.5209  26.3329
    28.7929  33.3199  34.7823  37.1312

          k = 0.3333 0.2857-0.0245 (  1621 PWs)   bands (ev):

   -21.6843   7.3965  14.9566  16.3477  18.4907  19.1713  22.3505  23.0037
    28.8842  34.0679  36.8146  37.0898

          k = 0.0000 0.4286 0.2209 (  1620 PWs)   bands (ev):

   -21.6973   7.5721  11.3657  17.5644  18.0848  22.7648  24.3898  26.9601
    29.9110  30.7372  34.2486  34.8576

          k =-0.3333 0.4286 0.3926 (  1632 PWs)   bands (ev):

   -21.6564  10.3595  11.9091  13.9611  15.7016  20.5751  24.5409  25.6229
    27.9155  32.9405  36.3486  40.1734

          k = 0.3333 0.4286 0.0491 (  1627 PWs)   bands (ev):

   -21.6611   8.8881  13.7915  15.3577  16.1751  19.0690  22.8222  24.3102
    30.1061  31.7264  38.4440  39.4592

          k = 0.1429-0.1429 0.0000 (  1637 PWs)   bands (ev):

   -21.7548   5.2257  17.8951  19.4668  20.5545  21.1948  22.5453  23.3345
    27.8189  28.6793  29.1724  36.7992

          k =-0.1905-0.1429 0.1718 (  1635 PWs)   bands (ev):

   -21.7356   5.8080  15.9005  17.3598  18.3011  22.7412  24.1050  25.8309
    29.3029  29.8173  29.8605  38.4659

          k = 0.4762-0.1429-0.1718 (  1628 PWs)   bands (ev):

   -21.6847   8.1769  11.3267  16.4475  18.6625  21.3299  23.1415  27.7986
    29.1008  32.2581  33.1462  37.0655

          k =-0.1905 0.0000 0.2454 (  1645 PWs)   bands (ev):

   -21.7390   5.8817  14.3280  16.6510  20.2692  21.5817  27.1140  27.7424
    27.9798  29.7707  30.4982  38.0613

          k = 0.4762 0.0000-0.0982 (  1622 PWs)   bands (ev):

   -21.6948   7.7273  11.4003  15.5380  20.8984  22.9747  24.7403  25.3206
    28.2144  31.2059  33.5524  37.0048

          k = 0.1429 0.1429 0.1472 (  1628 PWs)   bands (ev):

   -21.7470   5.4893  16.5970  18.1261  18.6036  23.0191  23.4455  25.9490
    28.3947  28.8625  29.5617  37.6974

          k =-0.1905 0.1429 0.3190 (  1635 PWs)   bands (ev):

   -21.7192   6.6759  13.1450  15.9622  17.5364  24.6912  26.3051  27.3787
    29.3996  30.5784  34.0373  35.5951

          k = 0.4762 0.1429-0.0245 (  1634 PWs)   bands (ev):

   -21.6856   8.0137  11.9532  15.0049  19.6305  22.8980  23.9352  25.6005
    26.6744  33.7392  34.9640  36.3022

          k = 0.1429 0.2857 0.2209 (  1632 PWs)   bands (ev):

   -21.7110   6.6716  13.8737  16.5834  18.0499  22.0891  24.7471  26.2010
    29.9209  31.3254  32.3754  35.4459

          k =-0.1905 0.2857 0.3926 (  1634 PWs)   bands (ev):

   -21.6912   8.1800  11.9521  14.3242  16.8511  25.1006  25.9381  28.5937
    29.7624  30.5049  32.4696  37.6018

          k = 0.4762 0.2857 0.0491 (  1631 PWs)   bands (ev):

   -21.6641   9.0148  12.7520  14.9732  16.6405  20.2745  23.5929  24.5732
    29.7440  31.8076  37.7975  38.5815

          k = 0.1429-0.5714-0.2209 (  1626 PWs)   bands (ev):

   -21.6855   8.2584  11.1949  16.2910  18.2326  21.5076  23.5483  29.3447
    29.7157  30.7085  33.3218  37.2109

          k =-0.1905-0.5714-0.0491 (  1631 PWs)   bands (ev):

   -21.6758   9.4056  10.7731  14.2206  17.6306  23.4478  25.1181  26.6194
    27.9920  32.3599  35.9804  37.0583

          k = 0.4762-0.5714-0.3926 (  1623 PWs)   bands (ev):

   -21.6464  10.7155  13.1132  14.1544  14.6524  19.4020  22.7574  25.0888
    27.6055  33.7437  37.8851  41.6853

          k = 0.1429-0.4286-0.1472 (  1628 PWs)   bands (ev):

   -21.6898   7.6584  12.1110  16.6298  18.9375  21.3058  23.0594  26.6501
    28.7511  32.3491  33.8806  36.0103

          k =-0.1905-0.4286 0.0245 (  1630 PWs)   bands (ev):

   -21.6847   7.7074  13.0102  15.5228  19.1435  21.5688  23.1849  24.3064
    27.7504  33.9417  35.5825  36.4761

          k = 0.4762-0.4286-0.3190 (  1623 PWs)   bands (ev):

   -21.6459  11.2439  12.4613  13.6853  14.8043  20.5537  23.1526  24.1508
    26.3718  36.3182  38.6459  40.4788

          k = 0.1429-0.2857-0.0736 (  1628 PWs)   bands (ev):

   -21.7206   6.1405  15.2604  17.6228  19.8904  21.3369  23.0249  23.8401
    27.8542  30.6575  32.2021  38.6732

          k =-0.1905-0.2857 0.0982 (  1626 PWs)   bands (ev):

   -21.7114   6.4257  15.2094  17.2057  19.4133  20.8170  22.4435  23.8552
    28.6943  31.8690  33.2729  37.3475

          k = 0.4762-0.2857-0.2454 (  1629 PWs)   bands (ev):

   -21.6630   9.3826  11.7407  16.0224  16.4359  20.0337  22.4983  26.5937
    27.8132  33.9492  36.2921  40.2107

          k = 0.2857-0.2857 0.0000 (  1620 PWs)   bands (ev):

   -21.6941   6.9662  15.4160  16.7632  19.2157  19.3437  22.2910  22.5130
    28.5376  33.9762  35.8042  37.1121

          k =-0.0476-0.2857 0.1718 (  1629 PWs)   bands (ev):

   -21.7248   6.1634  14.1510  17.6359  19.0729  21.6535  25.9991  26.7182
    27.9223  29.0795  30.6811  38.0616

          k = 0.6190-0.2857-0.1718 (  1623 PWs)   bands (ev):

   -21.6673   9.2619  12.1950  14.4025  16.1711  21.4828  24.3949  27.1694
    27.5805  32.9136  36.0157  38.0288

          k =-0.0476-0.1429 0.2454 (  1646 PWs)   bands (ev):

   -21.7461   5.6912  14.4569  17.4239  19.5099  22.6274  25.7743  27.5361
    27.9189  30.0697  31.1445  37.9260

          k = 0.6190-0.1429-0.0982 (  1632 PWs)   bands (ev):

   -21.6851   8.8800  10.7174  14.3395  18.2370  23.9407  25.1997  27.9275
    28.9774  31.7838  35.2760  35.8853

          k =-0.0476 0.0000 0.3190 (  1659 PWs)   bands (ev):

   -21.7473   5.8641  12.8844  18.7660  19.2170  22.8400  23.4246  29.0863
    29.2255  33.2814  33.4048  38.0754

          k = 0.6190 0.0000-0.0245 (  1637 PWs)   bands (ev):

   -21.6925   9.2126   9.6886  14.0328  20.8373  22.9764  25.5189  27.7670
    29.8819  34.2667  34.6638  35.0784

          k =-0.0476 0.1429 0.3926 (  1641 PWs)   bands (ev):

   -21.7278   6.7130  11.7058  16.6031  18.7468  23.2324  25.8441  29.4671
    30.6203  32.3940  36.0000  37.1566

          k = 0.6190 0.1429 0.0491 (  1635 PWs)   bands (ev):

   -21.6841   9.3326  10.2706  14.0322  18.2197  24.7928  25.6926  27.1191
    28.3337  32.7441  34.7478  36.5678

          k = 0.2857-0.7143-0.2209 (  1628 PWs)   bands (ev):

   -21.6822   8.0486  13.8733  14.1225  16.5053  22.4812  24.3584  25.8014
    30.1883  33.3839  33.6113  35.9448

          k =-0.0476-0.7143-0.0491 (  1639 PWs)   bands (ev):

   -21.7022   8.2171  10.5797  14.2972  19.4218  23.3685  27.3470  29.1352
    30.8269  31.9693  34.2811  36.2038

          k = 0.6190-0.7143-0.3926 (  1631 PWs)   bands (ev):

   -21.6660   9.6776  11.8586  13.9086  16.0052  21.9055  25.2923  26.7320
    28.1980  31.9770  35.1836  39.2966

          k = 0.2857-0.5714-0.1472 (  1631 PWs)   bands (ev):

   -21.6633   9.7194  11.6355  14.6958  16.1599  21.0400  24.1155  26.3651
    28.3322  32.3398  37.1055  38.4178

          k =-0.0476-0.5714 0.0245 (  1632 PWs)   bands (ev):

   -21.6895   8.8757  10.1806  14.2263  20.7727  23.6151  24.8099  26.7071
    28.6351  33.6718  34.5417  36.2335

          k = 0.6190-0.5714-0.3190 (  1627 PWs)   bands (ev):

   -21.6518  10.4486  12.4559  13.8525  15.5622  20.3419  23.7647  24.9496
    26.5592  35.7840  37.5481  39.6359

          k = 0.2857-0.4286-0.0736 (  1628 PWs)   bands (ev):

   -21.6685   8.4664  13.3621  15.6005  17.0813  19.8463  22.7535  24.1993
    29.8454  32.2927  37.6875  38.7889

          k =-0.0476-0.4286 0.0982 (  1627 PWs)   bands (ev):

   -21.6995   7.2515  12.1929  16.1073  20.3841  23.2473  23.9169  25.8139
    27.2500  30.7668  33.0641  37.3576

          k = 0.6190-0.4286-0.2454 (  1622 PWs)   bands (ev):

   -21.6524  10.1577  12.7388  14.0453  15.6291  20.6450  22.7600  24.8611
    26.7767  36.4985  37.6738  39.6339

          k = 0.4286-0.4286 0.0000 (  1624 PWs)   bands (ev):

   -21.6495   9.9500  14.1295  14.2023  15.4177  17.9809  22.7625  25.4433
    30.0636  30.9380  36.9605  41.5817

          k = 0.0952-0.4286 0.1718 (  1628 PWs)   bands (ev):

   -21.6944   7.5468  11.7993  17.0435  18.6618  22.1464  23.4197  27.8125
    28.1934  31.3349  34.0378  35.4450

          k = 0.7619-0.4286-0.1718 (  1633 PWs)   bands (ev):

   -21.6709   9.1509  11.4186  15.3209  16.8206  21.3469  23.6059  27.5818
    28.7774  31.5410  36.5833  37.6821

          k = 0.0952-0.2857 0.2454 (  1632 PWs)   bands (ev):

   -21.7146   6.6393  13.4343  16.2277  18.8550  21.9902  25.8455  27.3638
    28.9594  31.3107  31.7476  35.8609

          k = 0.7619-0.2857-0.0982 (  1640 PWs)   bands (ev):

   -21.6832   8.7214  11.9120  13.8753  16.2502  24.6808  26.8728  28.2924
    29.0488  30.5730  32.0493  39.2988

          k = 0.0952-0.1429 0.3190 (  1642 PWs)   bands (ev):

   -21.7324   6.2714  13.0237  16.9052  18.2371  24.0106  25.6662  28.4850
    29.0383  30.7990  33.8207  37.5179

          k = 0.7619-0.1429-0.0245 (  1644 PWs)   bands (ev):

   -21.7006   8.2291  10.8256  14.6595  17.3282  25.8875  27.8985  29.0068
    29.4427  31.2993  32.0332  38.6015

          k = 0.0952 0.0000 0.3926 (  1653 PWs)   bands (ev):

   -21.7344   6.4963  11.6554  17.5591  18.9616  22.8188  24.4507  30.1584
    30.8943  33.3549  36.2052  38.7406

          k = 0.7619 0.0000 0.0491 (  1646 PWs)   bands (ev):

   -21.7102   7.7651  10.7444  14.8054  19.5003  22.8527  28.2979  29.1061
    30.2387  33.2578  34.5227  36.6858

          k = 0.0952-0.8571-0.0491 (  1635 PWs)   bands (ev):

   -21.7195   7.3014  10.8866  16.3630  17.8401  24.4393  25.8371  30.0876
    31.1546  32.8080  34.8916  39.0781

          k = 0.7619-0.8571-0.3926 (  1633 PWs)   bands (ev):

   -21.7049   7.5632  11.8809  14.9176  17.4505  25.1213  27.2109  28.3032
    29.3932  31.5533  32.6247  36.9577

          k = 0.0952-0.7143 0.0245 (  1641 PWs)   bands (ev):

   -21.6986   8.4622  10.5177  14.2254  18.4954  24.5882  27.3125  28.7724
    30.6349  31.2664  33.4922  37.3873

          k = 0.7619-0.7143-0.3190 (  1631 PWs)   bands (ev):

   -21.6884   7.8702  13.2609  14.5101  16.5384  23.5004  24.9339  26.5080
    30.7087  31.8177  33.1143  36.1024

          k = 0.4286-0.5714-0.0736 (  1639 PWs)   bands (ev):

   -21.6472  11.7510  11.9742  13.1611  15.2481  19.3295  23.4824  27.0546
    27.0965  32.8255  35.6545  42.4036

          k = 0.0952-0.5714 0.0982 (  1629 PWs)   bands (ev):

   -21.6873   8.7216  10.4921  14.6545  19.6409  23.0453  25.1333  26.8732
    28.9112  33.3420  34.2246  36.3793

          k = 0.7619-0.5714-0.2454 (  1631 PWs)   bands (ev):

   -21.6732   8.6247  11.9134  16.3619  17.1364  20.2873  22.7217  26.8385
    29.4539  32.6188  34.8343  38.4576

     the Fermi energy is    26.6713 ev

!    total energy              =     -37.50691745 Ry
     estimated scf accuracy    <          1.7E-09 Ry
     smearing contrib. (-TS)   =      -0.00027965 Ry
     internal energy E=F+TS    =     -37.50663781 Ry

     The total energy is F=E-TS. E is the sum of the following terms:
     one-electron contribution =      26.22280243 Ry
     hartree contribution      =       2.67180809 Ry
     xc contribution           =     -15.79495431 Ry
     ewald contribution        =     -50.60629401 Ry

     convergence has been achieved in   6 iterations

     Forces acting on atoms (cartesian axes, Ry/au):

     atom    1 type  1   force =    -0.00000000    0.00000000    0.00000000
     atom    2 type  1   force =     0.00000000   -0.00000000   -0.00000000
     atom    3 type  1   force =    -0.00000000    0.00000000    0.00000000
     atom    4 type  2   force =    -0.00000000    0.00000000    0.00000000
     The non-local contrib.  to forces
     atom    1 type  1   force =    -0.00000000    0.00000000    0.00000000
     atom    2 type  1   force =    -0.00000000    0.00000000    0.00000000
     atom    3 type  1   force =     0.00000000    0.00000000    0.00000000
     atom    4 type  2   force =     0.00000000   -0.00000000   -0.00000000
     The ionic contribution  to forces
     atom    1 type  1   force =    -0.00000000   -0.00000000   -0.00000000
     atom    2 type  1   force =    -0.00000000    0.00000000   -0.00000000
     atom    3 type  1   force =    -0.00000000   -0.00000000    0.00000000
     atom    4 type  2   force =    -0.00000000   -0.00000000   -0.00000000
     The local contribution  to forces
     atom    1 type  1   force =     0.00000000   -0.00000000    0.00000000
     atom    2 type  1   force =    -0.00000000    0.00000000   -0.00000000
     atom    3 type  1   force =    -0.00000000   -0.00000000   -0.00000000
     atom    4 type  2   force =     0.00000000   -0.00000000    0.00000000
     The core correction contribution to forces
     atom    1 type  1   force =    -0.00000000   -0.00000000   -0.00000000
     atom    2 type  1   force =     0.00000000   -0.00000000   -0.00000000
     atom    3 type  1   force =    -0.00000000   -0.00000000   -0.00000000
     atom    4 type  2   force =     0.00000000    0.00000000    0.00000000
     The Hubbard contrib.    to forces
     atom    1 type  1   force =     0.00000000    0.00000000    0.00000000
     atom    2 type  1   force =     0.00000000    0.00000000    0.00000000
     atom    3 type  1   force =     0.00000000    0.00000000    0.00000000
     atom    4 type  2   force =     0.00000000    0.00000000    0.00000000
     The SCF correction term to forces
     atom    1 type  1   force =    -0.00000000    0.00000000    0.00000000
     atom    2 type  1   force =     0.00000000   -0.00000000   -0.00000000
     atom    3 type  1   force =     0.00000000   -0.00000000    0.00000000
     atom    4 type  2   force =    -0.00000000   -0.00000000   -0.00000000

     Total force =     0.000000     Total SCF correction =     0.000000


     Computing stress (Cartesian axis) and pressure

          total   stress  (Ry/bohr**3)                   (kbar)     P=     6603.29
   0.04460850   0.00000000   0.00000000         6562.14        0.00        0.00
   0.00000000   0.04460850  -0.00000000            0.00     6562.14       -0.00
   0.00000000   0.00000000   0.04544779            0.00        0.00     6685.60


     BFGS Geometry Optimization
     Energy error            =      0.0E+00 Ry
     Gradient error          =      1.8E-31 Ry/Bohr
     Cell gradient error     =      6.2E+03 kbar

     number of scf cycles    =   1
     number of bfgs steps    =   0

     enthalpy           new  =     -37.0479834652 Ry

     new trust radius        =       0.5000000000 bohr
ibrav =      7
 celldm(1) =      6.27487243
 celldm(3) =      1.94730975
Input lattice vectors:
     0.60542654    -0.60542654     1.17895301
     0.60542654     0.60542654     1.17895301
    -0.60542654    -0.60542654     1.17895301
New lattice vectors in INITIAL alat:
     0.60542654    -0.60542654     1.17895301
     0.60542654     0.60542654     1.17895301
    -0.60542654    -0.60542654     1.17895301
New lattice vectors in NEW alat (for information only):
     0.50000000    -0.50000000     0.97365488
     0.50000000     0.50000000     0.97365488
    -0.50000000    -0.50000000     0.97365488
Discrepancy in bohr =     0.000000    0.000000    0.000000
     new conv_thr            =       0.0000000100 Ry

     new unit-cell volume =    240.55797 a.u.^3 (    35.64701 Ang^3 )
     density =      4.24824 g/cm^3

CELL_PARAMETERS (alat=  5.18219139)
   0.605426543  -0.605426543   1.178953011
   0.605426543   0.605426543   1.178953011
  -0.605426543  -0.605426543   1.178953011

ATOMIC_POSITIONS (crystal)
Si           -0.5000000000        0.7500000000        0.2500000000
Si           -0.5000000000        1.2500000000        0.7500000000
Si           -0.0000000000        0.5000000000        0.5000000000
Li           -0.0000000000        0.0000000000        0.0000000000



     Writing config-only to output data dir ./output/SiLi.save/
     NEW-OLD atomic charge density approx. for the potential
     extrapolated charge   21.57783, renormalised to   15.00000

     total cpu time spent up to now is        4.7 secs

     Self-consistent Calculation

     iteration #  1     ecut=    80.00 Ry     beta= 0.70
     Davidson diagonalization with overlap
     c_bands:  1 eigenvalues not converged
     c_bands:  1 eigenvalues not converged
     c_bands:  1 eigenvalues not converged
     c_bands:  1 eigenvalues not converged
     c_bands:  1 eigenvalues not converged
     c_bands:  1 eigenvalues not converged
     c_bands:  2 eigenvalues not converged
     c_bands:  1 eigenvalues not converged
     c_bands:  2 eigenvalues not converged
     c_bands:  1 eigenvalues not converged
     c_bands:  1 eigenvalues not converged
     c_bands:  2 eigenvalues not converged
     c_bands:  1 eigenvalues not converged
     c_bands:  1 eigenvalues not converged
     c_bands:  1 eigenvalues not converged
     c_bands:  1 eigenvalues not converged
     c_bands:  1 eigenvalues not converged
     c_bands:  1 eigenvalues not converged
     c_bands:  1 eigenvalues not converged
     c_bands:  1 eigenvalues not converged
     c_bands:  1 eigenvalues not converged
     c_bands:  1 eigenvalues not converged
     ethr =  1.00E-06,  avg # of iterations = 16.5

     total cpu time spent up to now is        6.5 secs

     total energy              =     -39.32555610 Ry
     estimated scf accuracy    <       0.04514299 Ry

     iteration #  2     ecut=    80.00 Ry     beta= 0.70
     Davidson diagonalization with overlap
     ethr =  3.01E-04,  avg # of iterations =  3.0

     total cpu time spent up to now is        7.1 secs

     total energy              =     -39.46732427 Ry
     estimated scf accuracy    <       0.04633773 Ry

     iteration #  3     ecut=    80.00 Ry     beta= 0.70
     Davidson diagonalization with overlap
     ethr =  3.01E-04,  avg # of iterations =  1.0

     total cpu time spent up to now is        7.5 secs

     total energy              =     -39.45943686 Ry
     estimated scf accuracy    <       0.01316225 Ry

     iteration #  4     ecut=    80.00 Ry     beta= 0.70
     Davidson diagonalization with overlap
     ethr =  8.77E-05,  avg # of iterations =  2.0

     total cpu time spent up to now is        7.9 secs

     total energy              =     -39.46169184 Ry
     estimated scf accuracy    <       0.00019184 Ry

     iteration #  5     ecut=    80.00 Ry     beta= 0.70
     Davidson diagonalization with overlap
     ethr =  1.28E-06,  avg # of iterations =  5.1

     total cpu time spent up to now is        8.5 secs

     total energy              =     -39.46166611 Ry
     estimated scf accuracy    <       0.00008843 Ry

     iteration #  6     ecut=    80.00 Ry     beta= 0.70
     Davidson diagonalization with overlap
     ethr =  5.90E-07,  avg # of iterations =  2.0

     total cpu time spent up to now is        8.9 secs

     total energy              =     -39.46167105 Ry
     estimated scf accuracy    <       0.00000493 Ry

     iteration #  7     ecut=    80.00 Ry     beta= 0.70
     Davidson diagonalization with overlap
     ethr =  3.28E-08,  avg # of iterations =  2.3

     total cpu time spent up to now is        9.4 secs

     total energy              =     -39.46167228 Ry
     estimated scf accuracy    <       0.00000002 Ry

     iteration #  8     ecut=    80.00 Ry     beta= 0.70
     Davidson diagonalization with overlap
     ethr =  1.32E-10,  avg # of iterations =  4.3

     total cpu time spent up to now is        9.9 secs

     End of self-consistent calculation

          k = 0.0000 0.0000 0.0000 (  1663 PWs)   bands (ev):

   -31.1028  -1.7059   9.4376  11.6498  11.6498  12.7774  13.0914  13.0914
    13.9671  13.9907  16.1198  20.7519

          k =-0.2753-0.0000 0.1414 (  1625 PWs)   bands (ev):

   -31.0924  -0.1340   4.9828   8.6793   9.4845  11.7721  14.6292  15.2241
    16.7961  16.8379  18.2013  21.2281

          k = 0.0000 0.1180 0.0606 (  1631 PWs)   bands (ev):

   -31.0973  -1.4123   8.5092   9.8180  11.2936  11.5184  13.7915  13.8576
    14.9082  15.8547  18.0153  18.3473

          k =-0.2753 0.1180 0.2020 (  1629 PWs)   bands (ev):

   -31.0916   0.4259   4.6741   7.4893   9.3213  11.0956  13.3945  15.9680
    17.2797  19.5212  20.2618  21.0041

          k = 0.2753 0.1180-0.0808 (  1628 PWs)   bands (ev):

   -31.0920  -0.1002   5.7625   8.5889   9.8642  10.7955  12.2933  14.0194
    16.7252  18.1041  19.7354  22.1520

          k = 0.0000 0.2360 0.1212 (  1634 PWs)   bands (ev):

   -31.0945  -0.5426   5.8739   8.8182   9.8429  11.6283  14.8635  15.1850
    16.0552  16.5483  17.7464  20.4449

          k =-0.2753 0.2360 0.2625 (  1630 PWs)   bands (ev):

   -31.0893   1.5660   4.8822   5.7802   7.8210  11.0890  13.2426  15.0986
    16.8477  20.2683  21.7862  22.8736

          k = 0.2753 0.2360-0.0202 (  1621 PWs)   bands (ev):

   -31.0887   0.5207   6.7886   8.0243   8.5244   9.0613  11.8530  12.4441
    16.8014  21.2865  22.2996  22.6036

          k = 0.0000 0.3539 0.1818 (  1620 PWs)   bands (ev):

   -31.0905   0.7920   3.4354   8.5847   8.9619  12.1955  13.7414  15.2291
    17.7006  18.3115  19.6121  21.3204

          k =-0.2753 0.3539 0.3231 (  1632 PWs)   bands (ev):

   -31.0880   2.9223   4.0158   5.6286   7.4923   9.8479  13.2829  14.1543
    16.4187  20.1215  22.7271  23.2979

          k = 0.2753 0.3539 0.0404 (  1627 PWs)   bands (ev):

   -31.0876   1.7007   5.7033   6.9233   7.6442   8.6566  11.9596  13.3938
    17.7415  19.0393  23.4173  23.6232

          k = 0.1180-0.1180-0.0000 (  1637 PWs)   bands (ev):

   -31.0970  -1.2351   8.8907  10.1797  10.5107  10.7504  11.9443  13.3526
    16.9325  16.9405  17.4680  18.4241

          k =-0.1573-0.1180 0.1414 (  1635 PWs)   bands (ev):

   -31.0953  -0.7348   7.0278   8.1873   9.3465  12.1371  13.2587  15.3158
    16.7564  17.5805  18.0132  20.7709

          k = 0.3933-0.1180-0.1414 (  1628 PWs)   bands (ev):

   -31.0902   1.2662   3.4326   7.7718   9.8028  10.4454  12.4395  16.1418
    17.5155  19.1461  19.5592  20.8909

          k =-0.1573-0.0000 0.2020 (  1645 PWs)   bands (ev):

   -31.0967  -0.6465   5.7810   7.6338  10.4212  12.3426  14.8090  16.2963
    16.4942  18.3081  18.3284  19.9314

          k = 0.3933 0.0000-0.0808 (  1622 PWs)   bands (ev):

   -31.0905   0.8814   3.5839   6.8278  11.1981  12.3805  13.8772  14.7937
    17.0165  17.2585  18.1687  23.2057

          k = 0.1180 0.1180 0.1212 (  1628 PWs)   bands (ev):

   -31.0953  -1.0012   7.5265   8.7791   9.5709  12.3588  13.0161  15.3297
    16.4399  16.8111  17.6966  19.8895

          k =-0.1573 0.1180 0.2625 (  1635 PWs)   bands (ev):

   -31.0938   0.0206   4.8829   7.0983   8.5067  14.2247  15.1776  16.0722
    16.4953  18.2806  21.0337  21.5025

          k = 0.3933 0.1180-0.0202 (  1634 PWs)   bands (ev):

   -31.0910   1.0644   4.1183   6.4132  10.2731  11.9097  13.0903  14.3318
    16.1764  19.0443  20.0528  21.9949

          k = 0.1180 0.2360 0.1818 (  1632 PWs)   bands (ev):

   -31.0929  -0.0164   5.4915   7.5899   9.2656  11.4124  13.6133  15.4239
    17.1528  18.9218  19.9467  21.5266

          k =-0.1573 0.2360 0.3231 (  1634 PWs)   bands (ev):

   -31.0913   1.2348   4.0607   5.8130   7.9719  13.7063  14.9307  17.1124
    17.3796  17.9570  19.8007  22.0957

          k = 0.3933 0.2360 0.0404 (  1631 PWs)   bands (ev):

   -31.0885   1.8187   4.7706   6.5484   8.0352   9.6427  12.6201  13.6063
    17.7218  19.1607  22.2174  23.3571

          k = 0.1180-0.4719-0.1818 (  1626 PWs)   bands (ev):

   -31.0900   1.3535   3.3066   7.5064   9.5590  10.6137  12.8282  17.3003
    17.6245  18.1353  19.9624  22.1114

          k =-0.1573-0.4719-0.0404 (  1631 PWs)   bands (ev):

   -31.0898   2.1974   3.1985   5.7228   8.6793  12.2643  14.0439  15.0845
    16.9866  19.6079  20.2723  22.2826

          k = 0.3933-0.4719-0.3231 (  1623 PWs)   bands (ev):

   -31.0858   3.1260   5.0368   5.8402   6.5850   9.1118  11.8716  13.6488
    16.1313  20.2080  23.2198  25.7153

          k = 0.1180-0.3539-0.1212 (  1628 PWs)   bands (ev):

   -31.0906   0.8013   4.1011   7.9913   9.8365  10.5327  12.3441  15.3247
    17.4555  18.6027  20.3809  20.6590

          k =-0.1573-0.3539 0.0202 (  1630 PWs)   bands (ev):

   -31.0902   0.7961   4.9475   6.9837   9.8722  10.7183  12.5734  13.3653
    16.5805  20.0517  20.7360  21.7197

          k = 0.3933-0.3539-0.2625 (  1623 PWs)   bands (ev):

   -31.0858   3.5634   4.5223   5.3958   6.6966  10.0152  12.2095  12.8561
    15.2070  22.2596  24.2331  25.3151

          k = 0.1180-0.2360-0.0606 (  1628 PWs)   bands (ev):

   -31.0930  -0.4764   6.6733   8.9538   9.9250  10.8638  12.2273  13.6069
    16.3965  17.9817  19.3071  21.4372

          k =-0.1573-0.2360 0.0808 (  1626 PWs)   bands (ev):

   -31.0919  -0.2461   6.6667   8.5519   9.8233  10.3717  11.5827  13.5578
    16.8786  18.9884  20.3610  21.8358

          k = 0.3933-0.2360-0.2020 (  1629 PWs)   bands (ev):

   -31.0881   2.1967   3.7763   7.5700   7.9114   9.6522  11.4567  14.8622
    16.2908  21.1946  22.1807  23.3587

          k = 0.2360-0.2360-0.0000 (  1620 PWs)   bands (ev):

   -31.0895   0.1764   7.2704   8.3758   8.5199   9.5322  11.9517  12.0868
    16.5372  21.6501  21.8838  22.3905

          k =-0.0393-0.2360 0.1414 (  1629 PWs)   bands (ev):

   -31.0937  -0.4330   5.6949   8.4125  10.0966  11.2775  14.7126  15.3557
    16.2456  17.1289  18.3450  20.4738

          k = 0.5112-0.2360-0.1414 (  1623 PWs)   bands (ev):

   -31.0879   2.0671   4.2074   5.9760   7.7716  10.6655  13.1918  15.2229
    16.3156  20.2478  22.7503  22.8390

          k =-0.0393-0.1180 0.2020 (  1646 PWs)   bands (ev):

   -31.0974  -0.8018   5.8379   8.2612   9.9371  13.0178  14.9640  15.3749
    16.2823  18.0858  19.0159  20.0527

          k = 0.5112-0.1180-0.0808 (  1632 PWs)   bands (ev):

   -31.0907   1.8254   3.1092   5.7514   9.1383  12.9621  14.2152  16.4344
    16.9066  19.2643  20.4654  21.5593

          k =-0.0393-0.0000 0.2625 (  1659 PWs)   bands (ev):

   -31.0990  -0.6132   4.5614   9.2864   9.6336  12.3159  13.9475  17.1924
    17.4768  20.0000  20.1351  21.3236

          k = 0.5112 0.0000-0.0202 (  1637 PWs)   bands (ev):

   -31.0920   2.0849   2.4154   5.3349  10.8665  13.4785  14.3406  16.0344
    18.2329  18.3889  19.5893  21.7061

          k =-0.0393 0.1180 0.3231 (  1641 PWs)   bands (ev):

   -31.0951   0.1218   3.6719   7.5696   9.3058  13.0628  15.2702  17.0926
    18.3717  20.1221  21.8512  22.1964

          k = 0.5112 0.1180 0.0404 (  1635 PWs)   bands (ev):

   -31.0910   2.1717   2.8254   5.4551   9.0796  13.5540  14.6673  15.9877
    16.4451  19.8092  20.2447  21.7198

          k = 0.2360-0.5899-0.1818 (  1628 PWs)   bands (ev):

   -31.0898   1.0868   5.4977   5.7648   7.9547  11.5290  13.0947  14.9368
    17.8045  19.9140  20.9497  21.9266

          k =-0.0393-0.5899-0.0404 (  1639 PWs)   bands (ev):

   -31.0929   1.3322   3.0099   5.5850   9.8509  13.5250  15.6165  17.1106
    18.8528  19.2685  20.2899  21.2018

          k = 0.5112-0.5899-0.3231 (  1631 PWs)   bands (ev):

   -31.0888   2.3993   3.9695   5.5973   7.5233  11.0001  13.9375  15.0077
    16.7024  19.6329  22.0436  22.3526

          k = 0.2360-0.4719-0.1212 (  1631 PWs)   bands (ev):

   -31.0885   2.4542   3.7452   6.2326   7.7890  10.2817  12.9958  14.7334
    16.7072  19.9175  22.3411  23.5822

          k =-0.0393-0.4719 0.0202 (  1632 PWs)   bands (ev):

   -31.0911   1.7997   2.7833   5.5573  10.9556  13.4383  14.2374  15.1274
    17.0324  18.3362  19.3002  22.7891

          k = 0.5112-0.4719-0.2625 (  1627 PWs)   bands (ev):

   -31.0870   2.9732   4.4746   5.5045   7.4510   9.7144  12.5579  13.5562
    15.4221  22.1529  23.8320  24.5249

          k = 0.2360-0.3539-0.0606 (  1628 PWs)   bands (ev):

   -31.0884   1.3821   5.2501   7.2778   8.1668   9.3379  12.0383  13.2488
    17.7321  19.4917  22.3263  23.3881

          k =-0.0393-0.3539 0.0808 (  1627 PWs)   bands (ev):

   -31.0914   0.4715   4.2021   7.3690  10.7315  12.3722  13.3369  15.1883
    16.2356  17.0742  18.2413  22.4028

          k = 0.5112-0.3539-0.2020 (  1622 PWs)   bands (ev):

   -31.0863   2.7376   4.6867   5.7132   7.3899  10.1113  11.7328  13.5516
    15.4770  22.9310  23.3317  24.7963

          k = 0.3539-0.3539-0.0000 (  1624 PWs)   bands (ev):

   -31.0862   2.5182   5.7356   6.3378   7.3914   7.5202  11.6800  14.3513
    17.8284  18.0774  22.2773  25.4075

          k = 0.0787-0.3539 0.1414 (  1628 PWs)   bands (ev):

   -31.0912   0.7345   3.8215   8.2740   9.4435  11.3407  12.8979  16.2518
    16.7817  18.0156  19.8552  20.9786

          k = 0.6292-0.3539-0.1414 (  1633 PWs)   bands (ev):

   -31.0894   2.0323   3.5342   6.7508   8.2724  10.5954  12.6303  15.6758
    17.0344  19.2823  21.9045  22.7511

          k = 0.0787-0.2360 0.2020 (  1632 PWs)   bands (ev):

   -31.0932  -0.0298   5.1459   7.2959   9.8163  11.6374  14.5949  15.7880
    16.7209  19.0397  19.5120  20.9800

          k = 0.6292-0.2360-0.0808 (  1640 PWs)   bands (ev):

   -31.0914   1.6592   4.0253   5.5433   7.4679  13.2695  15.4231  16.5863
    17.2030  18.2259  19.7388  21.7921

          k = 0.0787-0.1180 0.2625 (  1642 PWs)   bands (ev):

   -31.0957  -0.2954   4.7364   7.8220   8.9920  13.8603  15.1499  16.0741
    16.7637  18.7291  20.7375  21.5968

          k = 0.6292-0.1180-0.0202 (  1644 PWs)   bands (ev):

   -31.0933   1.3638   3.0844   6.0329   8.2488  15.2140  16.0039  17.2298
    17.6529  18.4328  19.5516  21.0819

          k = 0.0787-0.0000 0.3231 (  1653 PWs)   bands (ev):

   -31.0971  -0.0405   3.5855   8.3334   9.4440  12.4583  14.4278  17.8585
    18.8514  21.0737  21.4062  22.0468

          k = 0.6292-0.0000 0.0404 (  1646 PWs)   bands (ev):

   -31.0944   1.0017   3.0290   6.0418   9.8578  13.0398  16.3877  17.5536
    18.1244  20.4894  20.6933  21.5265

          k = 0.0787-0.7079-0.0404 (  1635 PWs)   bands (ev):

   -31.0937   0.6655   2.9850   7.3868   8.6156  13.7322  15.3952  17.9911
    18.6629  20.2402  20.9691  22.1167

          k = 0.6292-0.7079-0.3231 (  1633 PWs)   bands (ev):

   -31.0923   0.7636   3.9520   6.2450   8.3950  14.5857  15.4915  16.5973
    17.2699  18.9332  19.5217  22.3689

          k = 0.0787-0.5899 0.0202 (  1641 PWs)   bands (ev):

   -31.0928   1.5330   2.9485   5.5618   9.1837  14.3728  15.6534  16.7137
    18.4006  18.8745  20.4086  20.7867

          k = 0.6292-0.5899-0.2625 (  1631 PWs)   bands (ev):

   -31.0908   0.9565   5.0397   6.0319   7.8679  12.3657  13.7172  15.5784
    18.1416  18.8092  20.3436  22.2356

          k = 0.3539-0.4719-0.0606 (  1639 PWs)   bands (ev):

   -31.0881   3.8794   4.1985   5.0525   7.2337   8.8427  12.3298  14.9830
    16.1014  19.5069  21.9213  25.1192

          k = 0.0787-0.4719 0.0808 (  1629 PWs)   bands (ev):

   -31.0906   1.7312   2.8816   6.0141  10.2805  12.4332  14.1174  15.6604
    17.0109  19.2706  20.1776  20.6955

          k = 0.6292-0.4719-0.2020 (  1631 PWs)   bands (ev):

   -31.0893   1.5833   3.9204   7.7321   8.7313   9.6177  11.7610  15.2974
    17.3551  19.9987  21.0750  22.9247

     the Fermi energy is    15.3216 ev

!    total energy              =     -39.46167230 Ry
     estimated scf accuracy    <          4.5E-09 Ry
     smearing contrib. (-TS)   =      -0.00063371 Ry
     internal energy E=F+TS    =     -39.46103859 Ry

     The total energy is F=E-TS. E is the sum of the following terms:
     one-electron contribution =      13.29733245 Ry
     hartree contribution      =       2.83597566 Ry
     xc contribution           =     -13.84970862 Ry
     ewald contribution        =     -41.74463808 Ry

     convergence has been achieved in   8 iterations

     Forces acting on atoms (cartesian axes, Ry/au):

     atom    1 type  1   force =     0.00000000    0.00000000   -0.00000000
     atom    2 type  1   force =     0.00000000    0.00000000   -0.00000000
     atom    3 type  1   force =     0.00000000    0.00000000   -0.00000000
     atom    4 type  2   force =    -0.00000000   -0.00000000    0.00000000
     The non-local contrib.  to forces
     atom    1 type  1   force =     0.00000000    0.00000000    0.00000000
     atom    2 type  1   force =     0.00000000    0.00000000   -0.00000000
     atom    3 type  1   force =     0.00000000    0.00000000    0.00000000
     atom    4 type  2   force =    -0.00000000   -0.00000000    0.00000000
     The ionic contribution  to forces
     atom    1 type  1   force =    -0.00000000    0.00000000   -0.00000000
     atom    2 type  1   force =     0.00000000    0.00000000   -0.00000000
     atom    3 type  1   force =     0.00000000    0.00000000   -0.00000000
     atom    4 type  2   force =    -0.00000000   -0.00000000   -0.00000000
     The local contribution  to forces
     atom    1 type  1   force =     0.00000000    0.00000000    0.00000000
     atom    2 type  1   force =    -0.00000000   -0.00000000   -0.00000000
     atom    3 type  1   force =    -0.00000000   -0.00000000   -0.00000000
     atom    4 type  2   force =    -0.00000000    0.00000000    0.00000000
     The core correction contribution to forces
     atom    1 type  1   force =     0.00000000   -0.00000000    0.00000000
     atom    2 type  1   force =    -0.00000000   -0.00000000    0.00000000
     atom    3 type  1   force =    -0.00000000   -0.00000000   -0.00000000
     atom    4 type  2   force =     0.00000000    0.00000000    0.00000000
     The Hubbard contrib.    to forces
     atom    1 type  1   force =     0.00000000    0.00000000    0.00000000
     atom    2 type  1   force =     0.00000000    0.00000000    0.00000000
     atom    3 type  1   force =     0.00000000    0.00000000    0.00000000
     atom    4 type  2   force =     0.00000000    0.00000000    0.00000000
     The SCF correction term to forces
     atom    1 type  1   force =    -0.00000000   -0.00000000   -0.00000000
     atom    2 type  1   force =     0.00000000    0.00000000    0.00000000
     atom    3 type  1   force =     0.00000000    0.00000000   -0.00000000
     atom    4 type  2   force =     0.00000000    0.00000000   -0.00000000

     Total force =     0.000000     Total SCF correction =     0.000000


     Computing stress (Cartesian axis) and pressure

          total   stress  (Ry/bohr**3)                   (kbar)     P=      840.93
   0.00556927  -0.00000000  -0.00000000          819.27       -0.00       -0.00
  -0.00000000   0.00556927   0.00000000           -0.00      819.27        0.00
   0.00000000  -0.00000000   0.00601101            0.00       -0.00      884.25

     Energy error            =      1.6E+00 Ry
     Gradient error          =      6.3E-31 Ry/Bohr
     Cell gradient error     =      3.8E+02 kbar

     number of scf cycles    =   2
     number of bfgs steps    =   1

     enthalpy           old  =     -37.0479834652 Ry
     enthalpy           new  =     -38.6440323903 Ry

     CASE: enthalpy          _new < enthalpy          _old

     new trust radius        =       0.0754100629 bohr
ibrav =      7
 celldm(1) =      6.34586590
 celldm(3) =      1.97233449
Input lattice vectors:
     0.61227630    -0.61227630     1.20761365
     0.61227630     0.61227630     1.20761365
    -0.61227630    -0.61227630     1.20761365
New lattice vectors in INITIAL alat:
     0.61227630    -0.61227630     1.20761365
     0.61227630     0.61227630     1.20761365
    -0.61227630    -0.61227630     1.20761365
New lattice vectors in NEW alat (for information only):
     0.50000000    -0.50000000     0.98616724
     0.50000000     0.50000000     0.98616724
    -0.50000000    -0.50000000     0.98616724
Discrepancy in bohr =     0.000000    0.000000    0.000000
     new conv_thr            =            1.0E-10 Ry

     new unit-cell volume =    252.01317 a.u.^3 (    37.34450 Ang^3 )
     density =      4.05514 g/cm^3

CELL_PARAMETERS (alat=  5.18219139)
   0.612276297  -0.612276297   1.207613654
   0.612276297   0.612276297   1.207613654
  -0.612276297  -0.612276297   1.207613654

ATOMIC_POSITIONS (crystal)
Si           -0.5000000000        0.7500000000        0.2500000000
Si           -0.5000000000        1.2500000000        0.7500000000
Si            0.0000000000        0.5000000000        0.5000000000
Li           -0.0000000000        0.0000000000        0.0000000000



     Writing config-only to output data dir ./output/SiLi.save/
     NEW-OLD atomic charge density approx. for the potential
     extrapolated charge   15.68153, renormalised to   15.00000

     total cpu time spent up to now is       10.7 secs

     Self-consistent Calculation

     iteration #  1     ecut=    80.00 Ry     beta= 0.70
     Davidson diagonalization with overlap
     c_bands:  1 eigenvalues not converged
     c_bands:  1 eigenvalues not converged
     c_bands:  1 eigenvalues not converged
     ethr =  1.00E-06,  avg # of iterations =  9.3

     total cpu time spent up to now is       11.7 secs

     total energy              =     -39.51957876 Ry
     estimated scf accuracy    <       0.00039955 Ry

     iteration #  2     ecut=    80.00 Ry     beta= 0.70
     Davidson diagonalization with overlap
     ethr =  2.66E-06,  avg # of iterations =  3.2

     total cpu time spent up to now is       12.3 secs

     total energy              =     -39.52105674 Ry
     estimated scf accuracy    <       0.00037244 Ry

     iteration #  3     ecut=    80.00 Ry     beta= 0.70
     Davidson diagonalization with overlap
     ethr =  2.48E-06,  avg # of iterations =  1.0

     total cpu time spent up to now is       12.7 secs

     total energy              =     -39.52101821 Ry
     estimated scf accuracy    <       0.00009893 Ry

     iteration #  4     ecut=    80.00 Ry     beta= 0.70
     Davidson diagonalization with overlap
     ethr =  6.60E-07,  avg # of iterations =  2.0

     total cpu time spent up to now is       13.1 secs

     total energy              =     -39.52101491 Ry
     estimated scf accuracy    <       0.00001411 Ry

     iteration #  5     ecut=    80.00 Ry     beta= 0.70
     Davidson diagonalization with overlap
     ethr =  9.41E-08,  avg # of iterations =  2.0

     total cpu time spent up to now is       13.5 secs

     total energy              =     -39.52101680 Ry
     estimated scf accuracy    <       0.00000012 Ry

     iteration #  6     ecut=    80.00 Ry     beta= 0.70
     Davidson diagonalization with overlap
     ethr =  7.85E-10,  avg # of iterations =  4.1

     total cpu time spent up to now is       14.0 secs

     total energy              =     -39.52101689 Ry
     estimated scf accuracy    <       0.00000004 Ry

     iteration #  7     ecut=    80.00 Ry     beta= 0.70
     Davidson diagonalization with overlap
     ethr =  2.34E-10,  avg # of iterations =  2.0

     total cpu time spent up to now is       14.4 secs

     total energy              =     -39.52101689 Ry
     estimated scf accuracy    <          8.8E-10 Ry

     iteration #  8     ecut=    80.00 Ry     beta= 0.70
     Davidson diagonalization with overlap
     ethr =  5.89E-12,  avg # of iterations =  3.0

     total cpu time spent up to now is       14.9 secs

     End of self-consistent calculation

          k = 0.0000 0.0000 0.0000 (  1663 PWs)   bands (ev):

   -31.7937  -2.0368   8.7042  11.0253  11.0253  11.8280  12.5163  12.5163
    13.4102  13.4348  15.0296  20.1506

          k =-0.2722-0.0000 0.1380 (  1625 PWs)   bands (ev):

   -31.7831  -0.4948   4.4947   7.9996   8.8966  11.2075  14.0156  14.5168
    15.8425  16.1596  17.3174  20.3352

          k = 0.0000 0.1167 0.0591 (  1631 PWs)   bands (ev):

   -31.7870  -1.7487   7.8668   9.1639  10.7045  10.9249  12.9364  13.1701
    14.1817  15.2376  17.0413  17.7277

          k =-0.2722 0.1167 0.1972 (  1629 PWs)   bands (ev):

   -31.7825   0.0482   4.2002   6.8887   8.8070  10.4124  12.7540  15.2211
    16.5247  18.5454  19.3929  20.2138

          k = 0.2722 0.1167-0.0789 (  1628 PWs)   bands (ev):

   -31.7826  -0.4566   5.2510   8.0598   9.1385  10.1914  11.6563  13.2769
    15.8910  17.3238  18.9168  21.2892

          k = 0.0000 0.2333 0.1183 (  1634 PWs)   bands (ev):

   -31.7852  -0.8958   5.3634   8.1310   9.2579  11.0600  14.2120  14.4634
    15.0754  15.9237  16.9762  19.5387

          k =-0.2722 0.2333 0.2563 (  1630 PWs)   bands (ev):

   -31.7807   1.1593   4.4104   5.2922   7.3042  10.4381  12.4717  14.3068
    16.0824  19.4985  21.0408  21.6549

          k = 0.2722 0.2333-0.0197 (  1621 PWs)   bands (ev):

   -31.7795   0.1568   6.2765   7.5019   7.9155   8.5300  11.1066  11.6787
    15.8884  20.3631  21.4747  21.7666

          k = 0.0000 0.3500 0.1774 (  1620 PWs)   bands (ev):

   -31.7812   0.4162   2.9796   7.9159   8.3708  11.6314  13.1656  14.5523
    16.8346  17.5555  18.4997  20.4588

          k =-0.2722 0.3500 0.3155 (  1632 PWs)   bands (ev):

   -31.7798   2.5011   3.5586   5.1492   7.0136   9.1947  12.5023  13.3739
    15.6044  19.1328  21.7392  22.2930

          k = 0.2722 0.3500 0.0394 (  1627 PWs)   bands (ev):

   -31.7792   1.3171   5.1964   6.4320   7.1571   8.0442  11.2273  12.5917
    16.7669  18.1316  22.3202  22.7449

          k = 0.1167-0.1167 0.0000 (  1637 PWs)   bands (ev):

   -31.7872  -1.5725   8.3040   9.5000  10.0013  10.0336  11.1805  12.6310
    16.2575  16.2935  16.8222  17.3785

          k =-0.1555-0.1167 0.1380 (  1635 PWs)   bands (ev):

   -31.7858  -1.0880   6.4353   7.6333   8.7905  11.4677  12.5682  14.6191
    15.9679  16.6932  17.3039  19.7904

          k = 0.3889-0.1167-0.1380 (  1628 PWs)   bands (ev):

   -31.7812   0.8871   2.9706   7.2031   9.1685   9.8687  11.7833  15.3634
    16.8250  18.2114  18.6811  19.8358

          k =-0.1555-0.0000 0.1972 (  1645 PWs)   bands (ev):

   -31.7876  -1.0102   5.2033   7.1033   9.8988  11.7560  13.9961  15.5664
    15.8774  17.2557  17.6459  18.9119

          k = 0.3889 0.0000-0.0789 (  1622 PWs)   bands (ev):

   -31.7813   0.5116   3.1038   6.2846  10.4664  11.8317  13.2552  14.1413
    16.2721  16.3441  17.2026  21.6774

          k = 0.1167 0.1167 0.1183 (  1628 PWs)   bands (ev):

   -31.7853  -1.3483   6.8934   8.2370   8.9996  11.7032  12.3299  14.5355
    15.6920  16.0536  16.9691  18.9199

          k =-0.1555 0.1167 0.2563 (  1635 PWs)   bands (ev):

   -31.7846  -0.3657   4.3355   6.6128   8.0090  13.5387  14.4674  15.3319
    15.8205  17.4545  19.9171  20.5846

          k = 0.3889 0.1167-0.0197 (  1634 PWs)   bands (ev):

   -31.7823   0.6925   3.6162   5.9038   9.7660  11.1976  12.3287  13.5549
    15.5082  18.0882  19.1879  21.0182

          k = 0.1167 0.2333 0.1774 (  1632 PWs)   bands (ev):

   -31.7838  -0.3851   4.9925   6.9905   8.7425  10.7315  12.9528  14.7196
    16.3798  17.9216  19.2337  20.4945

          k =-0.1555 0.2333 0.3155 (  1634 PWs)   bands (ev):

   -31.7825   0.8150   3.5761   5.3373   7.4856  12.9959  14.1863  16.3222
    16.6162  17.1893  19.0530  20.8664

          k = 0.3889 0.2333 0.0394 (  1631 PWs)   bands (ev):

   -31.7801   1.4333   4.2674   6.0530   7.5634   9.0016  11.8741  12.8146
    16.7865  18.2579  21.3167  22.2960

          k = 0.1167-0.4666-0.1774 (  1626 PWs)   bands (ev):

   -31.7811   0.9630   2.8587   6.9179   9.0322   9.9465  12.1874  16.5594
    16.8024  17.3481  19.1075  20.8435

          k =-0.1555-0.4666-0.0394 (  1631 PWs)   bands (ev):

   -31.7812   1.8006   2.7189   5.2250   8.1949  11.5775  13.2403  14.3257
    16.2906  18.6669  19.2186  21.3749

          k = 0.3889-0.4666-0.3155 (  1623 PWs)   bands (ev):

   -31.7774   2.7150   4.5842   5.3468   6.1073   8.4816  11.1273  12.8453
    15.3120  19.1158  22.0882  24.8526

          k = 0.1167-0.3500-0.1183 (  1628 PWs)   bands (ev):

   -31.7817   0.4295   3.6256   7.4345   9.1504   9.9834  11.6864  14.5665
    16.7218  17.6967  19.3926  19.7669

          k =-0.1555-0.3500 0.0197 (  1630 PWs)   bands (ev):

   -31.7813   0.4283   4.4332   6.4748   9.3668  10.0551  11.7856  12.6178
    15.7793  19.1816  19.8791  20.7359

          k = 0.3889-0.3500-0.2563 (  1623 PWs)   bands (ev):

   -31.7774   3.1378   4.0764   4.9250   6.2239   9.3302  11.4452  12.0842
    14.4526  21.1019  23.0649  24.0779

          k = 0.1167-0.2333-0.0591 (  1628 PWs)   bands (ev):

   -31.7834  -0.8262   6.1422   8.4369   9.1936  10.2140  11.5887  12.8671
    15.5939  17.2082  18.5671  20.5037

          k =-0.1555-0.2333 0.0789 (  1626 PWs)   bands (ev):

   -31.7825  -0.6005   6.1442   8.0265   9.1278   9.7370  10.9366  12.8450
    15.9865  18.2097  19.6392  20.8570

          k = 0.3889-0.2333-0.1972 (  1629 PWs)   bands (ev):

   -31.7796   1.7975   3.3230   7.0743   7.4184   8.9465  10.7439  14.0591
    15.5245  20.3605  21.1625  22.1637

          k = 0.2333-0.2333 0.0000 (  1620 PWs)   bands (ev):

   -31.7800  -0.1820   6.7758   7.6977   8.0490   8.9625  11.1590  11.3790
    15.6493  20.9133  21.1282  21.3989

          k =-0.0389-0.2333 0.1380 (  1629 PWs)   bands (ev):

   -31.7842  -0.7899   5.1897   7.7497   9.5146  10.6950  14.0639  14.6370
    15.3792  16.3500  17.5817  19.5466

          k = 0.5055-0.2333-0.1380 (  1623 PWs)   bands (ev):

   -31.7790   1.6516   3.7542   5.4791   7.2713  10.0120  12.4164  14.4054
    15.5671  19.4588  21.5682  21.9949

          k =-0.0389-0.1167 0.1972 (  1646 PWs)   bands (ev):

   -31.7882  -1.1635   5.2386   7.7452   9.4197  12.4308  14.1871  14.7100
    15.5685  17.0323  18.2537  19.0593

          k = 0.5055-0.1167-0.0789 (  1632 PWs)   bands (ev):

   -31.7819   1.4050   2.6637   5.2386   8.6467  12.2212  13.5180  15.7428
    16.1217  18.3633  19.3717  20.6432

          k =-0.0389-0.0000 0.2563 (  1659 PWs)   bands (ev):

   -31.7902  -0.9909   4.0023   8.7884   9.1377  11.6968  13.3990  16.3744
    16.6831  18.7521  19.0465  20.6276

          k = 0.5055 0.0000-0.0197 (  1637 PWs)   bands (ev):

   -31.7833   1.6537   1.9783   4.8387  10.3582  12.8762  13.5378  15.3439
    17.2403  17.5508  18.6820  21.0030

          k =-0.0389 0.1167 0.3155 (  1641 PWs)   bands (ev):

   -31.7857  -0.2835   3.1616   7.0893   8.8182  12.4660  14.6816  16.2182
    17.5665  19.3007  20.7374  21.0546

          k = 0.5055 0.1167 0.0394 (  1635 PWs)   bands (ev):

   -31.7824   1.7402   2.3816   4.9609   8.5900  12.8147  13.9201  15.2775
    15.7172  18.7254  19.3077  20.8293

          k = 0.2333-0.5833-0.1774 (  1628 PWs)   bands (ev):

   -31.7809   0.6907   4.9803   5.3034   7.4245  10.8783  12.3337  14.1862
    16.9979  19.1378  20.2108  20.7534

          k =-0.0389-0.5833-0.0394 (  1639 PWs)   bands (ev):

   -31.7840   0.8889   2.5626   5.1093   9.3575  12.9434  14.7673  16.3896
    18.1612  18.3598  19.2917  20.2765

          k = 0.5055-0.5833-0.3155 (  1631 PWs)   bands (ev):

   -31.7805   1.9712   3.5166   5.1129   7.0354  10.3462  13.1310  14.2323
    15.8984  18.8114  20.9653  21.4552

          k = 0.2333-0.4666-0.1183 (  1631 PWs)   bands (ev):

   -31.7801   2.0409   3.2916   5.7298   7.3043   9.6260  12.2155  13.9637
    15.8975  19.0542  21.2499  22.6401

          k =-0.0389-0.4666 0.0197 (  1632 PWs)   bands (ev):

   -31.7823   1.4129   2.3048   5.0541  10.4420  12.6558  13.6131  14.4347
    16.2198  17.3602  18.4127  21.8495

          k = 0.5055-0.4666-0.2563 (  1627 PWs)   bands (ev):

   -31.7785   2.5509   4.0276   5.0299   6.9792   9.0249  11.7867  12.7721
    14.6758  21.0758  22.7363  23.4615

          k = 0.2333-0.3500-0.0591 (  1628 PWs)   bands (ev):

   -31.7799   1.0033   4.7478   6.7763   7.6687   8.7117  11.2767  12.4947
    16.7767  18.5868  21.4695  22.4651

          k =-0.0389-0.3500 0.0789 (  1627 PWs)   bands (ev):

   -31.7823   0.1075   3.7128   6.8199  10.0031  11.7994  12.7186  14.4672
    15.5512  16.1820  17.3133  21.4644

          k = 0.5055-0.3500-0.1972 (  1622 PWs)   bands (ev):

   -31.7776   2.3231   4.2321   5.2393   6.9149   9.3994  10.9965  12.7676
    14.7303  21.8000  22.2411  23.7230

          k = 0.3500-0.3500 0.0000 (  1624 PWs)   bands (ev):

   -31.7779   2.1211   5.2764   5.8669   6.7246   7.0678  10.9556  13.5104
    16.9400  17.0598  21.1893  24.5632

          k = 0.0778-0.3500 0.1380 (  1628 PWs)   bands (ev):

   -31.7822   0.3625   3.3537   7.6927   8.7694  10.7723  12.2825  15.4968
    16.0900  17.1146  18.8225  20.0847

          k = 0.6222-0.3500-0.1380 (  1633 PWs)   bands (ev):

   -31.7810   1.6271   3.0841   6.2172   7.7852   9.9298  11.8905  14.8785
    16.2343  18.5272  20.7714  21.7536

          k = 0.0778-0.2333 0.1972 (  1632 PWs)   bands (ev):

   -31.7841  -0.4016   4.6504   6.7012   9.3000  10.9660  13.9477  15.0586
    15.9469  18.0879  18.8022  19.9187

          k = 0.6222-0.2333-0.0789 (  1640 PWs)   bands (ev):

   -31.7830   1.2263   3.5429   5.0913   6.9823  12.5842  14.6019  15.7558
    16.4629  17.4962  19.0197  20.5525

          k = 0.0778-0.1167 0.2563 (  1642 PWs)   bands (ev):

   -31.7865  -0.6775   4.1820   7.3298   8.4947  13.2569  14.5264  15.2448
    15.9981  17.9158  19.5889  20.5624

          k = 0.6222-0.1167-0.0197 (  1644 PWs)   bands (ev):

   -31.7848   0.9128   2.6293   5.5731   7.7681  14.6004  15.2492  16.3707
    17.0266  17.5979  18.6423  19.8889

          k = 0.0778-0.0000 0.3155 (  1653 PWs)   bands (ev):

   -31.7881  -0.4435   3.0733   7.8485   8.9593  11.8522  13.8621  16.9780
    18.0259  20.2607  20.3164  20.8391

          k = 0.6222 0.0000 0.0394 (  1646 PWs)   bands (ev):

   -31.7858   0.5629   2.5684   5.5726   9.3690  12.4583  15.5181  16.9202
    17.4054  19.3018  19.8836  20.5655

          k = 0.0778-0.7000-0.0394 (  1635 PWs)   bands (ev):

   -31.7844   0.2320   2.5126   6.9149   8.1356  13.1211  14.8163  17.1513
    17.8090  19.3450  20.0202  20.9238

          k = 0.6222-0.7000-0.3155 (  1633 PWs)   bands (ev):

   -31.7830   0.3496   3.4532   5.7724   7.9080  13.8888  14.8171  15.7633
    16.6019  18.0728  18.7004  21.1651

          k = 0.0778-0.5833 0.0197 (  1641 PWs)   bands (ev):

   -31.7842   1.0792   2.5081   5.0915   8.6954  13.7793  14.8401  15.9444
    17.5357  18.2197  19.3160  19.8522

          k = 0.6222-0.5833-0.2563 (  1631 PWs)   bands (ev):

   -31.7819   0.5576   4.5356   5.5473   7.3573  11.6966  12.9562  14.8228
    17.3377  18.0527  19.6044  21.0580

          k = 0.3500-0.4666-0.0591 (  1639 PWs)   bands (ev):

   -31.7805   3.4409   3.7811   4.5515   6.7703   8.2046  11.6016  14.1163
    15.2842  18.4394  20.8920  24.1951

          k = 0.0778-0.4666 0.0789 (  1629 PWs)   bands (ev):

   -31.7818   1.3368   2.4210   5.4876   9.7732  11.6823  13.4615  14.9824
    16.2214  18.2602  19.2217  19.7972

          k = 0.6222-0.4666-0.1972 (  1631 PWs)   bands (ev):

   -31.7806   1.1913   3.4648   7.2061   8.2262   8.9226  11.0692  14.5102
    16.5480  19.2554  20.0444  21.8058

     the Fermi energy is    14.6034 ev

!    total energy              =     -39.52101689 Ry
     estimated scf accuracy    <          1.2E-11 Ry
     smearing contrib. (-TS)   =      -0.00058246 Ry
     internal energy E=F+TS    =     -39.52043444 Ry

     The total energy is F=E-TS. E is the sum of the following terms:
     one-electron contribution =      12.44065173 Ry
     hartree contribution      =       2.85886849 Ry
     xc contribution           =     -13.71770068 Ry
     ewald contribution        =     -41.10225398 Ry

     convergence has been achieved in   8 iterations

     Forces acting on atoms (cartesian axes, Ry/au):

     atom    1 type  1   force =    -0.00000000    0.00000000    0.00000000
     atom    2 type  1   force =     0.00000000    0.00000000    0.00000000
     atom    3 type  1   force =    -0.00000000   -0.00000000    0.00000000
     atom    4 type  2   force =     0.00000000    0.00000000    0.00000000
     The non-local contrib.  to forces
     atom    1 type  1   force =    -0.00000000    0.00000000    0.00000000
     atom    2 type  1   force =     0.00000000   -0.00000000   -0.00000000
     atom    3 type  1   force =     0.00000000    0.00000000    0.00000000
     atom    4 type  2   force =     0.00000000    0.00000000    0.00000000
     The ionic contribution  to forces
     atom    1 type  1   force =     0.00000000    0.00000000   -0.00000000
     atom    2 type  1   force =    -0.00000000   -0.00000000   -0.00000000
     atom    3 type  1   force =    -0.00000000   -0.00000000   -0.00000000
     atom    4 type  2   force =    -0.00000000   -0.00000000   -0.00000000
     The local contribution  to forces
     atom    1 type  1   force =    -0.00000000   -0.00000000   -0.00000000
     atom    2 type  1   force =     0.00000000    0.00000000   -0.00000000
     atom    3 type  1   force =    -0.00000000   -0.00000000   -0.00000000
     atom    4 type  2   force =    -0.00000000   -0.00000000    0.00000000
     The core correction contribution to forces
     atom    1 type  1   force =     0.00000000   -0.00000000    0.00000000
     atom    2 type  1   force =     0.00000000    0.00000000    0.00000000
     atom    3 type  1   force =    -0.00000000   -0.00000000   -0.00000000
     atom    4 type  2   force =     0.00000000    0.00000000    0.00000000
     The Hubbard contrib.    to forces
     atom    1 type  1   force =     0.00000000    0.00000000    0.00000000
     atom    2 type  1   force =     0.00000000    0.00000000    0.00000000
     atom    3 type  1   force =     0.00000000    0.00000000    0.00000000
     atom    4 type  2   force =     0.00000000    0.00000000    0.00000000
     The SCF correction term to forces
     atom    1 type  1   force =     0.00000000    0.00000000    0.00000000
     atom    2 type  1   force =    -0.00000000    0.00000000    0.00000000
     atom    3 type  1   force =     0.00000000   -0.00000000   -0.00000000
     atom    4 type  2   force =    -0.00000000   -0.00000000    0.00000000

     Total force =     0.000000     Total SCF correction =     0.000000


     Computing stress (Cartesian axis) and pressure

          total   stress  (Ry/bohr**3)                   (kbar)     P=      669.90
   0.00446922   0.00000000   0.00000000          657.44        0.00        0.00
   0.00000000   0.00446922  -0.00000000            0.00      657.44       -0.00
  -0.00000000   0.00000000   0.00472317           -0.00        0.00      694.80

     Energy error            =      2.0E-02 Ry
     Gradient error          =      3.2E-31 Ry/Bohr
     Cell gradient error     =      1.9E+02 kbar

     number of scf cycles    =   3
     number of bfgs steps    =   2

     enthalpy           old  =     -38.6440323903 Ry
     enthalpy           new  =     -38.6644415249 Ry

     CASE: enthalpy          _new < enthalpy          _old

     new trust radius        =       0.0822711856 bohr
ibrav =      7
 celldm(1) =      6.41865611
 celldm(3) =      2.00049556
Input lattice vectors:
     0.61929941    -0.61929941     1.23890571
     0.61929941     0.61929941     1.23890571
    -0.61929941    -0.61929941     1.23890571
New lattice vectors in INITIAL alat:
     0.61929941    -0.61929941     1.23890571
     0.61929941     0.61929941     1.23890571
    -0.61929941    -0.61929941     1.23890571
New lattice vectors in NEW alat (for information only):
     0.50000000    -0.50000000     1.00024778
     0.50000000     0.50000000     1.00024778
    -0.50000000    -0.50000000     1.00024778
Discrepancy in bohr =     0.000000    0.000000    0.000000
     new conv_thr            =            1.0E-10 Ry

     new unit-cell volume =    264.50868 a.u.^3 (    39.19614 Ang^3 )
     density =      3.86357 g/cm^3

CELL_PARAMETERS (alat=  5.18219139)
   0.619299408  -0.619299408   1.238905714
   0.619299408   0.619299408   1.238905714
  -0.619299408  -0.619299408   1.238905714

ATOMIC_POSITIONS (crystal)
Si           -0.5000000000        0.7500000000        0.2500000000
Si           -0.5000000000        1.2500000000        0.7500000000
Si            0.0000000000        0.5000000000        0.5000000000
Li            0.0000000000        0.0000000000       -0.0000000000



     Writing config-only to output data dir ./output/SiLi.save/
     NEW-OLD atomic charge density approx. for the potential
     extrapolated charge   15.70830, renormalised to   15.00000

     total cpu time spent up to now is       15.6 secs

     Self-consistent Calculation

     iteration #  1     ecut=    80.00 Ry     beta= 0.70
     Davidson diagonalization with overlap
     c_bands:  1 eigenvalues not converged
     ethr =  1.00E-06,  avg # of iterations =  9.1

     total cpu time spent up to now is       16.6 secs

     total energy              =     -39.57003113 Ry
     estimated scf accuracy    <       0.00043913 Ry

     iteration #  2     ecut=    80.00 Ry     beta= 0.70
     Davidson diagonalization with overlap
     ethr =  2.93E-06,  avg # of iterations =  3.0

     total cpu time spent up to now is       17.2 secs

     total energy              =     -39.57159913 Ry
     estimated scf accuracy    <       0.00036344 Ry

     iteration #  3     ecut=    80.00 Ry     beta= 0.70
     Davidson diagonalization with overlap
     ethr =  2.42E-06,  avg # of iterations =  1.0

     total cpu time spent up to now is       17.5 secs

     total energy              =     -39.57156358 Ry
     estimated scf accuracy    <       0.00009354 Ry

     iteration #  4     ecut=    80.00 Ry     beta= 0.70
     Davidson diagonalization with overlap
     ethr =  6.24E-07,  avg # of iterations =  2.0

     total cpu time spent up to now is       17.9 secs

     total energy              =     -39.57155994 Ry
     estimated scf accuracy    <       0.00001416 Ry

     iteration #  5     ecut=    80.00 Ry     beta= 0.70
     Davidson diagonalization with overlap
     ethr =  9.44E-08,  avg # of iterations =  2.0

     total cpu time spent up to now is       18.4 secs

     total energy              =     -39.57156141 Ry
     estimated scf accuracy    <       0.00000033 Ry

     iteration #  6     ecut=    80.00 Ry     beta= 0.70
     Davidson diagonalization with overlap
     ethr =  2.19E-09,  avg # of iterations =  3.4

     total cpu time spent up to now is       18.9 secs

     total energy              =     -39.57156155 Ry
     estimated scf accuracy    <       0.00000003 Ry

     iteration #  7     ecut=    80.00 Ry     beta= 0.70
     Davidson diagonalization with overlap
     ethr =  2.10E-10,  avg # of iterations =  2.1

     total cpu time spent up to now is       19.3 secs

     total energy              =     -39.57156156 Ry
     estimated scf accuracy    <          2.7E-10 Ry

     iteration #  8     ecut=    80.00 Ry     beta= 0.70
     Davidson diagonalization with overlap
     ethr =  1.77E-12,  avg # of iterations =  4.3

     total cpu time spent up to now is       19.9 secs

     End of self-consistent calculation

          k = 0.0000 0.0000 0.0000 (  1663 PWs)   bands (ev):

   -32.5089  -2.3600   7.9739  10.4046  10.4046  10.8423  11.9408  11.9408
    12.8568  12.8845  13.9519  19.5503

          k =-0.2691-0.0000 0.1345 (  1625 PWs)   bands (ev):

   -32.4975  -0.8495   4.0087   7.3122   8.3095  10.6465  13.4022  13.8082
    14.8523  15.4794  16.4406  19.4728

          k = 0.0000 0.1153 0.0577 (  1631 PWs)   bands (ev):

   -32.5003  -2.0778   7.2138   8.5177  10.1023  10.3337  11.9924  12.5497
    13.4434  14.6241  16.1048  17.1081

          k =-0.2691 0.1153 0.1922 (  1629 PWs)   bands (ev):

   -32.4970  -0.3241   3.7282   6.2840   8.2964   9.7284  12.1136  14.4602
    15.7691  17.5314  18.5164  19.3582

          k = 0.2691 0.1153-0.0769 (  1628 PWs)   bands (ev):

   -32.4969  -0.8064   4.7407   7.5244   8.4127   9.5860  11.0265  12.5071
    15.0470  16.5505  18.1006  20.4467

          k = 0.0000 0.2307 0.1153 (  1634 PWs)   bands (ev):

   -32.4997  -1.2425   4.8534   7.4381   8.6721  10.4948  13.5606  13.7374
    14.0660  15.2987  16.2046  18.6701

          k =-0.2691 0.2307 0.2498 (  1630 PWs)   bands (ev):

   -32.4957   0.7567   3.9389   4.8057   6.7903   9.7916  11.6999  13.5049
    15.3130  18.7270  20.2872  20.4073

          k = 0.2691 0.2307-0.0192 (  1621 PWs)   bands (ev):

   -32.4936  -0.2009   5.7629   6.9542   7.3364   7.9997  10.3500  10.9148
    14.9596  19.4231  20.6271  20.9383

          k = 0.0000 0.3460 0.1730 (  1620 PWs)   bands (ev):

   -32.4954   0.0454   2.5278   7.2351   7.7843  11.0722  12.5909  13.8813
    15.9676  16.7906  17.3591  19.5989

          k =-0.2691 0.3460 0.3075 (  1632 PWs)   bands (ev):

   -32.4951   2.0830   3.1042   4.6716   6.5379   8.5473  11.7145  12.5912
    14.7872  18.0978  20.7237  21.3003

          k = 0.2691 0.3460 0.0384 (  1627 PWs)   bands (ev):

   -32.4943   0.9392   4.6888   5.9404   6.6657   7.4482  10.4850  11.7918
    15.7678  17.2210  21.1828  21.8900

          k = 0.1153-0.1153 0.0000 (  1637 PWs)   bands (ev):

   -32.5010  -1.9025   7.7113   8.8190   9.3310   9.4939  10.3630  11.9226
    15.5806  15.6582  16.1768  16.3499

          k =-0.1538-0.1153 0.1345 (  1635 PWs)   bands (ev):

   -32.5001  -1.4346   5.8350   7.0796   8.2413  10.7961  11.8669  13.8775
    15.1744  15.8253  16.6068  18.8314

          k = 0.3845-0.1153-0.1345 (  1628 PWs)   bands (ev):

   -32.4959   0.5130   2.5123   6.6278   8.5146   9.3180  11.1290  14.5673
    16.1323  17.2540  17.7992  18.8028

          k =-0.1538-0.0000 0.1922 (  1645 PWs)   bands (ev):

   -32.5022  -1.3679   4.6220   6.5772   9.3805  11.1637  13.1806  14.8332
    15.2481  16.1519  16.9825  17.9335

          k = 0.3845 0.0000-0.0769 (  1622 PWs)   bands (ev):

   -32.4956   0.1473   2.6266   5.7393   9.7297  11.2878  12.6343  13.4871
    15.2552  15.6681  16.2634  20.7086

          k = 0.1153 0.1153 0.1153 (  1628 PWs)   bands (ev):

   -32.4989  -1.6885   6.2538   7.6919   8.4361  11.0493  11.6213  13.6893
    14.9342  15.3332  16.2540  17.9772

          k =-0.1538 0.1153 0.2498 (  1635 PWs)   bands (ev):

   -32.4991  -0.7471   3.7877   6.1293   7.5167  12.8385  13.7480  14.5707
    15.1767  16.6155  18.7561  19.6796

          k = 0.3845 0.1153-0.0192 (  1634 PWs)   bands (ev):

   -32.4972   0.3264   3.1162   5.3935   9.2635  10.4813  11.5763  12.7482
    14.8256  17.1553  18.3238  20.0383

          k = 0.1153 0.2307 0.1730 (  1632 PWs)   bands (ev):

   -32.4984  -0.7481   4.4929   6.3881   8.2241  10.0485  12.2901  14.0003
    15.6005  16.9027  18.5199  19.5258

          k =-0.1538 0.2307 0.3075 (  1634 PWs)   bands (ev):

   -32.4973   0.3986   3.0925   4.8645   7.0049  12.2813  13.4337  15.5031
    15.8749  16.4128  18.3125  19.6305

          k = 0.3845 0.2307 0.0384 (  1631 PWs)   bands (ev):

   -32.4953   1.0532   3.7653   5.5569   7.0960   8.3669  11.1163  12.0253
    15.8215  17.3511  20.4325  21.1979

          k = 0.1153-0.4614-0.1730 (  1626 PWs)   bands (ev):

   -32.4957   0.5767   2.4152   6.3242   8.4981   9.2914  11.5475  15.7642
    16.0273  16.5472  18.2542  19.5599

          k =-0.1538-0.4614-0.0384 (  1631 PWs)   bands (ev):

   -32.4962   1.4077   2.2423   4.7279   7.7155  10.8918  12.4367  13.5484
    15.5773  17.7100  18.1939  20.4697

          k = 0.3845-0.4614-0.3075 (  1623 PWs)   bands (ev):

   -32.4924   2.3087   4.1334   4.8526   5.6332   7.8605  10.3749  12.0417
    14.4902  17.9990  20.9353  23.9896

          k = 0.1153-0.3460-0.1153 (  1628 PWs)   bands (ev):

   -32.4964   0.0633   3.1530   6.8703   8.4591   9.4443  11.0330  13.7875
    15.9534  16.8113  18.4214  18.8655

          k =-0.1538-0.3460 0.0192 (  1630 PWs)   bands (ev):

   -32.4960   0.0665   3.9203   5.9638   8.8650   9.3956  11.0003  11.8499
    14.9561  18.3333  19.0185  19.7525

          k = 0.3845-0.3460-0.2498 (  1623 PWs)   bands (ev):

   -32.4923   2.7165   3.6316   4.4563   5.7563   8.6487  10.6780  11.3084
    13.6968  19.9105  21.8623  22.7852

          k = 0.1153-0.2307-0.0577 (  1628 PWs)   bands (ev):

   -32.4973  -1.1692   5.6115   7.9180   8.4565   9.5663  10.9442  12.1070
    14.7944  16.4304  17.8266  19.5952

          k =-0.1538-0.2307 0.0769 (  1626 PWs)   bands (ev):

   -32.4968  -0.9484   5.6216   7.4923   8.4345   9.1004  10.2952  12.1150
    15.0893  17.4252  18.9147  19.9012

          k = 0.3845-0.2307-0.1922 (  1629 PWs)   bands (ev):

   -32.4945   1.4026   2.8731   6.5761   6.9272   8.2455  10.0330  13.2486
    14.7540  19.4462  20.1578  20.9751

          k = 0.2307-0.2307 0.0000 (  1620 PWs)   bands (ev):

   -32.4939  -0.5339   6.2866   7.0205   7.5806   8.3826  10.3693  10.6612
    14.7497  20.1477  20.3707  20.4365

          k =-0.0384-0.2307 0.1345 (  1629 PWs)   bands (ev):

   -32.4985  -1.1406   4.6849   7.0829   8.9290  10.1169  13.4122  13.9175
    14.4445  15.6065  16.8100  18.6661

          k = 0.4998-0.2307-0.1345 (  1623 PWs)   bands (ev):

   -32.4936   1.2396   3.3037   4.9821   6.7740   9.3634  11.6396  13.5803
    14.8136  18.6469  20.3558  21.1390

          k =-0.0384-0.1153 0.1922 (  1646 PWs)   bands (ev):

   -32.5029  -1.5191   4.6377   7.2316   8.9062  11.8411  13.3795  14.0545
    14.8623  15.9200  17.5160  18.0966

          k = 0.4998-0.1153-0.0769 (  1632 PWs)   bands (ev):

   -32.4969   0.9867   2.2228   4.7271   8.1600  11.4741  12.8191  15.0460
    15.3305  17.4296  18.2912  19.7418

          k =-0.0384-0.0000 0.2498 (  1659 PWs)   bands (ev):

   -32.5055  -1.3632   3.4439   8.2941   8.6466  11.0729  12.8545  15.5460
    15.8829  17.4727  17.9864  19.9276

          k = 0.4998 0.0000-0.0192 (  1637 PWs)   bands (ev):

   -32.4984   1.2177   1.5526   4.3451   9.8550  12.2461  12.7648  14.6556
    16.0754  16.8608  17.7796  20.2980

          k =-0.0384 0.1153 0.3075 (  1641 PWs)   bands (ev):

   -32.5001  -0.6847   2.6530   6.6125   8.3356  11.8682  14.0934  15.3387
    16.7475  18.4610  19.5708  19.9221

          k = 0.4998 0.1153 0.0384 (  1635 PWs)   bands (ev):

   -32.4975   1.3083   1.9448   4.4687   8.1055  12.0694  13.1712  14.5331
    15.0079  17.6233  18.3809  19.9278

          k = 0.2307-0.5767-0.1730 (  1628 PWs)   bands (ev):

   -32.4955   0.2993   4.4629   4.8426   6.8974  10.2311  11.5719  13.4245
    16.1859  18.3622  19.3745  19.6573

          k =-0.0384-0.5767-0.0384 (  1639 PWs)   bands (ev):

   -32.4989   0.4482   2.1175   4.6383   8.8692  12.3619  13.9162  15.6703
    17.2255  17.5953  18.3578  19.3506

          k = 0.4998-0.5767-0.3075 (  1631 PWs)   bands (ev):

   -32.4957   1.5458   3.0667   4.6297   6.5517   9.6969  12.3210  13.4472
    15.0912  17.9473  19.8738  20.5645

          k = 0.2307-0.4614-0.1153 (  1631 PWs)   bands (ev):

   -32.4952   1.6310   2.8417   5.2262   6.8233   8.9753  11.4334  13.1855
    15.0838  18.1406  20.1961  21.6179

          k =-0.0384-0.4614 0.0192 (  1632 PWs)   bands (ev):

   -32.4972   1.0307   1.8291   4.5523   9.9333  11.8618  12.9954  13.7446
    15.3158  16.4592  17.5302  20.8761

          k = 0.4998-0.4614-0.2498 (  1627 PWs)   bands (ev):

   -32.4936   2.1324   3.5825   4.5584   6.5119   8.3373  11.0153  11.9817
    13.9274  19.9426  21.5601  22.2835

[...]
     c_bands:  2 eigenvalues not converged
     c_bands:  1 eigenvalues not converged
     c_bands:  1 eigenvalues not converged
     c_bands:  3 eigenvalues not converged
     c_bands:  1 eigenvalues not converged
     c_bands:  1 eigenvalues not converged
     c_bands:  1 eigenvalues not converged
     c_bands:  1 eigenvalues not converged
     c_bands:  1 eigenvalues not converged
     c_bands:  1 eigenvalues not converged
     c_bands:  1 eigenvalues not converged
     c_bands:  1 eigenvalues not converged
     c_bands:  1 eigenvalues not converged
     c_bands:  1 eigenvalues not converged
     c_bands:  1 eigenvalues not converged
     c_bands:  1 eigenvalues not converged
     ethr =  1.00E-06,  avg # of iterations = 18.4

     total cpu time spent up to now is       85.6 secs

     total energy              =     -39.58605084 Ry
     estimated scf accuracy    <       0.02012027 Ry

     iteration #  2     ecut=    80.00 Ry     beta= 0.70
     Davidson diagonalization with overlap
     ethr =  1.34E-04,  avg # of iterations =  1.0

     total cpu time spent up to now is       86.3 secs

     total energy              =     -39.58586078 Ry
     estimated scf accuracy    <       0.00141693 Ry

     iteration #  3     ecut=    80.00 Ry     beta= 0.70
     Davidson diagonalization with overlap
     ethr =  9.45E-06,  avg # of iterations =  1.5

     total cpu time spent up to now is       87.0 secs

     total energy              =     -39.58592402 Ry
     estimated scf accuracy    <       0.00000928 Ry

     iteration #  4     ecut=    80.00 Ry     beta= 0.70
     Davidson diagonalization with overlap
     ethr =  6.19E-08,  avg # of iterations =  3.0

     total cpu time spent up to now is       87.9 secs

     total energy              =     -39.58592729 Ry
     estimated scf accuracy    <       0.00000130 Ry

     iteration #  5     ecut=    80.00 Ry     beta= 0.70
     Davidson diagonalization with overlap
     ethr =  8.68E-09,  avg # of iterations =  2.0

     total cpu time spent up to now is       88.6 secs

     total energy              =     -39.58592754 Ry
     estimated scf accuracy    <       0.00000004 Ry

     iteration #  6     ecut=    80.00 Ry     beta= 0.70
     Davidson diagonalization with overlap
     ethr =  2.51E-10,  avg # of iterations =  2.7

     total cpu time spent up to now is       89.5 secs

     total energy              =     -39.58592755 Ry
     estimated scf accuracy    <          2.2E-09 Ry

     iteration #  7     ecut=    80.00 Ry     beta= 0.70
     Davidson diagonalization with overlap
     ethr =  1.45E-11,  avg # of iterations =  2.8

     total cpu time spent up to now is       90.2 secs

     End of self-consistent calculation

          k = 0.0000 0.0000 0.0000 (  3211 PWs)   bands (ev):

   -32.5445  -2.4020   7.5010  10.2142  10.4138  10.4138  12.0711  12.0711
    12.8845  13.0797  14.0609  19.4993

          k =-0.2721 0.0000 0.1310 (  3206 PWs)   bands (ev):

   -32.5406  -0.8751   3.9717   6.9745   8.2154  10.7962  13.6152  14.0022
    14.2376  15.5205  16.6171  19.6799

          k = 0.0000 0.1166 0.0561 (  3196 PWs)   bands (ev):

   -32.5435  -2.1174   6.8915   8.3956  10.0514  10.3918  11.4578  12.6423
    13.5356  14.8210  16.2346  17.4223

          k =-0.2721 0.1166 0.1872 (  3212 PWs)   bands (ev):

   -32.5397  -0.3612   3.7096   6.0881   8.3267   9.6500  12.2196  14.3039
    15.9926  16.9470  18.4404  19.5243

          k = 0.2721 0.1166-0.0749 (  3219 PWs)   bands (ev):

   -32.5399  -0.8148   4.6834   7.4796   8.1104   9.5784  11.1528  12.1738
    14.8308  16.7823  18.3784  20.6631

          k = 0.0000 0.2333 0.1123 (  3216 PWs)   bands (ev):

   -32.5413  -1.2730   4.8062   7.0944   8.6027  10.6216  13.4091  13.7060
    13.9260  15.4459  16.4100  18.9389

          k =-0.2721 0.2333 0.2433 (  3207 PWs)   bands (ev):

   -32.5378   0.7153   3.9320   4.8515   6.7118   9.8245  11.4806  13.2894
    15.2167  18.8812  19.5586  20.4350

          k = 0.2721 0.2333-0.0187 (  3226 PWs)   bands (ev):

   -32.5381  -0.1861   5.6842   6.9369   7.3553   8.1572   9.9748  10.5798
    14.6032  19.1732  20.8912  21.3343

          k = 0.0000 0.3499 0.1684 (  3211 PWs)   bands (ev):

   -32.5396   0.0364   2.4834   6.9230   7.6494  11.2737  12.7927  14.1496
    15.6942  16.7591  17.1211  19.5390

          k =-0.2721 0.3499 0.2995 (  3205 PWs)   bands (ev):

   -32.5365   2.0950   3.0908   4.7249   6.5191   8.5086  11.4664  12.4017
    14.5003  17.5518  20.3011  21.6361

          k = 0.2721 0.3499 0.0374 (  3230 PWs)   bands (ev):

   -32.5366   0.9818   4.6102   6.0387   6.7034   7.4116  10.2524  11.4229
    15.2754  16.9253  20.7138  22.3811

          k = 0.1166-0.1166 0.0000 (  3209 PWs)   bands (ev):

   -32.5427  -1.9324   7.4840   8.8017   9.0246   9.5927  10.0223  11.8159
    15.7617  15.7987  16.4586  16.4933

          k =-0.1555-0.1166 0.1310 (  3216 PWs)   bands (ev):

   -32.5418  -1.4781   5.5999   7.1074   8.2080  10.7322  11.8270  13.5450
    15.3202  15.8548  16.7329  18.9584

          k = 0.3888-0.1166-0.1310 (  3211 PWs)   bands (ev):

   -32.5386   0.5299   2.4470   6.4886   8.2645   9.5137  11.1335  14.4108
    16.0997  17.1935  17.7226  18.7614

          k =-0.1555 0.0000 0.1872 (  3208 PWs)   bands (ev):

   -32.5424  -1.4382   4.3877   6.5981   9.5404  11.1241  13.2877  14.8305
    15.0855  15.7441  17.1795  18.0729

          k = 0.3888-0.0000-0.0749 (  3206 PWs)   bands (ev):

   -32.5394   0.1652   2.5184   5.6415   9.3695  11.5461  12.7379  13.3553
    15.1614  15.7611  16.3579  20.6908

          k = 0.1166 0.1166 0.1123 (  3209 PWs)   bands (ev):

   -32.5425  -1.7321   5.9514   7.7903   8.3681  11.0157  11.5183  13.2354
    15.2148  15.4560  16.3628  18.0945

          k =-0.1555 0.1166 0.2433 (  3200 PWs)   bands (ev):

   -32.5414  -0.8398   3.5958   6.2536   7.5860  12.7321  13.7194  14.7948
    15.3455  16.5313  18.0701  19.6279

          k = 0.3888 0.1166-0.0187 (  3206 PWs)   bands (ev):

   -32.5386   0.3540   2.9803   5.3615   9.4437  10.2712  11.3793  12.4890
    14.7677  17.4037  18.4913  19.7939

          k = 0.1166 0.2333 0.1684 (  3211 PWs)   bands (ev):

   -32.5404  -0.7888   4.4463   6.2169   8.2512   9.9626  12.3798  13.8435
    15.7526  16.4239  18.7737  19.5007

          k =-0.1555 0.2333 0.2995 (  3203 PWs)   bands (ev):

   -32.5395   0.2908   3.0139   4.9312   7.0723  12.2354  13.3133  15.3130
    16.1226  16.3605  18.5421  19.1409

          k = 0.3888 0.2333 0.0374 (  3223 PWs)   bands (ev):

   -32.5369   1.0981   3.6599   5.5980   7.1890   8.3287  10.8742  11.7131
    15.3604  17.0639  20.6216  21.0001

          k = 0.1166-0.4665-0.1684 (  3213 PWs)   bands (ev):

   -32.5387   0.5627   2.3859   6.1421   8.4143   9.3405  11.6016  15.6346
    16.2533  16.3942  18.1860  18.9014

          k =-0.1555-0.4665-0.0374 (  3217 PWs)   bands (ev):

   -32.5381   1.4383   2.1109   4.7040   7.8435  10.8482  12.1385  13.4161
    15.4492  17.5365  18.1936  20.6230

          k = 0.3888-0.4665-0.2995 (  3226 PWs)   bands (ev):

   -32.5356   2.3772   4.2039   4.8755   5.6051   7.7641  10.1418  11.7526
    14.1837  17.3867  20.3788  23.8797

          k = 0.1166-0.3499-0.1123 (  3210 PWs)   bands (ev):

   -32.5389   0.0708   3.0926   6.7582   8.1811   9.6157  11.0506  13.5892
    15.6714  17.0255  18.5163  18.7551

          k =-0.1555-0.3499 0.0187 (  3217 PWs)   bands (ev):

   -32.5384   0.0881   3.8029   5.9547   9.0450   9.3263  10.6285  11.6096
    14.7079  18.7037  19.1931  19.5198

          k = 0.3888-0.3499-0.2433 (  3222 PWs)   bands (ev):

   -32.5356   2.7734   3.6897   4.5088   5.7442   8.4724  10.4237  11.0802
    13.4802  19.2147  21.1583  22.0288

          k = 0.1166-0.2333-0.0561 (  3222 PWs)   bands (ev):

   -32.5406  -1.1839   5.5500   7.9204   8.1425   9.4689  11.0251  11.7754
    14.7085  16.6196  18.1208  19.8266

          k =-0.1555-0.2333 0.0749 (  3226 PWs)   bands (ev):

   -32.5400  -0.9608   5.5748   7.4665   8.2128   8.9730  10.3863  11.8290
    14.8203  17.6665  19.2011  20.1288

          k = 0.3888-0.2333-0.1872 (  3208 PWs)   bands (ev):

   -32.5369   1.4303   2.8540   6.6439   6.9901   7.9677   9.8886  13.0684
    14.5815  18.8713  19.9030  20.9529

          k = 0.2333-0.2333 0.0000 (  3227 PWs)   bands (ev):

   -32.5388  -0.5274   6.2089   6.9661   7.6346   8.5395   9.8988  10.3953
    14.4561  19.9980  20.5556  20.7090

          k =-0.0389-0.2333 0.1310 (  3207 PWs)   bands (ev):

   -32.5412  -1.1752   4.6395   6.7816   8.8517  10.2297  13.5551  13.8363
    14.1518  15.6144  17.0062  18.9444

          k = 0.5054-0.2333-0.1310 (  3207 PWs)   bands (ev):

   -32.5374   1.2068   3.3160   5.0012   6.7332   9.3640  11.3984  13.3965
    14.6575  18.4390  20.2544  20.5159

          k =-0.0389-0.1166 0.1872 (  3205 PWs)   bands (ev):

   -32.5429  -1.5942   4.3637   7.3191   9.0417  11.8824  13.4685  14.0532
    14.9478  15.1889  17.7002  18.1542

          k = 0.5054-0.1166-0.0749 (  3207 PWs)   bands (ev):

   -32.5390   0.9104   2.1932   4.6679   8.3003  11.2667  12.8044  14.9714
    15.4639  17.1475  18.0816  19.8656

          k =-0.0389 0.0000 0.2433 (  3206 PWs)   bands (ev):

   -32.5434  -1.4756   3.2096   8.4613   8.8214  11.3725  12.9389  15.3994
    15.7582  16.6093  17.9020  20.1559

          k = 0.5054 0.0000-0.0187 (  3205 PWs)   bands (ev):

   -32.5397   1.0850   1.5411   4.3044  10.0886  12.0427  12.6715  14.7491
    15.7929  17.0349  17.9258  20.6982

          k =-0.0389 0.1166 0.2995 (  3192 PWs)   bands (ev):

   -32.5424  -0.8312   2.4960   6.7536   8.5120  12.1174  14.2702  15.1560
    16.6740  18.3093  19.0784  19.6180

          k = 0.5054 0.1166 0.0374 (  3215 PWs)   bands (ev):

   -32.5389   1.2077   1.9184   4.4416   8.2539  11.8846  13.0672  14.3529
    15.2129  17.4289  18.1496  20.1091

          k = 0.2333-0.5831-0.1684 (  3206 PWs)   bands (ev):

   -32.5384   0.2555   4.3700   4.9613   6.7976  10.2909  11.3691  13.2364
    16.0843  18.6970  18.7194  19.7464

          k =-0.0389-0.5831-0.0374 (  3191 PWs)   bands (ev):

   -32.5405   0.2743   2.0784   4.6739   9.0683  12.4892  13.6691  15.7744
    16.9382  17.9086  18.3487  19.3581

          k = 0.5054-0.5831-0.2995 (  3203 PWs)   bands (ev):

   -32.5373   1.4966   3.0672   4.6652   6.5427   9.7076  12.0390  13.3302
    14.8335  17.5984  19.9330  20.4008

          k = 0.2333-0.4665-0.1123 (  3210 PWs)   bands (ev):

   -32.5370   1.6311   2.8236   5.2396   6.8274   8.9449  11.1660  13.0608
    14.8309  17.7094  20.4327  21.0783

          k =-0.0389-0.4665 0.0187 (  3204 PWs)   bands (ev):

   -32.5393   1.0638   1.6677   4.5006  10.1514  11.4867  12.9592  13.8046
    15.2761  16.5028  17.6753  20.6439

          k = 0.5054-0.4665-0.2433 (  3213 PWs)   bands (ev):

   -32.5361   2.1503   3.6320   4.6008   6.5258   8.1731  10.7675  11.7725
    13.7335  19.2905  20.7761  21.7064

          k = 0.2333-0.3499-0.0561 (  3224 PWs)   bands (ev):

   -32.5372   0.6629   4.1708   6.2989   7.2721   8.0546  10.1924  11.4890
    15.3143  17.4185  21.0566  21.4898

          k =-0.0389-0.3499 0.0749 (  3205 PWs)   bands (ev):

   -32.5396  -0.2430   3.1339   6.1762   8.9051  11.4456  12.1978  13.3288
    15.0203  15.3868  16.5177  20.5603

          k = 0.5054-0.3499-0.1872 (  3219 PWs)   bands (ev):

   -32.5361   1.9376   3.8231   4.8180   6.4772   8.4559  10.0574  11.7571
    13.8075  19.8086  20.4536  22.3980

          k = 0.3499-0.3499 0.0000 (  3224 PWs)   bands (ev):

   -32.5358   1.7934   4.9564   5.3139   5.9840   6.6494  10.0394  12.2509
    15.4856  15.7043  19.6283  24.2986

          k = 0.0778-0.3499 0.1310 (  3207 PWs)   bands (ev):

   -32.5393  -0.0031   2.8343   6.9370   7.8305  10.3954  11.7700  14.4794
    15.6167  16.0205  17.8375  19.0348

          k = 0.6220-0.3499-0.1310 (  3209 PWs)   bands (ev):

   -32.5376   1.2179   2.6168   5.6219   7.3516   9.2060  10.9712  13.9483
    15.2131  17.6199  19.5395  20.3763

          k = 0.0778-0.2333 0.1872 (  3209 PWs)   bands (ev):

   -32.5407  -0.8192   4.0963   5.9349   8.8678  10.1919  13.4420  14.4887
    14.9634  16.6139  18.3029  19.1496

          k = 0.6220-0.2333-0.0749 (  3199 PWs)   bands (ev):

   -32.5389   0.6800   2.9942   4.7636   6.5231  11.9488  13.5004  14.7503
    15.5997  16.9438  18.4620  18.9576

          k = 0.0778-0.1166 0.2433 (  3192 PWs)   bands (ev):

   -32.5423  -1.1569   3.4125   6.9794   8.1180  12.8147  13.9518  14.3684
    15.2969  16.7046  18.0438  19.4935

          k = 0.6220-0.1166-0.0187 (  3204 PWs)   bands (ev):

   -32.5405   0.2713   2.1295   5.2314   7.4112  14.1667  14.4848  15.3537
    16.5521  16.8143  17.4385  18.3183

          k = 0.0778 0.0000 0.2995 (  3187 PWs)   bands (ev):

   -32.5429  -0.9940   2.3981   7.5311   8.6716  11.5276  13.4386  15.8814
    17.0430  18.4706  19.2751  19.6845

          k = 0.6220-0.0000 0.0374 (  3183 PWs)   bands (ev):

   -32.5412  -0.0579   2.0435   5.1869   9.0969  12.0648  14.3590  16.5828
    16.8180  17.6815  19.0264  19.7513

          k = 0.0778-0.6998-0.0374 (  3196 PWs)   bands (ev):

   -32.5420  -0.3933   1.9508   6.6138   7.8048  12.8174  14.4241  16.0956
    16.8762  18.2883  18.7864  19.3544

          k = 0.6220-0.6998-0.2995 (  3207 PWs)   bands (ev):

   -32.5406  -0.1857   2.8378   5.3985   7.5316  13.0408  14.3135  15.0057
    15.9072  17.3219  17.7737  19.4346

          k = 0.0778-0.5831 0.0187 (  3203 PWs)   bands (ev):

   -32.5403   0.4398   2.0468   4.6754   8.3795  13.3155  13.8158  15.2060
    16.4840  17.8897  18.0404  18.6594

          k = 0.6220-0.5831-0.2433 (  3206 PWs)   bands (ev):

   -32.5390   0.1008   3.9436   5.1426   6.8176  11.0582  12.0196  13.8709
    16.4708  17.6049  18.8839  19.2419

          k = 0.3499-0.4665-0.0561 (  3209 PWs)   bands (ev):

   -32.5357   3.0530   3.4906   3.9713   6.3115   7.5057  10.7196  12.9059
    14.1087  16.7550  19.3775  23.8396

          k = 0.0778-0.4665 0.0749 (  3213 PWs)   bands (ev):

   -32.5391   0.9413   1.8729   4.8729   9.4270  10.6598  12.8721  14.2894
    15.4157  17.0904  18.4037  18.6815

          k = 0.6220-0.4665-0.1872 (  3217 PWs)   bands (ev):

   -32.5377   0.8070   2.9988   6.6380   7.6779   8.1421  10.2994  13.5429
    15.5686  18.2224  18.8806  20.4684

     the Fermi energy is    13.7588 ev

!    total energy              =     -39.58592755 Ry
     estimated scf accuracy    <          3.1E-11 Ry
     smearing contrib. (-TS)   =       0.00026226 Ry
     internal energy E=F+TS    =     -39.58618980 Ry

     The total energy is F=E-TS. E is the sum of the following terms:
     one-electron contribution =      11.47767392 Ry
     hartree contribution      =       2.89890729 Ry
     xc contribution           =     -13.57844153 Ry
     ewald contribution        =     -40.38432948 Ry

     convergence has been achieved in   7 iterations

     Forces acting on atoms (cartesian axes, Ry/au):

     atom    1 type  1   force =    -0.00000000    0.00000000    0.00000000
     atom    2 type  1   force =     0.00000000    0.00000000   -0.00000000
     atom    3 type  1   force =    -0.00000000   -0.00000000    0.00000000
     atom    4 type  2   force =     0.00000000   -0.00000000   -0.00000000
     The non-local contrib.  to forces
     atom    1 type  1   force =     0.00000000   -0.00000000   -0.00000000
     atom    2 type  1   force =    -0.00000000   -0.00000000    0.00000000
     atom    3 type  1   force =     0.00000000    0.00000000    0.00000000
     atom    4 type  2   force =     0.00000000    0.00000000    0.00000000
     The ionic contribution  to forces
     atom    1 type  1   force =    -0.00000000   -0.00000000   -0.00000000
     atom    2 type  1   force =     0.00000000    0.00000000   -0.00000000
     atom    3 type  1   force =     0.00000000    0.00000000    0.00000000
     atom    4 type  2   force =    -0.00000000    0.00000000    0.00000000
     The local contribution  to forces
     atom    1 type  1   force =     0.00000000    0.00000000    0.00000000
     atom    2 type  1   force =    -0.00000000    0.00000000    0.00000000
     atom    3 type  1   force =    -0.00000000    0.00000000    0.00000000
     atom    4 type  2   force =     0.00000000   -0.00000000   -0.00000000
     The core correction contribution to forces
     atom    1 type  1   force =     0.00000000    0.00000000    0.00000000
     atom    2 type  1   force =    -0.00000000   -0.00000000    0.00000000
     atom    3 type  1   force =    -0.00000000    0.00000000    0.00000000
     atom    4 type  2   force =     0.00000000    0.00000000    0.00000000
     The Hubbard contrib.    to forces
     atom    1 type  1   force =     0.00000000    0.00000000    0.00000000
     atom    2 type  1   force =     0.00000000    0.00000000    0.00000000
     atom    3 type  1   force =     0.00000000    0.00000000    0.00000000
     atom    4 type  2   force =     0.00000000    0.00000000    0.00000000
     The SCF correction term to forces
     atom    1 type  1   force =    -0.00000000   -0.00000000   -0.00000000
     atom    2 type  1   force =    -0.00000000    0.00000000    0.00000000
     atom    3 type  1   force =    -0.00000000   -0.00000000    0.00000000
     atom    4 type  2   force =    -0.00000000    0.00000000    0.00000000

     Total force =     0.000000     Total SCF correction =     0.000000


     Computing stress (Cartesian axis) and pressure

          total   stress  (Ry/bohr**3)                   (kbar)     P=      535.75
   0.00359456   0.00000000  -0.00000000          528.78        0.00       -0.00
   0.00000000   0.00359456  -0.00000000            0.00      528.78       -0.00
  -0.00000000  -0.00000000   0.00373682           -0.00       -0.00      549.71


     Writing all to output data dir ./output/SiLi.save/

     init_run     :      1.02s CPU      1.10s WALL (       2 calls)
     electrons    :     67.61s CPU     73.84s WALL (      23 calls)
     update_pot   :      2.69s CPU      2.72s WALL (      21 calls)
     forces       :      2.43s CPU      2.51s WALL (      23 calls)
     stress       :     10.47s CPU     10.68s WALL (      23 calls)

     Called by init_run:
     wfcinit      :      0.42s CPU      0.43s WALL (       2 calls)
     potinit      :      0.17s CPU      0.20s WALL (       2 calls)
     hinit0       :      0.41s CPU      0.43s WALL (       2 calls)

     Called by electrons:
     c_bands      :     58.93s CPU     64.54s WALL (     156 calls)
     sum_band     :      8.09s CPU      8.40s WALL (     156 calls)
     v_of_rho     :      0.56s CPU      0.74s WALL (     162 calls)
     mix_rho      :      0.04s CPU      0.05s WALL (     156 calls)

     Called by c_bands:
     init_us_2    :      1.40s CPU      1.50s WALL (   23400 calls)
     init_us_2:cp :      1.38s CPU      1.48s WALL (   23400 calls)
     cegterg      :     55.10s CPU     57.62s WALL (   10140 calls)

     Called by *egterg:
     cdiaghg      :      5.63s CPU      5.85s WALL (   36722 calls)
     h_psi        :     45.23s CPU     47.34s WALL (   39322 calls)
     g_psi        :      0.17s CPU      0.18s WALL (   29052 calls)

     Called by h_psi:
     h_psi:calbec :      2.83s CPU      2.95s WALL (   39322 calls)
     vloc_psi     :     40.29s CPU     42.18s WALL (   39322 calls)
     add_vuspsi   :      1.92s CPU      1.99s WALL (   39322 calls)

     General routines
     calbec       :      3.61s CPU      3.75s WALL (   46797 calls)
     fft          :      0.54s CPU      0.79s WALL (    2210 calls)
     ffts         :      0.01s CPU      0.02s WALL (     156 calls)
     fftw         :     41.72s CPU     43.56s WALL (  789064 calls)

     Parallel routines

     PWSCF        :   1m24.63s CPU   1m31.61s WALL


   This run was terminated on:  11:30:21  29Dec2024            

=------------------------------------------------------------------------------=
   JOB DONE.
=------------------------------------------------------------------------------=
