
     Program PWSCF v.7.2 starts on 22Jan2025 at 11: 9:38 

     This program is part of the open-source Quantum ESPRESSO suite
     for quantum simulation of materials; please cite
         "P. Giannozzi et al., J. Phys.:Condens. Matter 21 395502 (2009);
         "P. Giannozzi et al., J. Phys.:Condens. Matter 29 465901 (2017);
         "P. Giannozzi et al., J. Chem. Phys. 152 154105 (2020);
          URL http://www.quantum-espresso.org", 
     in publications or presentations arising from this work. More details at
     http://www.quantum-espresso.org/quote

     Parallel version (MPI & OpenMP), running on       8 processor cores
     Number of MPI processes:                 8
     Threads/MPI process:                     1

     MPI processes distributed on     1 nodes
     481144 MiB available memory on the printing compute node when the environment starts

     Waiting for input...
     Reading input from standard input

     Current dimensions of program PWSCF are:
     Max number of different atomic species (ntypx) = 10
     Max number of k-points (npk) =  40000
     Max angular momentum in pseudopotentials (lmaxx) =  4

     R & G space division:  proc/nbgrp/npool/nimage =       8
     Subspace diagonalization in iterative solution of the eigenvalue problem:
     a serial algorithm will be used


     Parallelization info
     --------------------
     sticks:   dense  smooth     PW     G-vecs:    dense   smooth      PW
     Min         236     236     67                 5756     5756     864
     Max         237     237     69                 5759     5759     865
     Sum        1893    1893    545                46065    46065    6915

     Using Slab Decomposition



     bravais-lattice index     =            6
     lattice parameter (alat)  =       9.9586  a.u.
     unit-cell volume          =     732.6992 (a.u.)^3
     number of atoms/cell      =           10
     number of atomic types    =            2
     number of electrons       =        38.00
     number of Kohn-Sham states=           23
     kinetic-energy cutoff     =      60.0000  Ry
     charge density cutoff     =     240.0000  Ry
     scf convergence threshold =      1.0E-08
     mixing beta               =       0.8000
     number of iterations used =            8  plain     mixing
     energy convergence thresh.=      5.0E-03
     force convergence thresh. =      1.0E-02
     press convergence thresh. =      2.0E+00
     Exchange-correlation= PBE
                           (   1   4   3   4   0   0   0)
     nstep                     =           50


     celldm(1)=   9.958609  celldm(2)=   0.000000  celldm(3)=   0.741873
     celldm(4)=   0.000000  celldm(5)=   0.000000  celldm(6)=   0.000000

     crystal axes: (cart. coord. in units of alat)
               a(1) = (   1.000000   0.000000   0.000000 )  
               a(2) = (   0.000000   1.000000   0.000000 )  
               a(3) = (   0.000000   0.000000   0.741873 )  

     reciprocal axes: (cart. coord. in units 2 pi/alat)
               b(1) = (  1.000000  0.000000  0.000000 )  
               b(2) = (  0.000000  1.000000  0.000000 )  
               b(3) = (  0.000000  0.000000  1.347939 )  


     PseudoPot. # 1 for Li read from file:
     ../pseudo/Li_ONCV_PBE_sr.upf
     MD5 check sum: 50ff420e78310ffa21704f3361e624a4
     Pseudo is Norm-conserving, Zval =  3.0
     Generated using ONCVPSP code by D. R. Hamann
     Using radial grid of 1944 points,  4 beta functions with: 
                l(1) =   0
                l(2) =   0
                l(3) =   1
                l(4) =   1

     PseudoPot. # 2 for Si read from file:
     ../pseudo/Si_ONCV_PBE_sr.upf
     MD5 check sum: e543d271109d17c80368dfa7c482276d
     Pseudo is Norm-conserving + core correction, Zval =  4.0
     Generated using ONCVPSP code by D. R. Hamann
     Using radial grid of 1510 points,  6 beta functions with: 
                l(1) =   0
                l(2) =   0
                l(3) =   1
                l(4) =   1
                l(5) =   2
                l(6) =   2

     atomic species   valence    mass     pseudopotential
        Li             3.00     6.94100     Li( 1.00)
        Si             4.00    28.08550     Si( 1.00)

     16 Sym. Ops., with inversion, found ( 8 have fractional translation)



   Cartesian axes

     site n.     atom                  positions (alat units)
         1           Li  tau(   1) = (   0.0000000   0.0000000   0.3709366  )
         2           Li  tau(   2) = (   0.5000000   0.5000000   0.0000000  )
         3           Si  tau(   3) = (   0.0000000   0.2594895   0.1737682  )
         4           Si  tau(   4) = (   0.2405105   0.5000000   0.5447048  )
         5           Si  tau(   5) = (   0.0000000   0.7405105   0.1737682  )
         6           Si  tau(   6) = (   0.7594895   0.5000000   0.5447048  )
         7           Si  tau(   7) = (   0.5000000   0.2405105   0.1971684  )
         8           Si  tau(   8) = (   0.7405105   0.0000000   0.5681049  )
         9           Si  tau(   9) = (   0.5000000   0.7594895   0.1971684  )
        10           Si  tau(  10) = (   0.2594895   0.0000000   0.5681049  )

     number of k points=    18  Marzari-Vanderbilt smearing, width (Ry)=  0.0200
                       cart. coord. in units 2pi/alat
        k(    1) = (   0.0000000   0.0000000   0.0000000), wk =   0.0160000
        k(    2) = (   0.0000000   0.0000000   0.2695879), wk =   0.0320000
        k(    3) = (   0.0000000   0.0000000   0.5391758), wk =   0.0320000
        k(    4) = (   0.0000000   0.2000000   0.0000000), wk =   0.0640000
        k(    5) = (   0.0000000   0.2000000   0.2695879), wk =   0.1280000
        k(    6) = (   0.0000000   0.2000000   0.5391758), wk =   0.1280000
        k(    7) = (   0.0000000   0.4000000   0.0000000), wk =   0.0640000
        k(    8) = (   0.0000000   0.4000000   0.2695879), wk =   0.1280000
        k(    9) = (   0.0000000   0.4000000   0.5391758), wk =   0.1280000
        k(   10) = (   0.2000000   0.2000000   0.0000000), wk =   0.0640000
        k(   11) = (   0.2000000   0.2000000   0.2695879), wk =   0.1280000
        k(   12) = (   0.2000000   0.2000000   0.5391758), wk =   0.1280000
        k(   13) = (   0.2000000   0.4000000   0.0000000), wk =   0.1280000
        k(   14) = (   0.2000000   0.4000000   0.2695879), wk =   0.2560000
        k(   15) = (   0.2000000   0.4000000   0.5391758), wk =   0.2560000
        k(   16) = (   0.4000000   0.4000000   0.0000000), wk =   0.0640000
        k(   17) = (   0.4000000   0.4000000   0.2695879), wk =   0.1280000
        k(   18) = (   0.4000000   0.4000000   0.5391758), wk =   0.1280000

     Dense  grid:    46065 G-vectors     FFT dimensions: (  50,  50,  40)

     Estimated max dynamical RAM per process >      21.08 MB

     Estimated total dynamical RAM >     168.66 MB

     Initial potential from superposition of free atoms

     starting charge      37.9860, renormalised to      38.0000
     Starting wfcs are   36 randomized atomic wfcs

     total cpu time spent up to now is        1.8 secs

     Self-consistent Calculation

     iteration #  1     ecut=    60.00 Ry     beta= 0.80
     Davidson diagonalization with overlap
     ethr =  1.00E-02,  avg # of iterations =  3.1

     total cpu time spent up to now is        3.5 secs

     total energy              =     -94.78682612 Ry
     estimated scf accuracy    <       0.38329346 Ry

     iteration #  2     ecut=    60.00 Ry     beta= 0.80
     Davidson diagonalization with overlap
     ethr =  1.01E-03,  avg # of iterations =  4.2

     total cpu time spent up to now is        5.0 secs

     total energy              =     -94.90337380 Ry
     estimated scf accuracy    <       0.26958615 Ry

     iteration #  3     ecut=    60.00 Ry     beta= 0.80
     Davidson diagonalization with overlap
     ethr =  7.09E-04,  avg # of iterations =  2.1

     total cpu time spent up to now is        5.8 secs

     total energy              =     -94.96115941 Ry
     estimated scf accuracy    <       0.00160667 Ry

     iteration #  4     ecut=    60.00 Ry     beta= 0.80
     Davidson diagonalization with overlap
     c_bands:  1 eigenvalues not converged
     c_bands:  1 eigenvalues not converged
     ethr =  4.23E-06,  avg # of iterations = 12.4

     total cpu time spent up to now is        7.4 secs

     total energy              =     -94.96388595 Ry
     estimated scf accuracy    <       0.00136478 Ry

     iteration #  5     ecut=    60.00 Ry     beta= 0.80
     Davidson diagonalization with overlap
     ethr =  3.59E-06,  avg # of iterations =  2.7

     total cpu time spent up to now is        8.4 secs

     total energy              =     -94.96408587 Ry
     estimated scf accuracy    <       0.00002810 Ry

     iteration #  6     ecut=    60.00 Ry     beta= 0.80
     Davidson diagonalization with overlap
     c_bands:  2 eigenvalues not converged
     ethr =  7.39E-08,  avg # of iterations =  6.2

     total cpu time spent up to now is        9.4 secs

     total energy              =     -94.96410737 Ry
     estimated scf accuracy    <       0.00000752 Ry

     iteration #  7     ecut=    60.00 Ry     beta= 0.80
     Davidson diagonalization with overlap
     ethr =  1.98E-08,  avg # of iterations =  2.3

     total cpu time spent up to now is       10.1 secs

     total energy              =     -94.96410876 Ry
     estimated scf accuracy    <       0.00000010 Ry

     iteration #  8     ecut=    60.00 Ry     beta= 0.80
     Davidson diagonalization with overlap
     ethr =  2.56E-10,  avg # of iterations =  6.3

     total cpu time spent up to now is       11.1 secs

     End of self-consistent calculation

          k = 0.0000 0.0000 0.0000 (  5739 PWs)   bands (ev):

   -35.5767 -35.5760  -2.2895   2.0806   2.1396   2.1396   3.8889   6.3139
     6.9350   7.0929   7.4040   7.4040   7.5310   9.9423  10.6773  10.7083
    10.7083  11.7124  11.8565  11.8565  13.5896  13.7496  14.7716

          k = 0.0000 0.0000 0.2696 (  5766 PWs)   bands (ev):

   -35.5769 -35.5758  -1.9461   2.4501   2.5062   2.5062   2.8656   5.0209
     7.0905   7.2905   7.4991   7.4991   7.9244   8.3286   8.3286   9.7517
     9.9849  12.6100  12.9861  12.9861  13.0468  15.0579  15.0707

          k = 0.0000 0.0000 0.5392 (  5758 PWs)   bands (ev):

   -35.5761 -35.5757  -0.9228   0.7470   3.5517   3.5898   3.5898   5.1639
     5.4494   5.4494   5.5461   6.1305   8.3570   8.9216   8.9216  10.0900
    10.1336  10.8113  10.8113  10.9008  14.8575  16.9208  16.9208

          k = 0.0000 0.2000 0.0000 (  5757 PWs)   bands (ev):

   -35.5768 -35.5762  -2.1039   0.6333   2.3436   3.1356   4.8701   5.3679
     5.9515   6.5089   7.2195   8.7806   9.2551   9.2985   9.8855  10.9480
    11.1865  11.9959  12.0228  12.7682  13.2763  13.5182  13.6846

          k = 0.0000 0.2000 0.2696 (  5759 PWs)   bands (ev):

   -35.5767 -35.5759  -1.7605   0.9759   2.7098   2.9764   3.9555   5.5827
     5.7184   5.9401   6.5446   8.1550   8.4771   9.7969   9.9651  10.0337
    10.2666  11.1268  12.0582  13.4005  13.8012  14.4336  14.6049

          k = 0.0000 0.2000 0.5392 (  5754 PWs)   bands (ev):

   -35.5761 -35.5757  -0.7405   0.8763   2.1847   3.7916   3.8832   4.5771
     5.6232   5.8219   6.1580   6.8753   7.0769   8.6496   8.8549   9.6118
    10.8393  11.0511  12.4288  12.5973  14.7006  15.0266  16.5111

          k = 0.0000 0.4000 0.0000 (  5722 PWs)   bands (ev):

   -35.5764 -35.5759  -1.5480  -0.6280   2.9541   3.8076   3.9660   4.7226
     6.9466   7.0803   7.6172   8.1481   8.1647   9.7244  11.1523  11.5660
    11.7376  12.1375  12.1653  12.4447  12.7851  13.5932  13.6125

          k = 0.0000 0.4000 0.2696 (  5742 PWs)   bands (ev):

   -35.5764 -35.5759  -1.2052  -0.2863   3.3186   3.5790   4.3268   4.5632
     4.7675   5.5342   7.4874   8.7655   8.8881   9.7386   9.8006  10.2154
    11.6604  11.7531  12.3084  12.5637  13.5341  14.9258  14.9342

          k = 0.0000 0.4000 0.5392 (  5762 PWs)   bands (ev):

   -35.5761 -35.5759  -0.2028   0.6123   1.7755   2.6196   4.3925   5.0331
     5.3536   5.4949   6.3509   7.2948   7.5188   7.5897   9.3159  10.1644
    11.5635  12.9802  13.2920  13.7588  14.3300  14.8690  15.5364

          k = 0.2000 0.2000 0.0000 (  5751 PWs)   bands (ev):

   -35.5767 -35.5762  -1.9203   0.4749   1.4463   3.9522   4.5273   5.2664
     6.7019   7.3336   7.5389   7.7405   9.1271   9.1977  10.1497  10.2636
    11.5491  12.3883  12.6602  12.8651  13.0090  13.3160  13.7861

          k = 0.2000 0.2000 0.2696 (  5763 PWs)   bands (ev):

   -35.5767 -35.5761  -1.5766   0.8476   1.6815   3.7329   4.2364   4.8839
     5.8958   6.3776   6.6098   8.2055   8.3096   9.4534  10.3267  10.3576
    10.8646  11.6741  13.0014  13.2508  13.4422  13.5501  14.1681

          k = 0.2000 0.2000 0.5392 (  5754 PWs)   bands (ev):

   -35.5761 -35.5756  -0.5582   1.0354   1.9603   3.0276   3.7985   4.3166
     5.4080   6.0190   6.1012   7.7662   7.9013   8.0298   9.4211   9.8392
    10.8717  11.0657  12.7739  14.1468  14.7441  15.0292  15.2628

          k = 0.2000 0.4000 0.0000 (  5730 PWs)   bands (ev):

   -35.5765 -35.5761  -1.3738  -0.4908   1.7231   2.6404   5.4354   6.3903
     7.1419   7.2647   7.6955   8.1703   8.2964   9.6363  10.2483  10.4055
    11.1079  11.3930  11.5534  13.1566  13.5040  13.9424  14.0642

          k = 0.2000 0.4000 0.2696 (  5744 PWs)   bands (ev):

   -35.5764 -35.5760  -1.0290  -0.1411   1.9947   2.9259   4.3420   5.2496
     5.8330   6.4528   7.4210   7.6687   8.7007   9.9654  10.4760  10.9762
    11.3935  12.0664  12.1984  13.1124  13.7256  14.0207  14.3015

          k = 0.2000 0.4000 0.5392 (  5757 PWs)   bands (ev):

   -35.5761 -35.5757  -0.0210   0.8009   1.8032   2.7084   3.2426   3.8996
     4.9893   5.5598   7.1636   7.8733   8.6611   8.7221   9.9602  10.3300
    11.2110  12.5648  12.8393  13.6563  14.5004  14.8203  15.2013

          k = 0.4000 0.4000 0.0000 (  5758 PWs)   bands (ev):

   -35.5767 -35.5765  -0.8792  -0.3483   0.8644   1.4059   7.5883   7.7678
     7.7742   7.9187   8.0944   8.3149   8.4566   9.1351   9.5167   9.5592
    10.1489  10.5742  11.2875  11.5383  11.9493  12.2311  15.6378

          k = 0.4000 0.4000 0.2696 (  5749 PWs)   bands (ev):

   -35.5765 -35.5760  -0.5257   0.0264   1.1265   1.6925   4.9102   5.5279
     6.1201   6.6169   8.0043   8.8909   9.0009   9.3757  11.1086  11.3125
    11.7630  11.8692  12.1790  12.4642  12.9253  13.3372  13.4645

          k = 0.4000 0.4000 0.5392 (  5755 PWs)   bands (ev):

   -35.5759 -35.5758   0.5046   1.1457   1.6209   2.4099   2.7725   2.9943
     4.3298   4.6734   9.0508   9.5723   9.8927  10.2548  10.6663  11.0136
    11.4071  12.1529  12.6176  12.9164  13.1282  13.3218  14.3354

     the Fermi energy is    12.7454 ev

!    total energy              =     -94.96410887 Ry
     estimated scf accuracy    <          6.8E-09 Ry
     smearing contrib. (-TS)   =      -0.00046411 Ry
     internal energy E=F+TS    =     -94.96364476 Ry

     The total energy is F=E-TS. E is the sum of the following terms:
     one-electron contribution =      26.14637122 Ry
     hartree contribution      =       8.56878431 Ry
     xc contribution           =     -33.29795276 Ry
     ewald contribution        =     -96.38084754 Ry

     convergence has been achieved in   8 iterations

     Forces acting on atoms (cartesian axes, Ry/au):

     atom    1 type  1   force =     0.00000000    0.00000000    0.00000000
     atom    2 type  1   force =     0.00000000    0.00000000   -0.00000000
     atom    3 type  2   force =     0.00000000    0.21539645   -0.15848727
     atom    4 type  2   force =    -0.21539645    0.00000000   -0.15848727
     atom    5 type  2   force =     0.00000000   -0.21539645   -0.15848727
     atom    6 type  2   force =     0.21539645    0.00000000   -0.15848727
     atom    7 type  2   force =     0.00000000   -0.21539645    0.15848727
     atom    8 type  2   force =    -0.21539645    0.00000000    0.15848727
     atom    9 type  2   force =     0.00000000    0.21539645    0.15848727
     atom   10 type  2   force =     0.21539645    0.00000000    0.15848727
     The non-local contrib.  to forces
     atom    1 type  1   force =     0.00000000    0.00000000   -0.00000000
     atom    2 type  1   force =     0.00000000    0.00000000    0.00000000
     atom    3 type  2   force =     0.00000000    0.20470920   -0.13936901
     atom    4 type  2   force =    -0.20470920    0.00000000   -0.13936901
     atom    5 type  2   force =     0.00000000   -0.20470920   -0.13936901
     atom    6 type  2   force =     0.20470920   -0.00000000   -0.13936901
     atom    7 type  2   force =     0.00000000   -0.20470920    0.13936901
     atom    8 type  2   force =    -0.20470920   -0.00000000    0.13936901
     atom    9 type  2   force =     0.00000000    0.20470920    0.13936901
     atom   10 type  2   force =     0.20470920    0.00000000    0.13936901
     The ionic contribution  to forces
     atom    1 type  1   force =     0.00000000    0.00000000    0.00000000
     atom    2 type  1   force =    -0.00000000   -0.00000000   -0.00000000
     atom    3 type  2   force =     0.00000000    1.04368586   -0.72984107
     atom    4 type  2   force =    -1.04368586    0.00000000   -0.72984107
     atom    5 type  2   force =    -0.00000000   -1.04368586   -0.72984107
     atom    6 type  2   force =     1.04368586   -0.00000000   -0.72984107
     atom    7 type  2   force =     0.00000000   -1.04368586    0.72984107
     atom    8 type  2   force =    -1.04368586    0.00000000    0.72984107
     atom    9 type  2   force =    -0.00000000    1.04368586    0.72984107
     atom   10 type  2   force =     1.04368586   -0.00000000    0.72984107
     The local contribution  to forces
     atom    1 type  1   force =     0.00000000   -0.00000000    0.00000000
     atom    2 type  1   force =     0.00000000    0.00000000    0.00000000
     atom    3 type  2   force =    -0.00000000   -1.02080925    0.70181692
     atom    4 type  2   force =     1.02080925   -0.00000000    0.70181692
     atom    5 type  2   force =    -0.00000000    1.02080925    0.70181692
     atom    6 type  2   force =    -1.02080925    0.00000000    0.70181692
     atom    7 type  2   force =    -0.00000000    1.02080925   -0.70181692
     atom    8 type  2   force =     1.02080925   -0.00000000   -0.70181692
     atom    9 type  2   force =    -0.00000000   -1.02080925   -0.70181692
     atom   10 type  2   force =    -1.02080925    0.00000000   -0.70181692
     The core correction contribution to forces
     atom    1 type  1   force =     0.00000000    0.00000000    0.00000000
     atom    2 type  1   force =     0.00000000    0.00000000    0.00000000
     atom    3 type  2   force =    -0.00000000   -0.01222854    0.00890687
     atom    4 type  2   force =     0.01222854   -0.00000000    0.00890687
     atom    5 type  2   force =     0.00000000    0.01222854    0.00890687
     atom    6 type  2   force =    -0.01222854    0.00000000    0.00890687
     atom    7 type  2   force =    -0.00000000    0.01222854   -0.00890687
     atom    8 type  2   force =     0.01222854   -0.00000000   -0.00890687
     atom    9 type  2   force =    -0.00000000   -0.01222854   -0.00890687
     atom   10 type  2   force =    -0.01222854    0.00000000   -0.00890687
     The Hubbard contrib.    to forces
     atom    1 type  1   force =     0.00000000    0.00000000    0.00000000
     atom    2 type  1   force =     0.00000000    0.00000000    0.00000000
     atom    3 type  2   force =     0.00000000    0.00000000    0.00000000
     atom    4 type  2   force =     0.00000000    0.00000000    0.00000000
     atom    5 type  2   force =     0.00000000    0.00000000    0.00000000
     atom    6 type  2   force =     0.00000000    0.00000000    0.00000000
     atom    7 type  2   force =     0.00000000    0.00000000    0.00000000
     atom    8 type  2   force =     0.00000000    0.00000000    0.00000000
     atom    9 type  2   force =     0.00000000    0.00000000    0.00000000
     atom   10 type  2   force =     0.00000000    0.00000000    0.00000000
     The SCF correction term to forces
     atom    1 type  1   force =     0.00000000   -0.00000000    0.00000000
     atom    2 type  1   force =     0.00000000   -0.00000000    0.00000000
     atom    3 type  2   force =     0.00000000    0.00003918   -0.00000099
     atom    4 type  2   force =    -0.00003918   -0.00000000   -0.00000099
     atom    5 type  2   force =    -0.00000000   -0.00003918   -0.00000099
     atom    6 type  2   force =     0.00003918    0.00000000   -0.00000099
     atom    7 type  2   force =    -0.00000000   -0.00003918    0.00000099
     atom    8 type  2   force =    -0.00003918   -0.00000000    0.00000099
     atom    9 type  2   force =     0.00000000    0.00003918    0.00000099
     atom   10 type  2   force =     0.00003918    0.00000000    0.00000099

     Total force =     0.756380     Total SCF correction =     0.000111


     Computing stress (Cartesian axis) and pressure

          total   stress  (Ry/bohr**3)                   (kbar)     P=      584.87
   0.00375572   0.00000000   0.00000000          552.49        0.00        0.00
   0.00000000   0.00375572   0.00000000            0.00      552.49        0.00
   0.00000000   0.00000000   0.00441618            0.00        0.00      649.64


     BFGS Geometry Optimization
     Energy error            =      0.0E+00 Ry
     Gradient error          =      2.2E-01 Ry/Bohr
     Cell gradient error     =      1.5E+02 kbar

     number of scf cycles    =   1
     number of bfgs steps    =   0

     enthalpy           new  =     -92.4737149362 Ry

     new trust radius        =       0.2674207317 bohr
ibrav =      6
 celldm(1) =     10.04743673
 celldm(3) =      0.75401440
Input lattice vectors:
     1.00891967     0.00000000     0.00000000
     0.00000000     1.00891967     0.00000000
     0.00000000     0.00000000     0.76073995
New lattice vectors in INITIAL alat:
     1.00891967     0.00000000     0.00000000
     0.00000000     1.00891967     0.00000000
     0.00000000     0.00000000     0.76073995
New lattice vectors in NEW alat (for information only):
     1.00000000     0.00000000     0.00000000
     0.00000000     1.00000000     0.00000000
     0.00000000     0.00000000     0.75401440
Discrepancy in bohr =     0.000000    0.000000    0.000000
     new conv_thr            =       0.0000000100 Ry

     new unit-cell volume =    764.79577 a.u.^3 (   113.33104 Ang^3 )
     density =      3.49550 g/cm^3

CELL_PARAMETERS (alat=  9.95860925)
   1.008919667   0.000000000   0.000000000
   0.000000000   1.008919667   0.000000000
   0.000000000   0.000000000   0.760739953

ATOMIC_POSITIONS (crystal)
Li            0.0000000000        0.0000000000        0.5000000000
Li            0.5000000000        0.5000000000       -0.0000000000
Si            0.0000000000        0.2811186699        0.2127770849
Si            0.2188813301        0.5000000000        0.7127770849
Si            0.0000000000        0.7188813301        0.2127770849
Si            0.7811186699        0.5000000000        0.7127770849
Si            0.5000000000        0.2188813301        0.2872229151
Si            0.7188813301        0.0000000000        0.7872229151
Si            0.5000000000        0.7811186699        0.2872229151
Si            0.2811186699        0.0000000000        0.7872229151



     Writing config-only to output data dir ./output/LiSi.save/
     NEW-OLD atomic charge density approx. for the potential
     extrapolated charge   39.59418, renormalised to   38.00000

     total cpu time spent up to now is       14.3 secs

     Self-consistent Calculation

     iteration #  1     ecut=    60.00 Ry     beta= 0.80
     Davidson diagonalization with overlap
     c_bands:  1 eigenvalues not converged
     c_bands:  2 eigenvalues not converged
     c_bands:  1 eigenvalues not converged
     c_bands:  1 eigenvalues not converged
     c_bands:  1 eigenvalues not converged
     c_bands:  1 eigenvalues not converged
     ethr =  1.00E-06,  avg # of iterations = 17.9

     total cpu time spent up to now is       17.1 secs

     total energy              =     -95.42543487 Ry
     estimated scf accuracy    <       0.14285426 Ry

     iteration #  2     ecut=    60.00 Ry     beta= 0.80
     Davidson diagonalization with overlap
     ethr =  3.76E-04,  avg # of iterations =  3.3

     total cpu time spent up to now is       18.0 secs

     total energy              =     -95.47960228 Ry
     estimated scf accuracy    <       0.20683156 Ry

     iteration #  3     ecut=    60.00 Ry     beta= 0.80
     Davidson diagonalization with overlap
     ethr =  3.76E-04,  avg # of iterations =  2.1

     total cpu time spent up to now is       18.7 secs

     total energy              =     -95.50675775 Ry
     estimated scf accuracy    <       0.00607613 Ry

     iteration #  4     ecut=    60.00 Ry     beta= 0.80
     Davidson diagonalization with overlap
     ethr =  1.60E-05,  avg # of iterations =  5.1

     total cpu time spent up to now is       19.7 secs

     total energy              =     -95.50972031 Ry
     estimated scf accuracy    <       0.00013216 Ry

     iteration #  5     ecut=    60.00 Ry     beta= 0.80
     Davidson diagonalization with overlap
     ethr =  3.48E-07,  avg # of iterations =  4.7

     total cpu time spent up to now is       20.5 secs

     total energy              =     -95.50975788 Ry
     estimated scf accuracy    <       0.00006091 Ry

     iteration #  6     ecut=    60.00 Ry     beta= 0.80
     Davidson diagonalization with overlap
     ethr =  1.60E-07,  avg # of iterations =  2.0

     total cpu time spent up to now is       21.2 secs

     total energy              =     -95.50976700 Ry
     estimated scf accuracy    <       0.00000151 Ry

     iteration #  7     ecut=    60.00 Ry     beta= 0.80
     Davidson diagonalization with overlap
     ethr =  3.99E-09,  avg # of iterations =  5.4

     total cpu time spent up to now is       22.3 secs

     total energy              =     -95.50976816 Ry
     estimated scf accuracy    <       0.00000043 Ry

     iteration #  8     ecut=    60.00 Ry     beta= 0.80
     Davidson diagonalization with overlap
     ethr =  1.13E-09,  avg # of iterations =  2.1

     total cpu time spent up to now is       22.9 secs

     End of self-consistent calculation

          k = 0.0000 0.0000 0.0000 (  5739 PWs)   bands (ev):

   -34.7618 -34.7616  -2.8919   0.5435   1.9319   1.9319   3.9339   5.5734
     6.2610   6.7333   6.7407   7.0675   7.0675   8.7663   9.6666  10.1890
    10.1890  10.2631  10.9180  10.9180  12.8082  13.6312  14.4625

          k = 0.0000 0.0000 0.2629 (  5766 PWs)   bands (ev):

   -34.7625 -34.7615  -2.5542   0.8944   2.2809   2.2809   2.3312   4.9593
     6.0913   6.6431   7.0722   7.3246   7.3246   7.6013   7.6013   9.1661
     9.6121  11.9972  12.1308  12.2905  12.2905  12.9096  14.4594

          k = 0.0000 0.0000 0.5258 (  5758 PWs)   bands (ev):

   -34.7619 -34.7615  -1.5458   0.1129   1.9423   3.3080   3.3080   3.6668
     5.1310   5.1310   5.4410   6.1361   8.0885   8.3761   8.3761   9.4216
     9.7797  10.1314  10.2864  10.2864  13.6993  16.5815  16.5815

          k = 0.0000 0.1982 0.0000 (  5757 PWs)   bands (ev):

   -34.7620 -34.7619  -2.7156  -0.2502   2.1329   2.4353   4.6999   5.1212
     5.3405   5.7644   6.4222   8.0114   8.6963   8.7904   9.0370  10.1516
    10.3830  10.8927  11.0746  12.3551  12.4132  12.5756  13.3311

          k = 0.0000 0.1982 0.2629 (  5759 PWs)   bands (ev):

   -34.7623 -34.7616  -2.3777   0.0955   2.3340   2.4817   3.1327   5.1220
     5.4637   5.5736   5.7125   7.7029   7.7765   9.1449   9.2095   9.3641
    10.1129  10.6127  11.1113  12.1485  12.9794  13.8264  13.8759

          k = 0.0000 0.1982 0.5258 (  5754 PWs)   bands (ev):

   -34.7619 -34.7615  -1.3701   0.2616   1.1872   2.8845   3.5082   3.8112
     5.2232   5.3246   6.0729   6.4763   6.4880   8.2326   8.4931   8.9712
    10.3641  10.4107  11.7881  12.1036  13.7558  14.5717  15.9142

          k = 0.0000 0.3965 0.0000 (  5722 PWs)   bands (ev):

   -34.7617 -34.7613  -2.1918  -1.3423   2.7348   3.1475   3.7336   4.0919
     6.1702   6.3133   6.9721   7.1416   7.7169   9.4268  10.6081  10.8087
    10.8418  11.3707  11.5471  11.6583  12.2581  12.6381  12.7912

          k = 0.0000 0.3965 0.2629 (  5742 PWs)   bands (ev):

   -34.7619 -34.7615  -1.8531  -1.0019   2.9079   3.0827   3.8530   3.9424
     4.0797   4.7106   7.2674   8.2284   8.2815   9.1442   9.2286   9.8318
    10.6246  10.9013  11.7080  11.9048  12.5209  14.3811  14.4200

          k = 0.0000 0.3965 0.5258 (  5762 PWs)   bands (ev):

   -34.7620 -34.7617  -0.8514  -0.0421   0.9461   1.7809   4.1072   4.3668
     4.9030   5.0958   5.9262   6.7301   6.8943   6.9635   8.9240   9.9137
    10.8751  12.3369  12.8382  13.3958  13.9633  14.3677  14.5019

          k = 0.1982 0.1982 0.0000 (  5751 PWs)   bands (ev):

   -34.7620 -34.7618  -2.5442  -0.4892   1.3191   3.5825   3.7290   5.1313
     5.9519   6.5708   6.9803   7.4233   7.8476   8.7438   9.0716   9.8506
    10.9088  11.3631  11.9530  12.0963  12.6566  12.7166  12.7201

          k = 0.1982 0.1982 0.2629 (  5763 PWs)   bands (ev):

   -34.7622 -34.7619  -2.2056  -0.1348   1.5405   3.0059   3.8474   4.0754
     5.0637   6.0216   6.4222   7.6946   7.7534   8.8430   9.2382  10.0126
    10.3605  11.1057  11.8664  12.2544  12.7237  12.9581  13.5869

          k = 0.1982 0.1982 0.5258 (  5754 PWs)   bands (ev):

   -34.7620 -34.7613  -1.1974   0.4328   0.9239   2.6556   2.7622   4.0035
     5.0380   5.2740   5.9785   6.8558   7.5928   7.7854   8.9022   9.4171
    10.2309  10.4620  12.2930  13.3913  13.9042  14.6620  14.9387

          k = 0.1982 0.3965 0.0000 (  5730 PWs)   bands (ev):

   -34.7619 -34.7615  -2.0409  -1.2640   1.4712   2.3090   4.8097   5.8608
     6.3234   6.4870   7.1286   7.1828   7.8690   9.2012   9.4465   9.5918
    10.3628  10.9646  11.0074  12.5251  12.8072  12.9249  13.1758

          k = 0.1982 0.3965 0.2629 (  5744 PWs)   bands (ev):

   -34.7619 -34.7616  -1.7002  -0.9178   1.7218   2.5778   3.5332   4.3143
     5.1736   6.0139   7.0342   7.1274   8.3019   9.5580   9.9438  10.2368
    10.7987  11.1395  11.2623  12.0926  13.1863  13.4301  13.4757

          k = 0.1982 0.3965 0.5258 (  5757 PWs)   bands (ev):

   -34.7619 -34.7615  -0.6916   0.0822   1.0196   1.8539   2.8243   3.3964
     4.7169   5.2284   6.3877   7.2767   7.9772   8.3869   9.4141  10.1112
    10.5385  11.9197  12.4501  13.3103  13.8761  14.3131  14.4486

          k = 0.3965 0.3965 0.0000 (  5758 PWs)   bands (ev):

   -34.7623 -34.7621  -1.6368  -1.2497   0.7652   1.1706   6.6841   6.6961
     6.8362   7.3259   7.6568   7.6691   8.3079   8.3630   8.4112   9.0751
     9.3847  10.0945  10.6310  10.9168  11.5585  12.2608  15.2546

          k = 0.3965 0.3965 0.2629 (  5749 PWs)   bands (ev):

   -34.7622 -34.7616  -1.2891  -0.8934   1.0298   1.4481   3.9587   4.3557
     5.9324   6.2868   7.1065   8.1602   8.8217   9.0405  10.4463  10.9723
    11.0545  11.1027  11.3266  11.8321  12.1653  12.4060  12.7859

          k = 0.3965 0.3965 0.5258 (  5755 PWs)   bands (ev):

   -34.7618 -34.7616  -0.2572   0.1714   1.2762   1.9307   2.0927   2.1352
     4.1383   4.3908   8.0919   9.0651   9.5073   9.7762   9.9902  10.6506
    10.7373  11.6607  12.0499  12.2427  12.8814  12.9233  13.5365

     the Fermi energy is    12.0828 ev

!    total energy              =     -95.50976824 Ry
     estimated scf accuracy    <          4.6E-09 Ry
     smearing contrib. (-TS)   =      -0.00248386 Ry
     internal energy E=F+TS    =     -95.50728438 Ry

     The total energy is F=E-TS. E is the sum of the following terms:
     one-electron contribution =      26.87719517 Ry
     hartree contribution      =       7.41116442 Ry
     xc contribution           =     -33.03727936 Ry
     ewald contribution        =     -96.75836462 Ry

     convergence has been achieved in   8 iterations

     Forces acting on atoms (cartesian axes, Ry/au):

     atom    1 type  1   force =     0.00000000    0.00000000    0.00000000
     atom    2 type  1   force =     0.00000000    0.00000000    0.00000000
     atom    3 type  2   force =    -0.00000000    0.09238683   -0.10225382
     atom    4 type  2   force =    -0.09238683    0.00000000   -0.10225382
     atom    5 type  2   force =     0.00000000   -0.09238683   -0.10225382
     atom    6 type  2   force =     0.09238683    0.00000000   -0.10225382
     atom    7 type  2   force =     0.00000000   -0.09238683    0.10225382
     atom    8 type  2   force =    -0.09238683    0.00000000    0.10225382
     atom    9 type  2   force =    -0.00000000    0.09238683    0.10225382
     atom   10 type  2   force =     0.09238683   -0.00000000    0.10225382
     The non-local contrib.  to forces
     atom    1 type  1   force =     0.00000000    0.00000000   -0.00000000
     atom    2 type  1   force =     0.00000000    0.00000000    0.00000000
     atom    3 type  2   force =    -0.00000000    0.10205212   -0.12254746
     atom    4 type  2   force =    -0.10205212   -0.00000000   -0.12254746
     atom    5 type  2   force =     0.00000000   -0.10205212   -0.12254746
     atom    6 type  2   force =     0.10205212   -0.00000000   -0.12254746
     atom    7 type  2   force =    -0.00000000   -0.10205212    0.12254746
     atom    8 type  2   force =    -0.10205212    0.00000000    0.12254746
     atom    9 type  2   force =     0.00000000    0.10205212    0.12254746
     atom   10 type  2   force =     0.10205212    0.00000000    0.12254746
     The ionic contribution  to forces
     atom    1 type  1   force =     0.00000000    0.00000000   -0.00000000
     atom    2 type  1   force =    -0.00000000   -0.00000000    0.00000000
     atom    3 type  2   force =    -0.00000000    0.14270877   -0.45004741
     atom    4 type  2   force =    -0.14270877    0.00000000   -0.45004741
     atom    5 type  2   force =     0.00000000   -0.14270877   -0.45004741
     atom    6 type  2   force =     0.14270877    0.00000000   -0.45004741
     atom    7 type  2   force =     0.00000000   -0.14270877    0.45004741
     atom    8 type  2   force =    -0.14270877   -0.00000000    0.45004741
     atom    9 type  2   force =    -0.00000000    0.14270877    0.45004741
     atom   10 type  2   force =     0.14270877   -0.00000000    0.45004741
     The local contribution  to forces
     atom    1 type  1   force =    -0.00000000   -0.00000000   -0.00000000
     atom    2 type  1   force =     0.00000000    0.00000000   -0.00000000
     atom    3 type  2   force =    -0.00000000   -0.14870974    0.46275550
     atom    4 type  2   force =     0.14870974    0.00000000    0.46275550
     atom    5 type  2   force =     0.00000000    0.14870974    0.46275550
     atom    6 type  2   force =    -0.14870974    0.00000000    0.46275550
     atom    7 type  2   force =     0.00000000    0.14870974   -0.46275550
     atom    8 type  2   force =     0.14870974   -0.00000000   -0.46275550
     atom    9 type  2   force =    -0.00000000   -0.14870974   -0.46275550
     atom   10 type  2   force =    -0.14870974    0.00000000   -0.46275550
     The core correction contribution to forces
     atom    1 type  1   force =     0.00000000    0.00000000    0.00000000
     atom    2 type  1   force =     0.00000000    0.00000000    0.00000000
     atom    3 type  2   force =     0.00000000   -0.00369463    0.00758224
     atom    4 type  2   force =     0.00369463    0.00000000    0.00758224
     atom    5 type  2   force =    -0.00000000    0.00369463    0.00758224
     atom    6 type  2   force =    -0.00369463   -0.00000000    0.00758224
     atom    7 type  2   force =    -0.00000000    0.00369463   -0.00758224
     atom    8 type  2   force =     0.00369463    0.00000000   -0.00758224
     atom    9 type  2   force =    -0.00000000   -0.00369463   -0.00758224
     atom   10 type  2   force =    -0.00369463   -0.00000000   -0.00758224
     The Hubbard contrib.    to forces
     atom    1 type  1   force =     0.00000000    0.00000000    0.00000000
     atom    2 type  1   force =     0.00000000    0.00000000    0.00000000
     atom    3 type  2   force =     0.00000000    0.00000000    0.00000000
     atom    4 type  2   force =     0.00000000    0.00000000    0.00000000
     atom    5 type  2   force =     0.00000000    0.00000000    0.00000000
     atom    6 type  2   force =     0.00000000    0.00000000    0.00000000
     atom    7 type  2   force =     0.00000000    0.00000000    0.00000000
     atom    8 type  2   force =     0.00000000    0.00000000    0.00000000
     atom    9 type  2   force =     0.00000000    0.00000000    0.00000000
     atom   10 type  2   force =     0.00000000    0.00000000    0.00000000
     The SCF correction term to forces
     atom    1 type  1   force =    -0.00000000    0.00000000    0.00000000
     atom    2 type  1   force =     0.00000000    0.00000000    0.00000000
     atom    3 type  2   force =    -0.00000000    0.00003031    0.00000332
     atom    4 type  2   force =    -0.00003031    0.00000000    0.00000332
     atom    5 type  2   force =     0.00000000   -0.00003031    0.00000332
     atom    6 type  2   force =     0.00003031   -0.00000000    0.00000332
     atom    7 type  2   force =     0.00000000   -0.00003031   -0.00000332
     atom    8 type  2   force =    -0.00003031    0.00000000   -0.00000332
     atom    9 type  2   force =    -0.00000000    0.00003031   -0.00000332
     atom   10 type  2   force =     0.00003031   -0.00000000   -0.00000332

     Total force =     0.389781     Total SCF correction =     0.000086


     Computing stress (Cartesian axis) and pressure

          total   stress  (Ry/bohr**3)                   (kbar)     P=      444.04
   0.00277226   0.00000000   0.00000000          407.81        0.00        0.00
   0.00000000   0.00277226   0.00000000            0.00      407.81        0.00
   0.00000000   0.00000000   0.00351105            0.00        0.00      516.49

     Energy error            =      4.4E-01 Ry
     Gradient error          =      1.0E-01 Ry/Bohr
     Cell gradient error     =      9.2E+01 kbar

     number of scf cycles    =   2
     number of bfgs steps    =   1

     enthalpy           old  =     -92.4737149362 Ry
     enthalpy           new  =     -92.9102802468 Ry

     CASE: enthalpy          _new < enthalpy          _old

     new trust radius        =       0.3335723902 bohr
ibrav =      6
 celldm(1) =      9.75500103
 celldm(3) =      0.78496499
Input lattice vectors:
     0.97955455     0.00000000     0.00000000
     0.00000000     0.97955455     0.00000000
     0.00000000     0.00000000     0.76891603
New lattice vectors in INITIAL alat:
     0.97955455     0.00000000     0.00000000
     0.00000000     0.97955455     0.00000000
     0.00000000     0.00000000     0.76891603
New lattice vectors in NEW alat (for information only):
     1.00000000     0.00000000     0.00000000
     0.00000000     1.00000000     0.00000000
     0.00000000     0.00000000     0.78496499
Discrepancy in bohr =     0.000000    0.000000    0.000000
     new conv_thr            =       0.0000000010 Ry

     new unit-cell volume =    728.67228 a.u.^3 (   107.97809 Ang^3 )
     density =      3.66878 g/cm^3

CELL_PARAMETERS (alat=  9.95860925)
   0.979554552   0.000000000   0.000000000
   0.000000000   0.979554552   0.000000000
   0.000000000   0.000000000   0.768916033

ATOMIC_POSITIONS (crystal)
Li            0.0000000000        0.0000000000        0.5000000000
Li            0.5000000000        0.5000000000       -0.0000000000
Si           -0.0000000000        0.3038797106        0.1807228296
Si            0.1961202894        0.5000000000        0.6807228296
Si            0.0000000000        0.6961202894        0.1807228296
Si            0.8038797106        0.5000000000        0.6807228296
Si            0.5000000000        0.1961202894        0.3192771704
Si            0.6961202894        0.0000000000        0.8192771704
Si            0.5000000000        0.8038797106        0.3192771704
Si            0.3038797106       -0.0000000000        0.8192771704



     Writing config-only to output data dir ./output/LiSi.save/
     NEW-OLD atomic charge density approx. for the potential
     extrapolated charge   36.11687, renormalised to   38.00000

     total cpu time spent up to now is       25.9 secs

     Self-consistent Calculation

     iteration #  1     ecut=    60.00 Ry     beta= 0.80
     Davidson diagonalization with overlap
     c_bands:  1 eigenvalues not converged
     c_bands:  1 eigenvalues not converged
     c_bands:  2 eigenvalues not converged
     c_bands:  1 eigenvalues not converged
     c_bands:  1 eigenvalues not converged
     c_bands:  2 eigenvalues not converged
     c_bands:  3 eigenvalues not converged
     c_bands:  1 eigenvalues not converged
     c_bands:  2 eigenvalues not converged
     ethr =  1.00E-06,  avg # of iterations = 18.3

     total cpu time spent up to now is       28.8 secs

     total energy              =     -95.49809716 Ry
     estimated scf accuracy    <       0.07110369 Ry

     iteration #  2     ecut=    60.00 Ry     beta= 0.80
     Davidson diagonalization with overlap
     ethr =  1.87E-04,  avg # of iterations =  3.3

     total cpu time spent up to now is       29.7 secs

     total energy              =     -95.52445965 Ry
     estimated scf accuracy    <       0.04994409 Ry

     iteration #  3     ecut=    60.00 Ry     beta= 0.80
     Davidson diagonalization with overlap
     ethr =  1.31E-04,  avg # of iterations =  2.0

     total cpu time spent up to now is       30.3 secs

     total energy              =     -95.53213789 Ry
     estimated scf accuracy    <       0.00085393 Ry

     iteration #  4     ecut=    60.00 Ry     beta= 0.80
     Davidson diagonalization with overlap
     c_bands:  1 eigenvalues not converged
     ethr =  2.25E-06,  avg # of iterations =  6.9

     total cpu time spent up to now is       31.4 secs

     total energy              =     -95.53275339 Ry
     estimated scf accuracy    <       0.00019794 Ry

     iteration #  5     ecut=    60.00 Ry     beta= 0.80
     Davidson diagonalization with overlap
     c_bands:  1 eigenvalues not converged
     ethr =  5.21E-07,  avg # of iterations =  3.7

     total cpu time spent up to now is       32.1 secs

     total energy              =     -95.53279323 Ry
     estimated scf accuracy    <       0.00000171 Ry

     iteration #  6     ecut=    60.00 Ry     beta= 0.80
     Davidson diagonalization with overlap
     ethr =  4.50E-09,  avg # of iterations =  6.1

     total cpu time spent up to now is       33.1 secs

     total energy              =     -95.53279487 Ry
     estimated scf accuracy    <       0.00000095 Ry

     iteration #  7     ecut=    60.00 Ry     beta= 0.80
     Davidson diagonalization with overlap
     ethr =  2.50E-09,  avg # of iterations =  2.1

     total cpu time spent up to now is       33.8 secs

     total energy              =     -95.53279512 Ry
     estimated scf accuracy    <       0.00000001 Ry

     iteration #  8     ecut=    60.00 Ry     beta= 0.80
     Davidson diagonalization with overlap
     ethr =  2.83E-11,  avg # of iterations =  5.2

     total cpu time spent up to now is       34.7 secs

     total energy              =     -95.53279512 Ry
     estimated scf accuracy    <          3.6E-09 Ry

     iteration #  9     ecut=    60.00 Ry     beta= 0.80
     Davidson diagonalization with overlap
     ethr =  9.57E-12,  avg # of iterations =  2.2

     total cpu time spent up to now is       35.4 secs

     End of self-consistent calculation

          k = 0.0000 0.0000 0.0000 (  5739 PWs)   bands (ev):

   -33.4753 -33.4743  -3.1333  -0.2576   2.5355   2.5355   4.4021   5.2598
     6.4687   6.9109   7.6751   7.8028   7.8868   7.8868   8.5562  10.6482
    10.6482  11.1462  11.1462  11.6852  13.1266  15.0908  15.4871

          k = 0.0000 0.0000 0.2601 (  5766 PWs)   bands (ev):

   -33.4759 -33.4745  -2.7984   0.0830   2.1170   2.8788   2.8788   5.0609
     5.9688   6.9266   7.9565   7.9565   8.0057   8.2256   8.2256   8.9288
    10.9379  11.6448  12.3836  12.8082  12.8082  12.9495  14.8261

          k = 0.0000 0.0000 0.5202 (  5758 PWs)   bands (ev):

   -33.4752 -33.4746  -1.7976  -0.1449   1.0996   2.7760   3.9020   3.9020
     5.6174   5.6174   6.3770   6.7916   8.9973   9.2228   9.2228  10.3867
    10.6481  10.7771  10.8491  10.8491  13.2570  15.7173  17.9410

          k = 0.0000 0.2042 0.0000 (  5757 PWs)   bands (ev):

   -33.4750 -33.4746  -2.9613  -0.7579   2.7477   2.7941   4.9254   5.4308
     5.6916   5.9054   6.8251   7.4049   8.0860   9.3812  10.0453  10.6688
    10.8400  11.0206  11.3159  12.7022  13.0618  13.8637  14.0778

          k = 0.0000 0.2042 0.2601 (  5759 PWs)   bands (ev):

   -33.4756 -33.4747  -2.6260  -0.4171   2.2288   3.0907   3.3088   4.5961
     5.8604   6.2431   6.5860   8.1622   8.1815   9.0469   9.6923  10.3729
    11.0809  11.1760  11.3916  11.6053  13.7588  14.2442  14.4440

          k = 0.0000 0.2042 0.5202 (  5754 PWs)   bands (ev):

   -33.4752 -33.4746  -1.6251   0.0126   0.6241   2.2953   4.1132   4.1570
     5.5167   5.8255   6.8653   6.8917   7.2510   8.9184   9.5658   9.7612
    11.2021  11.3514  12.3703  12.9324  13.3822  15.3487  15.9884

          k = 0.0000 0.4083 0.0000 (  5722 PWs)   bands (ev):

   -33.4747 -33.4745  -2.4565  -1.6680   3.3831   3.4264   4.3932   4.4379
     5.7148   5.8729   6.7970   7.0836   8.2571  10.2736  10.9266  11.2981
    11.3676  11.6939  11.8733  12.6667  12.8796  13.1406  13.2979

          k = 0.0000 0.4083 0.2601 (  5742 PWs)   bands (ev):

   -33.4751 -33.4747  -2.1203  -1.3300   2.7522   3.6239   3.7252   4.0026
     4.7784   4.8048   8.0753   8.5359   8.7739   9.3544   9.7841  10.3296
    10.6999  11.0069  12.4400  12.9889  13.1754  14.9502  14.9703

          k = 0.0000 0.4083 0.5202 (  5762 PWs)   bands (ev):

   -33.4753 -33.4750  -1.1211  -0.3475   0.5994   1.3896   4.6270   4.7453
     5.1469   5.7940   6.4487   7.0336   7.2995   7.4827  10.0673  11.1713
    11.7450  13.3419  13.7985  13.9179  14.1171  14.6006  15.3186

          k = 0.2042 0.2042 0.0000 (  5751 PWs)   bands (ev):

   -33.4751 -33.4747  -2.7974  -0.9930   1.9445   4.0674   4.1099   5.1954
     5.5989   7.1363   7.1984   7.4753   7.9459   8.2866   9.8257  10.3605
    11.4287  11.8493  12.2283  12.4654  13.0739  13.4940  13.8036

          k = 0.2042 0.2042 0.2601 (  5763 PWs)   bands (ev):

   -33.4754 -33.4749  -2.4615  -0.6489   2.0187   2.8448   4.3531   4.4001
     4.4125   6.9842   7.0411   8.1539   8.6136   8.9369   9.4424  10.0830
    11.0784  11.5884  12.1663  12.6287  13.2411  13.6941  14.7694

          k = 0.2042 0.2042 0.5202 (  5754 PWs)   bands (ev):

   -33.4753 -33.4745  -1.4592   0.1845   0.3785   2.0738   3.3039   4.5280
     5.4184   5.7728   6.6050   7.0846   8.4342   8.6087   9.6075  10.5636
    10.9732  11.2498  13.1292  13.4659  14.2633  15.2737  16.0038

          k = 0.2042 0.4083 0.0000 (  5730 PWs)   bands (ev):

   -33.4750 -33.4747  -2.3260  -1.6361   2.0264   2.8219   5.1875   5.8254
     5.9380   6.3954   6.8700   7.2142   8.4214   9.8226   9.9852  10.1823
    10.5599  11.5795  11.9091  13.0369  13.3012  13.6986  13.7246

          k = 0.2042 0.4083 0.2601 (  5744 PWs)   bands (ev):

   -33.4750 -33.4747  -1.9881  -1.2945   2.2055   3.0459   3.2272   3.8437
     5.5706   6.5430   7.5345   7.6550   9.1596   9.9823  10.3150  10.4720
    10.4975  11.5810  11.9620  12.8330  13.7473  14.1283  14.5044

          k = 0.2042 0.4083 0.5202 (  5757 PWs)   bands (ev):

   -33.4752 -33.4747  -0.9828  -0.2866   0.6976   1.4256   3.2738   3.7861
     5.3567   5.7723   6.7002   7.7080   8.2976   9.0469  10.4434  11.2814
    11.4277  12.9015  13.4839  13.7696  14.4095  14.6630  14.8650

          k = 0.4083 0.4083 0.0000 (  5758 PWs)   bands (ev):

   -33.4753 -33.4752  -1.9943  -1.6882   1.3924   1.7302   5.9987   6.1052
     7.0680   7.0821   7.3742   8.0885   8.9598   9.0235   9.3009   9.5613
     9.5646  10.9819  11.2731  11.6007  13.1389  13.6684  15.3312

          k = 0.4083 0.4083 0.2601 (  5749 PWs)   bands (ev):

   -33.4751 -33.4747  -1.6516  -1.3418   1.6447   1.9976   3.4755   3.7489
     6.6013   6.8592   7.4021   8.5326   9.7225   9.9678  10.3196  10.4815
    11.4675  11.5632  12.1443  12.4752  12.9522  13.1762  13.9019

          k = 0.4083 0.4083 0.5202 (  5755 PWs)   bands (ev):

   -33.4751 -33.4749  -0.6301  -0.3073   1.0293   1.4007   2.4867   2.6471
     4.8008   4.9935   8.3690   9.4023   9.9159  10.4973  10.6202  11.6039
    11.6760  12.6397  13.1118  13.3713  13.9504  14.2555  14.4988

     the Fermi energy is    12.8444 ev

!    total energy              =     -95.53279512 Ry
     estimated scf accuracy    <          1.0E-10 Ry
     smearing contrib. (-TS)   =      -0.00214140 Ry
     internal energy E=F+TS    =     -95.53065372 Ry

     The total energy is F=E-TS. E is the sum of the following terms:
     one-electron contribution =      29.47621738 Ry
     hartree contribution      =       6.99493036 Ry
     xc contribution           =     -33.53402432 Ry
     ewald contribution        =     -98.46777714 Ry

     convergence has been achieved in   9 iterations

     Forces acting on atoms (cartesian axes, Ry/au):

     atom    1 type  1   force =     0.00000000    0.00000000    0.00000000
     atom    2 type  1   force =     0.00000000    0.00000000    0.00000000
     atom    3 type  2   force =    -0.00000000   -0.15467989   -0.06927367
     atom    4 type  2   force =     0.15467989    0.00000000   -0.06927367
     atom    5 type  2   force =    -0.00000000    0.15467989   -0.06927367
     atom    6 type  2   force =    -0.15467989    0.00000000   -0.06927367
     atom    7 type  2   force =     0.00000000    0.15467989    0.06927367
     atom    8 type  2   force =     0.15467989    0.00000000    0.06927367
     atom    9 type  2   force =    -0.00000000   -0.15467989    0.06927367
     atom   10 type  2   force =    -0.15467989   -0.00000000    0.06927367
     The non-local contrib.  to forces
     atom    1 type  1   force =     0.00000000    0.00000000   -0.00000000
     atom    2 type  1   force =     0.00000000    0.00000000    0.00000000
     atom    3 type  2   force =     0.00000000   -0.11897436   -0.10903542
     atom    4 type  2   force =     0.11897436    0.00000000   -0.10903542
     atom    5 type  2   force =     0.00000000    0.11897436   -0.10903542
     atom    6 type  2   force =    -0.11897436    0.00000000   -0.10903542
     atom    7 type  2   force =     0.00000000    0.11897436    0.10903542
     atom    8 type  2   force =     0.11897436    0.00000000    0.10903542
     atom    9 type  2   force =     0.00000000   -0.11897436    0.10903542
     atom   10 type  2   force =    -0.11897436    0.00000000    0.10903542
     The ionic contribution  to forces
     atom    1 type  1   force =     0.00000000    0.00000000    0.00000000
     atom    2 type  1   force =    -0.00000000   -0.00000000    0.00000000
     atom    3 type  2   force =     0.00000000   -0.79322814   -0.25595670
     atom    4 type  2   force =     0.79322814    0.00000000   -0.25595670
     atom    5 type  2   force =    -0.00000000    0.79322814   -0.25595670
     atom    6 type  2   force =    -0.79322814   -0.00000000   -0.25595670
     atom    7 type  2   force =    -0.00000000    0.79322814    0.25595670
     atom    8 type  2   force =     0.79322814    0.00000000    0.25595670
     atom    9 type  2   force =    -0.00000000   -0.79322814    0.25595670
     atom   10 type  2   force =    -0.79322814   -0.00000000    0.25595670
     The local contribution  to forces
     atom    1 type  1   force =     0.00000000    0.00000000    0.00000000
     atom    2 type  1   force =     0.00000000    0.00000000    0.00000000
     atom    3 type  2   force =     0.00000000    0.74488611    0.28916947
     atom    4 type  2   force =    -0.74488611    0.00000000    0.28916947
     atom    5 type  2   force =    -0.00000000   -0.74488611    0.28916947
     atom    6 type  2   force =     0.74488611   -0.00000000    0.28916947
     atom    7 type  2   force =    -0.00000000   -0.74488611   -0.28916947
     atom    8 type  2   force =    -0.74488611    0.00000000   -0.28916947
     atom    9 type  2   force =     0.00000000    0.74488611   -0.28916947
     atom   10 type  2   force =     0.74488611   -0.00000000   -0.28916947
     The core correction contribution to forces
     atom    1 type  1   force =     0.00000000    0.00000000    0.00000000
     atom    2 type  1   force =     0.00000000    0.00000000    0.00000000
     atom    3 type  2   force =    -0.00000000    0.01263228    0.00654916
     atom    4 type  2   force =    -0.01263228   -0.00000000    0.00654916
     atom    5 type  2   force =     0.00000000   -0.01263228    0.00654916
     atom    6 type  2   force =     0.01263228    0.00000000    0.00654916
     atom    7 type  2   force =     0.00000000   -0.01263228   -0.00654916
     atom    8 type  2   force =    -0.01263228   -0.00000000   -0.00654916
     atom    9 type  2   force =    -0.00000000    0.01263228   -0.00654916
     atom   10 type  2   force =     0.01263228    0.00000000   -0.00654916
     The Hubbard contrib.    to forces
     atom    1 type  1   force =     0.00000000    0.00000000    0.00000000
     atom    2 type  1   force =     0.00000000    0.00000000    0.00000000
     atom    3 type  2   force =     0.00000000    0.00000000    0.00000000
     atom    4 type  2   force =     0.00000000    0.00000000    0.00000000
     atom    5 type  2   force =     0.00000000    0.00000000    0.00000000
     atom    6 type  2   force =     0.00000000    0.00000000    0.00000000
     atom    7 type  2   force =     0.00000000    0.00000000    0.00000000
     atom    8 type  2   force =     0.00000000    0.00000000    0.00000000
     atom    9 type  2   force =     0.00000000    0.00000000    0.00000000
     atom   10 type  2   force =     0.00000000    0.00000000    0.00000000
     The SCF correction term to forces
     atom    1 type  1   force =     0.00000000    0.00000000    0.00000000
     atom    2 type  1   force =    -0.00000000   -0.00000000    0.00000000
     atom    3 type  2   force =    -0.00000000    0.00000422   -0.00000019
     atom    4 type  2   force =    -0.00000422    0.00000000   -0.00000019
     atom    5 type  2   force =     0.00000000   -0.00000422   -0.00000019
     atom    6 type  2   force =     0.00000422   -0.00000000   -0.00000019
     atom    7 type  2   force =     0.00000000   -0.00000422    0.00000019
     atom    8 type  2   force =    -0.00000422    0.00000000    0.00000019
     atom    9 type  2   force =    -0.00000000    0.00000422    0.00000019
     atom   10 type  2   force =     0.00000422   -0.00000000    0.00000019

     Total force =     0.479372     Total SCF correction =     0.000012


     Computing stress (Cartesian axis) and pressure

          total   stress  (Ry/bohr**3)                   (kbar)     P=      610.30
   0.00449866   0.00000000   0.00000000          661.78        0.00        0.00
   0.00000000   0.00449866   0.00000000            0.00      661.78        0.00
   0.00000000   0.00000000   0.00344886            0.00        0.00      507.35

     Energy error            =      1.5E-01 Ry
     Gradient error          =      1.5E-01 Ry/Bohr
     Cell gradient error     =      1.6E+02 kbar

     number of scf cycles    =   3
     number of bfgs steps    =   2

     enthalpy           old  =     -92.9102802468 Ry
     enthalpy           new  =     -93.0560883827 Ry

     CASE: enthalpy          _new < enthalpy          _old

     new trust radius        =       0.1093098188 bohr
ibrav =      6
 celldm(1) =      9.91503697
 celldm(3) =      0.77349788
Input lattice vectors:
     0.99562466     0.00000000     0.00000000
     0.00000000     0.99562466     0.00000000
     0.00000000     0.00000000     0.77011357
New lattice vectors in INITIAL alat:
     0.99562466     0.00000000     0.00000000
     0.00000000     0.99562466     0.00000000
     0.00000000     0.00000000     0.77011357
New lattice vectors in NEW alat (for information only):
     1.00000000     0.00000000     0.00000000
     0.00000000     1.00000000     0.00000000
     0.00000000     0.00000000     0.77349788
Discrepancy in bohr =     0.000000    0.000000    0.000000
     new conv_thr            =       0.0000000015 Ry

     new unit-cell volume =    753.94930 a.u.^3 (   111.72376 Ang^3 )
     density =      3.54578 g/cm^3

CELL_PARAMETERS (alat=  9.95860925)
   0.995624662   0.000000000   0.000000000
   0.000000000   0.995624662   0.000000000
   0.000000000   0.000000000   0.770113567

ATOMIC_POSITIONS (crystal)
Li            0.0000000000        0.0000000000        0.5000000000
Li            0.5000000000        0.5000000000        0.0000000000
Si           -0.0000000000        0.2954982778        0.1712479907
Si            0.2045017222        0.5000000000        0.6712479907
Si           -0.0000000000        0.7045017222        0.1712479907
Si            0.7954982778        0.5000000000        0.6712479907
Si            0.5000000000        0.2045017222        0.3287520093
Si            0.7045017222        0.0000000000        0.8287520093
Si            0.5000000000        0.7954982778        0.3287520093
Si            0.2954982778       -0.0000000000        0.8287520093



     Writing config-only to output data dir ./output/LiSi.save/
     NEW-OLD atomic charge density approx. for the potential
     extrapolated charge   39.27352, renormalised to   38.00000

     total cpu time spent up to now is       38.4 secs

     Self-consistent Calculation

     iteration #  1     ecut=    60.00 Ry     beta= 0.80
     Davidson diagonalization with overlap
     c_bands:  1 eigenvalues not converged
     c_bands:  1 eigenvalues not converged
     c_bands:  1 eigenvalues not converged
     ethr =  1.00E-06,  avg # of iterations = 15.4

     total cpu time spent up to now is       40.8 secs

     total energy              =     -95.71866867 Ry
     estimated scf accuracy    <       0.01819797 Ry

     iteration #  2     ecut=    60.00 Ry     beta= 0.80
     Davidson diagonalization with overlap
     ethr =  4.79E-05,  avg # of iterations =  3.2

     total cpu time spent up to now is       41.6 secs

     total energy              =     -95.72805178 Ry
     estimated scf accuracy    <       0.01600374 Ry

     iteration #  3     ecut=    60.00 Ry     beta= 0.80
     Davidson diagonalization with overlap
     ethr =  4.21E-05,  avg # of iterations =  1.9

     total cpu time spent up to now is       42.2 secs

     total energy              =     -95.73009712 Ry
     estimated scf accuracy    <       0.00062851 Ry

     iteration #  4     ecut=    60.00 Ry     beta= 0.80
     Davidson diagonalization with overlap
     ethr =  1.65E-06,  avg # of iterations =  4.3

     total cpu time spent up to now is       43.1 secs

     total energy              =     -95.73026566 Ry
     estimated scf accuracy    <       0.00006242 Ry

     iteration #  5     ecut=    60.00 Ry     beta= 0.80
     Davidson diagonalization with overlap
     ethr =  1.64E-07,  avg # of iterations =  3.2

     total cpu time spent up to now is       43.8 secs

     total energy              =     -95.73026593 Ry
     estimated scf accuracy    <       0.00002000 Ry

     iteration #  6     ecut=    60.00 Ry     beta= 0.80
     Davidson diagonalization with overlap
     ethr =  5.26E-08,  avg # of iterations =  2.7

     total cpu time spent up to now is       44.5 secs

     total energy              =     -95.73027129 Ry
     estimated scf accuracy    <       0.00000037 Ry

     iteration #  7     ecut=    60.00 Ry     beta= 0.80
     Davidson diagonalization with overlap
     ethr =  9.75E-10,  avg # of iterations =  5.8

     total cpu time spent up to now is       45.5 secs

     total energy              =     -95.73027152 Ry
     estimated scf accuracy    <       0.00000075 Ry

     iteration #  8     ecut=    60.00 Ry     beta= 0.80
     Davidson diagonalization with overlap
     ethr =  9.75E-10,  avg # of iterations =  2.1

     total cpu time spent up to now is       46.1 secs

     total energy              =     -95.73027160 Ry
     estimated scf accuracy    <       0.00000003 Ry

     iteration #  9     ecut=    60.00 Ry     beta= 0.80
     Davidson diagonalization with overlap
     ethr =  8.89E-11,  avg # of iterations =  4.2

     total cpu time spent up to now is       47.0 secs

     total energy              =     -95.73027162 Ry
     estimated scf accuracy    <          2.8E-09 Ry

     iteration # 10     ecut=    60.00 Ry     beta= 0.80
     Davidson diagonalization with overlap
     ethr =  7.48E-12,  avg # of iterations =  3.1

     total cpu time spent up to now is       47.7 secs

     End of self-consistent calculation

          k = 0.0000 0.0000 0.0000 (  5739 PWs)   bands (ev):

   -33.9677 -33.9672  -3.1535  -0.0624   2.1821   2.1821   3.7705   5.1753
     6.3358   6.4108   7.1316   7.4084   7.4084   8.1244   8.6961  10.2667
    10.2667  10.7655  10.7655  11.0133  12.9347  14.3911  15.1310

          k = 0.0000 0.0000 0.2597 (  5766 PWs)   bands (ev):

   -33.9685 -33.9673  -2.8229   0.2789   1.9603   2.5234   2.5234   5.2424
     5.2817   6.3701   7.4610   7.5042   7.5042   7.8459   7.8459   8.9402
    10.3712  11.7570  12.3249  12.3453  12.3453  12.3825  14.4445

          k = 0.0000 0.0000 0.5194 (  5758 PWs)   bands (ev):

   -33.9678 -33.9673  -1.8364  -0.2150   1.2983   2.9805   3.5356   3.5356
     5.2662   5.2662   5.6283   6.1064   8.4489   8.7392   8.7392   9.9910
    10.0925  10.4307  10.4307  10.4652  13.2559  15.9957  17.0968

          k = 0.0000 0.2009 0.0000 (  5757 PWs)   bands (ev):

   -33.9676 -33.9675  -2.9779  -0.6489   2.3879   2.4132   4.5251   5.2028
     5.3621   5.4495   6.5547   7.6344   8.1430   8.8917   9.4600  10.2461
    10.4545  10.6532  10.9244  12.4788  12.5348  13.2577  13.6224

          k = 0.0000 0.2009 0.2597 (  5759 PWs)   bands (ev):

   -33.9682 -33.9675  -2.6471  -0.3102   2.0193   2.7289   3.0819   4.6670
     5.4202   5.7828   5.8812   7.7945   7.9252   9.0257   9.1013   9.7968
    10.7281  10.7758  11.1792  11.4582  13.2613  13.8464  13.9289

          k = 0.0000 0.2009 0.5194 (  5754 PWs)   bands (ev):

   -33.9679 -33.9674  -1.6613  -0.0632   0.7446   2.4074   3.7402   3.8020
     5.0435   5.4633   6.2507   6.5694   6.7975   8.4669   8.9351   9.2997
    10.7864  10.8291  12.0150  12.3810  13.3697  14.9410  15.7442

          k = 0.0000 0.4018 0.0000 (  5722 PWs)   bands (ev):

   -33.9673 -33.9671  -2.4601  -1.6378   3.0040   3.0042   3.9411   4.0272
     5.7337   5.8441   6.8651   6.8726   7.8655   9.7147  10.5672  10.8254
    10.9363  11.2596  11.5951  11.9620  12.4770  12.8369  12.9752

          k = 0.0000 0.4018 0.2597 (  5742 PWs)   bands (ev):

   -33.9677 -33.9674  -2.1285  -1.3043   2.5548   3.3441   3.4912   3.8016
     4.3650   4.5448   7.4816   8.2338   8.3868   9.1574   9.3628  10.1304
    10.4551  10.7042  11.8418  12.3464  12.7617  14.4196  14.5715

          k = 0.0000 0.4018 0.5194 (  5762 PWs)   bands (ev):

   -33.9680 -33.9677  -1.1478  -0.3592   0.5947   1.4099   4.2305   4.3521
     4.6864   5.3569   6.0946   6.8400   6.9979   7.0824   9.4588  10.5162
    11.1488  12.7065  13.2716  13.6880  13.7124  14.2605  14.6690

          k = 0.2009 0.2009 0.0000 (  5751 PWs)   bands (ev):

   -33.9677 -33.9676  -2.8087  -0.8838   1.4872   3.6667   3.7810   4.8939
     5.5267   6.7492   6.9839   7.3759   7.8196   8.0368   9.3563   9.9638
    11.0812  11.2217  11.8221  12.1976  12.7464  12.9677  13.3801

          k = 0.2009 0.2009 0.2597 (  5763 PWs)   bands (ev):

   -33.9680 -33.9677  -2.4773  -0.5392   1.5942   2.7628   3.8868   4.1208
     4.5264   6.2878   6.6041   7.7483   8.1189   8.7238   9.1982   9.8779
    10.9258  11.1886  11.6169  12.3434  12.7017  13.1764  14.0770

          k = 0.2009 0.2009 0.5194 (  5754 PWs)   bands (ev):

   -33.9680 -33.9672  -1.4905   0.1098   0.4900   2.1893   2.8827   3.9726
     5.1229   5.5182   6.1434   6.7984   7.8406   7.9583   9.1646  10.0679
    10.5897  10.7444  12.6243  13.4064  13.8214  15.1196  15.1220

          k = 0.2009 0.4018 0.0000 (  5730 PWs)   bands (ev):

   -33.9677 -33.9674  -2.3172  -1.5815   1.5777   2.3877   4.8325   5.8302
     5.8635   6.0649   6.9424   7.0220   7.9878   9.4322   9.4690   9.6270
    10.2390  11.0968  11.4448  12.6554  12.9517  13.1449  13.4385

          k = 0.2009 0.4018 0.2597 (  5744 PWs)   bands (ev):

   -33.9677 -33.9674  -1.9836  -1.2427   1.7594   2.6047   3.2178   3.9002
     5.2366   6.1236   7.1764   7.2214   8.5718   9.7692   9.9924  10.1034
    10.4549  11.2362  11.4294  12.3602  13.2883  13.4963  13.9633

          k = 0.2009 0.4018 0.5194 (  5757 PWs)   bands (ev):

   -33.9679 -33.9674  -0.9956  -0.2580   0.6712   1.4646   2.8490   3.3022
     5.0641   5.4350   6.3837   7.2382   8.0554   8.5383   9.9153  10.5968
    10.9661  12.3322  12.7722  13.5124  13.9549  14.3034  14.6824

          k = 0.4018 0.4018 0.0000 (  5758 PWs)   bands (ev):

   -33.9680 -33.9679  -1.9453  -1.6003   0.8999   1.2673   6.1070   6.2034
     6.7456   7.0968   7.3234   7.6760   8.3832   8.5656   8.7423   9.0202
     9.3058  10.3933  10.9324  10.9724  12.5090  13.0537  15.0761

          k = 0.4018 0.4018 0.2597 (  5749 PWs)   bands (ev):

   -33.9679 -33.9674  -1.6052  -1.2537   1.1348   1.5174   3.5356   3.8484
     6.1653   6.4485   7.0992   8.1714   9.2343   9.3252  10.2908  10.5772
    11.0204  11.0558  11.4123  12.1348  12.3095  12.6670  13.4571

          k = 0.4018 0.4018 0.5194 (  5755 PWs)   bands (ev):

   -33.9678 -33.9676  -0.5946  -0.2182   0.9835   1.4926   2.0250   2.0938
     4.4947   4.6791   8.0568   9.0066   9.5611   9.8545  10.2250  11.1636
    11.2334  12.0995  12.4803  12.6572  13.3694  13.5575  13.6591

     the Fermi energy is    12.3535 ev

!    total energy              =     -95.73027162 Ry
     estimated scf accuracy    <          1.6E-10 Ry
     smearing contrib. (-TS)   =      -0.00373996 Ry
     internal energy E=F+TS    =     -95.72653166 Ry

     The total energy is F=E-TS. E is the sum of the following terms:
     one-electron contribution =      28.57575745 Ry
     hartree contribution      =       6.80483040 Ry
     xc contribution           =     -33.22825314 Ry
     ewald contribution        =     -97.87886638 Ry

     convergence has been achieved in  10 iterations

     Forces acting on atoms (cartesian axes, Ry/au):

     atom    1 type  1   force =     0.00000000    0.00000000    0.00000000
     atom    2 type  1   force =     0.00000000    0.00000000    0.00000000
     atom    3 type  2   force =     0.00000000   -0.04627957   -0.06699867
     atom    4 type  2   force =     0.04627957    0.00000000   -0.06699867
     atom    5 type  2   force =    -0.00000000    0.04627957   -0.06699867
     atom    6 type  2   force =    -0.04627957    0.00000000   -0.06699867
     atom    7 type  2   force =     0.00000000    0.04627957    0.06699867
     atom    8 type  2   force =     0.04627957   -0.00000000    0.06699867
     atom    9 type  2   force =    -0.00000000   -0.04627957    0.06699867
     atom   10 type  2   force =    -0.04627957    0.00000000    0.06699867
     The non-local contrib.  to forces
     atom    1 type  1   force =     0.00000000    0.00000000    0.00000000
     atom    2 type  1   force =     0.00000000    0.00000000   -0.00000000
     atom    3 type  2   force =     0.00000000   -0.03321929   -0.10717720
     atom    4 type  2   force =     0.03321929   -0.00000000   -0.10717720
     atom    5 type  2   force =     0.00000000    0.03321929   -0.10717720
     atom    6 type  2   force =    -0.03321929    0.00000000   -0.10717720
     atom    7 type  2   force =     0.00000000    0.03321929    0.10717720
     atom    8 type  2   force =     0.03321929    0.00000000    0.10717720
     atom    9 type  2   force =     0.00000000   -0.03321929    0.10717720
     atom   10 type  2   force =    -0.03321929    0.00000000    0.10717720
     The ionic contribution  to forces
     atom    1 type  1   force =     0.00000000    0.00000000    0.00000000
     atom    2 type  1   force =     0.00000000    0.00000000   -0.00000000
     atom    3 type  2   force =    -0.00000000   -0.45295239   -0.21222760
     atom    4 type  2   force =     0.45295239    0.00000000   -0.21222760
     atom    5 type  2   force =     0.00000000    0.45295239   -0.21222760
     atom    6 type  2   force =    -0.45295239    0.00000000   -0.21222760
     atom    7 type  2   force =     0.00000000    0.45295239    0.21222760
     atom    8 type  2   force =     0.45295239    0.00000000    0.21222760
     atom    9 type  2   force =     0.00000000   -0.45295239    0.21222760
     atom   10 type  2   force =    -0.45295239   -0.00000000    0.21222760
     The local contribution  to forces
     atom    1 type  1   force =    -0.00000000   -0.00000000    0.00000000
     atom    2 type  1   force =    -0.00000000   -0.00000000    0.00000000
     atom    3 type  2   force =     0.00000000    0.43395412    0.24619405
     atom    4 type  2   force =    -0.43395412    0.00000000    0.24619405
     atom    5 type  2   force =    -0.00000000   -0.43395412    0.24619405
     atom    6 type  2   force =     0.43395412   -0.00000000    0.24619405
     atom    7 type  2   force =     0.00000000   -0.43395412   -0.24619405
     atom    8 type  2   force =    -0.43395412    0.00000000   -0.24619405
     atom    9 type  2   force =    -0.00000000    0.43395412   -0.24619405
     atom   10 type  2   force =     0.43395412   -0.00000000   -0.24619405
     The core correction contribution to forces
     atom    1 type  1   force =     0.00000000    0.00000000    0.00000000
     atom    2 type  1   force =     0.00000000    0.00000000    0.00000000
     atom    3 type  2   force =     0.00000000    0.00594388    0.00621242
     atom    4 type  2   force =    -0.00594388   -0.00000000    0.00621242
     atom    5 type  2   force =    -0.00000000   -0.00594388    0.00621242
     atom    6 type  2   force =     0.00594388    0.00000000    0.00621242
     atom    7 type  2   force =    -0.00000000   -0.00594388   -0.00621242
     atom    8 type  2   force =    -0.00594388   -0.00000000   -0.00621242
     atom    9 type  2   force =    -0.00000000    0.00594388   -0.00621242
     atom   10 type  2   force =     0.00594388    0.00000000   -0.00621242
     The Hubbard contrib.    to forces
     atom    1 type  1   force =     0.00000000    0.00000000    0.00000000
     atom    2 type  1   force =     0.00000000    0.00000000    0.00000000
     atom    3 type  2   force =     0.00000000    0.00000000    0.00000000
     atom    4 type  2   force =     0.00000000    0.00000000    0.00000000
     atom    5 type  2   force =     0.00000000    0.00000000    0.00000000
     atom    6 type  2   force =     0.00000000    0.00000000    0.00000000
     atom    7 type  2   force =     0.00000000    0.00000000    0.00000000
     atom    8 type  2   force =     0.00000000    0.00000000    0.00000000
     atom    9 type  2   force =     0.00000000    0.00000000    0.00000000
     atom   10 type  2   force =     0.00000000    0.00000000    0.00000000
     The SCF correction term to forces
     atom    1 type  1   force =     0.00000000    0.00000000   -0.00000000
     atom    2 type  1   force =    -0.00000000    0.00000000   -0.00000000
     atom    3 type  2   force =    -0.00000000   -0.00000589   -0.00000034
     atom    4 type  2   force =     0.00000589    0.00000000   -0.00000034
     atom    5 type  2   force =    -0.00000000    0.00000589   -0.00000034
     atom    6 type  2   force =    -0.00000589    0.00000000   -0.00000034
     atom    7 type  2   force =     0.00000000    0.00000589    0.00000034
     atom    8 type  2   force =     0.00000589   -0.00000000    0.00000034
     atom    9 type  2   force =     0.00000000   -0.00000589    0.00000034
     atom   10 type  2   force =    -0.00000589    0.00000000    0.00000034

     Total force =     0.230315     Total SCF correction =     0.000017


     Computing stress (Cartesian axis) and pressure

          total   stress  (Ry/bohr**3)                   (kbar)     P=      462.30
   0.00308730   0.00000000   0.00000000          454.16        0.00        0.00
   0.00000000   0.00308730   0.00000000            0.00      454.16        0.00
   0.00000000   0.00000000   0.00325335            0.00        0.00      478.58

     Energy error            =      1.1E-01 Ry
     Gradient error          =      6.7E-02 Ry/Bohr
     Cell gradient error     =      4.6E+01 kbar

     number of scf cycles    =   4
     number of bfgs steps    =   3

     enthalpy           old  =     -93.0560883827 Ry
     enthalpy           new  =     -93.1676500289 Ry

     CASE: enthalpy          _new < enthalpy          _old

     new trust radius        =       0.2428602824 bohr
ibrav =      6
 celldm(1) =      9.90244015
 celldm(3) =      0.77629526
Input lattice vectors:
     0.99435974     0.00000000     0.00000000
     0.00000000     0.99435974     0.00000000
     0.00000000     0.00000000     0.77191676
New lattice vectors in INITIAL alat:
     0.99435974     0.00000000     0.00000000
     0.00000000     0.99435974     0.00000000
     0.00000000     0.00000000     0.77191676
New lattice vectors in NEW alat (for information only):
     1.00000000     0.00000000     0.00000000
     0.00000000     1.00000000     0.00000000
     0.00000000     0.00000000     0.77629526
Discrepancy in bohr =     0.000000    0.000000    0.000000
     new conv_thr            =       0.0000000007 Ry

     new unit-cell volume =    753.79563 a.u.^3 (   111.70099 Ang^3 )
     density =      3.54651 g/cm^3

CELL_PARAMETERS (alat=  9.95860925)
   0.994359744   0.000000000   0.000000000
   0.000000000   0.994359744   0.000000000
   0.000000000   0.000000000   0.771916759

ATOMIC_POSITIONS (crystal)
Li            0.0000000000        0.0000000000        0.5000000000
Li            0.5000000000        0.5000000000        0.0000000000
Si           -0.0000000000        0.2896031724        0.1405120867
Si            0.2103968276        0.5000000000        0.6405120867
Si           -0.0000000000        0.7103968276        0.1405120867
Si            0.7896031724        0.5000000000        0.6405120867
Si            0.5000000000        0.2103968276        0.3594879133
Si            0.7103968276        0.0000000000        0.8594879133
Si            0.5000000000        0.7896031724        0.3594879133
Si            0.2896031724       -0.0000000000        0.8594879133



     Writing config-only to output data dir ./output/LiSi.save/
     NEW-OLD atomic charge density approx. for the potential
     extrapolated charge   37.99226, renormalised to   38.00000

     total cpu time spent up to now is       50.6 secs

     Self-consistent Calculation

     iteration #  1     ecut=    60.00 Ry     beta= 0.80
     Davidson diagonalization with overlap
     c_bands:  1 eigenvalues not converged
     c_bands:  1 eigenvalues not converged
     c_bands:  1 eigenvalues not converged
     c_bands:  1 eigenvalues not converged
     ethr =  1.00E-06,  avg # of iterations = 15.7

     total cpu time spent up to now is       53.1 secs

     total energy              =     -95.84976034 Ry
     estimated scf accuracy    <       0.01621181 Ry

     iteration #  2     ecut=    60.00 Ry     beta= 0.80
     Davidson diagonalization with overlap
     ethr =  4.27E-05,  avg # of iterations =  2.3

     total cpu time spent up to now is       53.8 secs

     total energy              =     -95.85345796 Ry
     estimated scf accuracy    <       0.00559838 Ry

     iteration #  3     ecut=    60.00 Ry     beta= 0.80
     Davidson diagonalization with overlap
     ethr =  1.47E-05,  avg # of iterations =  2.0

     total cpu time spent up to now is       54.5 secs

     total energy              =     -95.85460717 Ry
     estimated scf accuracy    <       0.00010483 Ry

     iteration #  4     ecut=    60.00 Ry     beta= 0.80
     Davidson diagonalization with overlap
     ethr =  2.76E-07,  avg # of iterations =  4.7

     total cpu time spent up to now is       55.3 secs

     total energy              =     -95.85464569 Ry
     estimated scf accuracy    <       0.00000515 Ry

     iteration #  5     ecut=    60.00 Ry     beta= 0.80
     Davidson diagonalization with overlap
     ethr =  1.35E-08,  avg # of iterations =  4.2

     total cpu time spent up to now is       56.0 secs

     total energy              =     -95.85464688 Ry
     estimated scf accuracy    <       0.00000050 Ry

     iteration #  6     ecut=    60.00 Ry     beta= 0.80
     Davidson diagonalization with overlap
     ethr =  1.32E-09,  avg # of iterations =  3.7

     total cpu time spent up to now is       56.7 secs

     total energy              =     -95.85464703 Ry
     estimated scf accuracy    <          2.7E-09 Ry

     iteration #  7     ecut=    60.00 Ry     beta= 0.80
     Davidson diagonalization with overlap
     ethr =  7.18E-12,  avg # of iterations =  6.8

     total cpu time spent up to now is       57.8 secs

     total energy              =     -95.85464703 Ry
     estimated scf accuracy    <          2.9E-09 Ry

     iteration #  8     ecut=    60.00 Ry     beta= 0.80
     Davidson diagonalization with overlap
     ethr =  7.18E-12,  avg # of iterations =  2.1

     total cpu time spent up to now is       58.5 secs

     End of self-consistent calculation

          k = 0.0000 0.0000 0.0000 (  5739 PWs)   bands (ev):

   -33.9276 -33.9272  -3.1128   0.3407   2.1461   2.1461   2.9706   5.1409
     6.0171   6.7244   7.0249   7.3880   7.3880   8.7037   8.9347  10.2211
    10.2211  10.6597  10.6597  10.8601  13.3834  14.4265  15.5244

          k = 0.0000 0.0000 0.2591 (  5766 PWs)   bands (ev):

   -33.9284 -33.9273  -2.7923   0.6810   1.6811   2.4834   2.4834   4.8751
     5.6623   5.9089   7.2011   7.2011   7.3499   8.1419   8.1419   9.1559
    10.4341  12.0533  12.1800  12.3180  12.3180  12.8640  14.3930

          k = 0.0000 0.0000 0.5182 (  5758 PWs)   bands (ev):

   -33.9278 -33.9272  -1.8395  -0.2928   1.6974   3.3748   3.4837   3.4837
     5.1209   5.1674   5.1674   5.5618   8.3234   8.8641   8.8641   9.9396
    10.2678  10.5052  10.5052  10.7311  13.4615  16.4601  16.8023

          k = 0.0000 0.2011 0.0000 (  5757 PWs)   bands (ev):

   -33.9275 -33.9274  -2.9281  -0.3816   2.1925   2.3516   4.0945   4.9074
     5.3295   5.4010   6.8739   8.0650   8.2942   8.8297   9.3037  10.1888
    10.4773  10.5983  10.8138  12.4898  12.7118  13.4359  13.5346

          k = 0.0000 0.2011 0.2591 (  5759 PWs)   bands (ev):

   -33.9281 -33.9274  -2.6078  -0.0549   1.7388   2.6883   3.1850   4.6350
     5.3850   5.5298   5.7128   7.7106   8.0699   8.8555   9.2218   9.8325
    10.6312  10.9237  11.4127  11.6689  13.2346  13.7336  14.1293

          k = 0.0000 0.2011 0.5182 (  5754 PWs)   bands (ev):

   -33.9278 -33.9273  -1.6580  -0.1514   1.0318   2.6523   3.6859   3.7322
     4.7383   5.3404   5.9298   6.5974   6.8136   8.4216   8.8263   9.4158
    10.7853  11.1539  12.2103  12.3525  13.5726  14.6688  16.0611

          k = 0.0000 0.4023 0.0000 (  5722 PWs)   bands (ev):

   -33.9272 -33.9271  -2.3800  -1.4949   2.7182   2.9667   3.6462   3.9867
     5.7554   5.8531   6.8178   7.1462   8.0506   9.6476  10.5828  10.6868
    10.8429  11.1063  11.5916  11.9646  12.3510  12.9362  13.0759

          k = 0.0000 0.4023 0.2591 (  5742 PWs)   bands (ev):

   -33.9277 -33.9274  -2.0601  -1.1753   2.3081   3.2930   3.3012   3.9405
[...]
     atomic species   valence    mass     pseudopotential
        Li             3.00     6.94100     Li( 1.00)
        Si             4.00    28.08550     Si( 1.00)

     16 Sym. Ops., with inversion, found ( 8 have fractional translation)



   Cartesian axes

     site n.     atom                  positions (alat units)
         1           Li  tau(   1) = (   0.0000000   0.0000000   0.3743403  )
         2           Li  tau(   2) = (   0.5005936   0.5005936   0.0000000  )
         3           Si  tau(   3) = (  -0.0000000   0.2951746   0.0383623  )
         4           Si  tau(   4) = (   0.2054191   0.5005936   0.4127027  )
         5           Si  tau(   5) = (  -0.0000000   0.7060127   0.0383623  )
         6           Si  tau(   6) = (   0.7957682   0.5005936   0.4127027  )
         7           Si  tau(   7) = (   0.5005936   0.2054191   0.3359780  )
         8           Si  tau(   8) = (   0.7060127  -0.0000000   0.7103184  )
         9           Si  tau(   9) = (   0.5005936   0.7957682   0.3359780  )
        10           Si  tau(  10) = (   0.2951746  -0.0000000   0.7103184  )

     number of k points=    18  Marzari-Vanderbilt smearing, width (Ry)=  0.0200
                       cart. coord. in units 2pi/alat
        k(    1) = (   0.0000000   0.0000000   0.0000000), wk =   0.0160000
        k(    2) = (   0.0000000   0.0000000   0.2671366), wk =   0.0320000
        k(    3) = (   0.0000000   0.0000000   0.5342732), wk =   0.0320000
        k(    4) = (   0.0000000   0.1997628   0.0000000), wk =   0.0640000
        k(    5) = (   0.0000000   0.1997628   0.2671366), wk =   0.1280000
        k(    6) = (   0.0000000   0.1997628   0.5342732), wk =   0.1280000
        k(    7) = (   0.0000000   0.3995256   0.0000000), wk =   0.0640000
        k(    8) = (   0.0000000   0.3995256   0.2671366), wk =   0.1280000
        k(    9) = (   0.0000000   0.3995256   0.5342732), wk =   0.1280000
        k(   10) = (   0.1997628   0.1997628   0.0000000), wk =   0.0640000
        k(   11) = (   0.1997628   0.1997628   0.2671366), wk =   0.1280000
        k(   12) = (   0.1997628   0.1997628   0.5342732), wk =   0.1280000
        k(   13) = (   0.1997628   0.3995256   0.0000000), wk =   0.1280000
        k(   14) = (   0.1997628   0.3995256   0.2671366), wk =   0.2560000
        k(   15) = (   0.1997628   0.3995256   0.5342732), wk =   0.2560000
        k(   16) = (   0.3995256   0.3995256   0.0000000), wk =   0.0640000
        k(   17) = (   0.3995256   0.3995256   0.2671366), wk =   0.1280000
        k(   18) = (   0.3995256   0.3995256   0.5342732), wk =   0.1280000

     Dense  grid:    46545 G-vectors     FFT dimensions: (  50,  50,  40)

     Estimated max dynamical RAM per process >      21.29 MB

     Estimated total dynamical RAM >     170.33 MB

     Initial potential from superposition of free atoms

     starting charge      37.9860, renormalised to      38.0000
     Starting wfcs are   36 randomized atomic wfcs

     total cpu time spent up to now is      142.7 secs

     Self-consistent Calculation

     iteration #  1     ecut=    60.00 Ry     beta= 0.80
     Davidson diagonalization with overlap
     c_bands:  1 eigenvalues not converged
     c_bands:  1 eigenvalues not converged
     c_bands:  1 eigenvalues not converged
     c_bands:  2 eigenvalues not converged
     c_bands:  1 eigenvalues not converged
     c_bands:  1 eigenvalues not converged
     c_bands:  2 eigenvalues not converged
     c_bands:  2 eigenvalues not converged
     c_bands:  4 eigenvalues not converged
     c_bands:  2 eigenvalues not converged
     c_bands:  2 eigenvalues not converged
     c_bands:  3 eigenvalues not converged
     ethr =  1.00E-06,  avg # of iterations = 19.4

     total cpu time spent up to now is      145.4 secs

     total energy              =     -95.89510218 Ry
     estimated scf accuracy    <       0.08882459 Ry

     iteration #  2     ecut=    60.00 Ry     beta= 0.80
     Davidson diagonalization with overlap
     ethr =  2.34E-04,  avg # of iterations =  2.0

     total cpu time spent up to now is      146.0 secs

     total energy              =     -95.90355452 Ry
     estimated scf accuracy    <       0.00371636 Ry

     iteration #  3     ecut=    60.00 Ry     beta= 0.80
     Davidson diagonalization with overlap
     c_bands:  1 eigenvalues not converged
     ethr =  9.78E-06,  avg # of iterations =  4.3

     total cpu time spent up to now is      146.8 secs

     total energy              =     -95.90429362 Ry
     estimated scf accuracy    <       0.00007972 Ry

     iteration #  4     ecut=    60.00 Ry     beta= 0.80
     Davidson diagonalization with overlap
     ethr =  2.10E-07,  avg # of iterations =  4.8

     total cpu time spent up to now is      147.6 secs

     total energy              =     -95.90433518 Ry
     estimated scf accuracy    <       0.00000576 Ry

     iteration #  5     ecut=    60.00 Ry     beta= 0.80
     Davidson diagonalization with overlap
     ethr =  1.51E-08,  avg # of iterations =  4.0

     total cpu time spent up to now is      148.3 secs

     total energy              =     -95.90433740 Ry
     estimated scf accuracy    <       0.00000168 Ry

     iteration #  6     ecut=    60.00 Ry     beta= 0.80
     Davidson diagonalization with overlap
     ethr =  4.41E-09,  avg # of iterations =  2.1

     total cpu time spent up to now is      149.0 secs

     total energy              =     -95.90433776 Ry
     estimated scf accuracy    <       0.00000002 Ry

     iteration #  7     ecut=    60.00 Ry     beta= 0.80
     Davidson diagonalization with overlap
     ethr =  4.13E-11,  avg # of iterations =  5.4

     total cpu time spent up to now is      149.9 secs

     total energy              =     -95.90433777 Ry
     estimated scf accuracy    <          4.8E-09 Ry

     iteration #  8     ecut=    60.00 Ry     beta= 0.80
     Davidson diagonalization with overlap
     ethr =  1.26E-11,  avg # of iterations =  2.1

     total cpu time spent up to now is      150.5 secs

     End of self-consistent calculation

          k = 0.0000 0.0000 0.0000 (  5819 PWs)   bands (ev):

   -33.6787 -33.6775  -3.2829  -0.0092   2.0880   2.0880   2.5060   5.2855
     5.2918   6.8726   7.0894   7.0894   7.5864   8.5642   9.4448  10.7186
    10.7186  10.9371  10.9371  11.7727  13.8768  14.5390  15.1335

          k = 0.0000 0.0000 0.2671 (  5866 PWs)   bands (ev):

   -33.6786 -33.6785  -2.9482   0.3520   1.5085   2.4408   2.4408   4.7359
     5.2215   5.6449   6.9587   6.9587   7.2090   8.4523   8.4523  10.0459
    11.2885  12.0531  12.6218  12.7102  12.7102  13.5868  14.0770

          k = 0.0000 0.0000 0.5343 (  5834 PWs)   bands (ev):

   -33.6781 -33.6776  -1.9585  -0.3787   1.4303   3.2086   3.4877   3.4877
     4.7450   5.0110   5.1767   5.1767   8.2123   8.9071   8.9071   9.8583
    10.5566  10.5566  11.0274  11.4709  14.7474  16.3726  16.3726

          k = 0.0000 0.1998 0.0000 (  5839 PWs)   bands (ev):

   -33.6790 -33.6778  -3.1012  -0.6394   1.8462   2.2880   3.8533   4.3429
     5.2493   5.4683   7.5106   8.2260   8.3095   8.9632   8.9704  10.6103
    10.7201  10.9982  11.1160  13.1089  13.1335  13.1436  14.0397

          k = 0.0000 0.1998 0.2671 (  5815 PWs)   bands (ev):

   -33.6783 -33.6776  -2.7668  -0.2939   1.4979   2.6395   3.1742   4.2333
     5.2427   5.3438   5.5520   7.8618   8.1868   8.6048   9.7519  10.0504
    10.7422  11.6806  11.9696  12.1580  13.1204  13.9003  14.4639

          k = 0.0000 0.1998 0.5343 (  5815 PWs)   bands (ev):

   -33.6777 -33.6775  -1.7812  -0.2574   0.8670   2.5582   3.5466   3.6798
     4.3243   5.2978   5.6288   6.4953   6.8776   8.4679   8.9114   9.7746
    10.6605  11.7543  12.2536  12.6466  14.4506  14.7964  16.0831

          k = 0.0000 0.3995 0.0000 (  5800 PWs)   bands (ev):

   -33.6782 -33.6777  -2.5630  -1.6995   2.2813   2.8863   3.1565   3.8774
     5.7835   5.9781   6.8337   7.5886   8.5750   9.5908  10.6028  10.6835
    10.9467  11.4994  11.8275  12.1220  12.1643  12.8607  12.8690

          k = 0.0000 0.3995 0.2671 (  5812 PWs)   bands (ev):

   -33.6781 -33.6777  -2.2292  -1.3653   2.0219   2.9658   3.2333   3.9519
     4.2135   4.6399   6.9060   8.3309   8.4852   9.4436   9.7851   9.8826
    11.1395  11.4113  12.0558  12.0841  13.5653  13.7217  14.2497

          k = 0.0000 0.3995 0.5343 (  5818 PWs)   bands (ev):

   -33.6778 -33.6775  -1.2644  -0.5075   0.6438   1.4564   3.7519   4.0242
     4.2442   5.0720   6.3383   6.9539   7.1568   7.2001   9.5982  10.0316
    11.5293  12.6408  12.9540  13.9333  14.1068  14.5485  15.3946

          k = 0.1998 0.1998 0.0000 (  5821 PWs)   bands (ev):

   -33.6785 -33.6778  -2.9235  -0.8436   0.9618   3.1214   3.6762   4.2274
     5.6377   6.3608   7.3462   7.4334   8.3477   8.7735   9.7327   9.7650
    10.9925  11.3577  11.9814  12.0651  12.5741  13.7336  14.2861

          k = 0.1998 0.1998 0.2671 (  5811 PWs)   bands (ev):

   -33.6779 -33.6779  -2.5887  -0.4804   0.9762   2.9445   3.2586   4.0229
     4.8326   5.6749   6.3716   7.6616   7.7641   9.2752   9.5052  10.6425
    10.6816  11.9372  12.4445  12.5535  12.9215  13.1138  13.7435

          k = 0.1998 0.1998 0.5343 (  5818 PWs)   bands (ev):

   -33.6778 -33.6775  -1.6050  -0.0981   0.6037   2.3908   2.6347   3.2673
     5.0480   5.7838   5.8793   6.6654   7.1292   7.7989   9.3142  10.6006
    10.8992  11.1707  12.7973  14.0511  14.5644  14.7558  14.9043

          k = 0.1998 0.3995 0.0000 (  5808 PWs)   bands (ev):

   -33.6782 -33.6779  -2.4029  -1.6049   1.0532   1.8767   4.5006   5.4504
     5.9633   6.1358   6.9298   7.6882   8.5982   9.1476   9.4373   9.7498
    10.5352  11.0138  11.4042  12.4863  13.1300  13.2993  14.0936

          k = 0.1998 0.3995 0.2671 (  5818 PWs)   bands (ev):

   -33.6780 -33.6780  -2.0664  -1.2604   1.1711   2.0311   3.4596   4.1853
     5.0657   5.8377   6.8811   7.3422   8.5430   9.0987  10.2025  10.8215
    10.8374  11.7983  11.8606  12.4936  12.9007  13.6474  14.2294

          k = 0.1998 0.3995 0.5343 (  5819 PWs)   bands (ev):

   -33.6777 -33.6776  -1.0927  -0.3365   0.6182   1.5000   2.5229   2.7650
     5.4708   5.5225   6.2823   6.7172   8.0622   8.1704  10.1049  10.2881
    11.6571  12.3449  12.4100  13.6287  14.6415  14.7218  15.0735

          k = 0.3995 0.3995 0.0000 (  5820 PWs)   bands (ev):

   -33.6784 -33.6782  -1.9706  -1.5579   0.3008   0.7218   6.4227   6.4934
     6.5353   7.0660   7.1438   7.5848   8.5042   8.5267   8.9581   9.0127
     9.4134  10.1987  10.6011  10.7523  14.1063  14.3526  15.2711

          k = 0.3995 0.3995 0.2671 (  5805 PWs)   bands (ev):

   -33.6781 -33.6776  -1.6230  -1.1929   0.4755   0.9225   3.8329   4.1628
     6.2547   6.4837   6.8585   7.7946   8.7002   8.9655  10.3532  10.7789
    11.0227  11.2326  11.5302  11.5903  13.2713  13.6833  14.3389

          k = 0.3995 0.3995 0.5343 (  5828 PWs)   bands (ev):

   -33.6778 -33.6777  -0.6138  -0.1030   0.5880   1.3486   1.6950   1.7978
     4.9103   5.0287   7.7842   8.4187   8.9453   9.0065  10.4951  11.3554
    11.8240  11.9382  12.7928  12.8477  12.9634  13.3681  14.3495

     the Fermi energy is    12.4151 ev

!    total energy              =     -95.90433777 Ry
     estimated scf accuracy    <          2.0E-11 Ry
     smearing contrib. (-TS)   =       0.00002061 Ry
     internal energy E=F+TS    =     -95.90435838 Ry

     The total energy is F=E-TS. E is the sum of the following terms:
     one-electron contribution =      29.77371330 Ry
     hartree contribution      =       6.41327384 Ry
     xc contribution           =     -33.53616094 Ry
     ewald contribution        =     -98.55518457 Ry

     convergence has been achieved in   8 iterations

     Forces acting on atoms (cartesian axes, Ry/au):

     atom    1 type  1   force =     0.00000000    0.00000000    0.00000000
     atom    2 type  1   force =     0.00000000    0.00000000   -0.00000000
     atom    3 type  2   force =     0.00000000    0.00031328   -0.00010713
     atom    4 type  2   force =    -0.00031328    0.00000000   -0.00010713
     atom    5 type  2   force =     0.00000000   -0.00031328   -0.00010713
     atom    6 type  2   force =     0.00031328    0.00000000   -0.00010713
     atom    7 type  2   force =     0.00000000   -0.00031328    0.00010713
     atom    8 type  2   force =    -0.00031328    0.00000000    0.00010713
     atom    9 type  2   force =     0.00000000    0.00031328    0.00010713
     atom   10 type  2   force =     0.00031328   -0.00000000    0.00010713
     The non-local contrib.  to forces
     atom    1 type  1   force =     0.00000000    0.00000000   -0.00000000
     atom    2 type  1   force =     0.00000000    0.00000000    0.00000000
     atom    3 type  2   force =     0.00000000    0.02087051   -0.00756609
     atom    4 type  2   force =    -0.02087051   -0.00000000   -0.00756609
     atom    5 type  2   force =    -0.00000000   -0.02087051   -0.00756609
     atom    6 type  2   force =     0.02087051    0.00000000   -0.00756609
     atom    7 type  2   force =     0.00000000   -0.02087051    0.00756609
     atom    8 type  2   force =    -0.02087051    0.00000000    0.00756609
     atom    9 type  2   force =     0.00000000    0.02087051    0.00756609
     atom   10 type  2   force =     0.02087051    0.00000000    0.00756609
     The ionic contribution  to forces
     atom    1 type  1   force =    -0.00000000   -0.00000000    0.00000000
     atom    2 type  1   force =     0.00000000    0.00000000   -0.00000000
     atom    3 type  2   force =    -0.00000000   -0.19155506    0.06986698
     atom    4 type  2   force =     0.19155506    0.00000000    0.06986698
     atom    5 type  2   force =     0.00000000    0.19155506    0.06986698
     atom    6 type  2   force =    -0.19155506    0.00000000    0.06986698
     atom    7 type  2   force =     0.00000000    0.19155506   -0.06986698
     atom    8 type  2   force =     0.19155506   -0.00000000   -0.06986698
     atom    9 type  2   force =     0.00000000   -0.19155506   -0.06986698
     atom   10 type  2   force =    -0.19155506   -0.00000000   -0.06986698
     The local contribution  to forces
     atom    1 type  1   force =    -0.00000000   -0.00000000    0.00000000
     atom    2 type  1   force =     0.00000000    0.00000000   -0.00000000
     atom    3 type  2   force =    -0.00000000    0.17085472   -0.06195051
     atom    4 type  2   force =    -0.17085472   -0.00000000   -0.06195051
     atom    5 type  2   force =     0.00000000   -0.17085472   -0.06195051
     atom    6 type  2   force =     0.17085472    0.00000000   -0.06195051
     atom    7 type  2   force =     0.00000000   -0.17085472    0.06195051
     atom    8 type  2   force =    -0.17085472   -0.00000000    0.06195051
     atom    9 type  2   force =    -0.00000000    0.17085472    0.06195051
     atom   10 type  2   force =     0.17085472    0.00000000    0.06195051
     The core correction contribution to forces
     atom    1 type  1   force =     0.00000000    0.00000000    0.00000000
     atom    2 type  1   force =     0.00000000    0.00000000    0.00000000
     atom    3 type  2   force =    -0.00000000    0.00014503   -0.00045753
     atom    4 type  2   force =    -0.00014503   -0.00000000   -0.00045753
     atom    5 type  2   force =     0.00000000   -0.00014503   -0.00045753
     atom    6 type  2   force =     0.00014503   -0.00000000   -0.00045753
     atom    7 type  2   force =    -0.00000000   -0.00014503    0.00045753
     atom    8 type  2   force =    -0.00014503   -0.00000000    0.00045753
     atom    9 type  2   force =    -0.00000000    0.00014503    0.00045753
     atom   10 type  2   force =     0.00014503    0.00000000    0.00045753
     The Hubbard contrib.    to forces
     atom    1 type  1   force =     0.00000000    0.00000000    0.00000000
     atom    2 type  1   force =     0.00000000    0.00000000    0.00000000
     atom    3 type  2   force =     0.00000000    0.00000000    0.00000000
     atom    4 type  2   force =     0.00000000    0.00000000    0.00000000
     atom    5 type  2   force =     0.00000000    0.00000000    0.00000000
     atom    6 type  2   force =     0.00000000    0.00000000    0.00000000
     atom    7 type  2   force =     0.00000000    0.00000000    0.00000000
     atom    8 type  2   force =     0.00000000    0.00000000    0.00000000
     atom    9 type  2   force =     0.00000000    0.00000000    0.00000000
     atom   10 type  2   force =     0.00000000    0.00000000    0.00000000
     The SCF correction term to forces
     atom    1 type  1   force =     0.00000000    0.00000000    0.00000000
     atom    2 type  1   force =     0.00000000    0.00000000    0.00000000
     atom    3 type  2   force =     0.00000000   -0.00000192    0.00000002
     atom    4 type  2   force =     0.00000192   -0.00000000    0.00000002
     atom    5 type  2   force =    -0.00000000    0.00000192    0.00000002
     atom    6 type  2   force =    -0.00000192    0.00000000    0.00000002
     atom    7 type  2   force =    -0.00000000    0.00000192   -0.00000002
     atom    8 type  2   force =     0.00000192   -0.00000000   -0.00000002
     atom    9 type  2   force =     0.00000000   -0.00000192   -0.00000002
     atom   10 type  2   force =    -0.00000192    0.00000000   -0.00000002

     Total force =     0.000936     Total SCF correction =     0.000005


     Computing stress (Cartesian axis) and pressure

          total   stress  (Ry/bohr**3)                   (kbar)     P=      499.21
   0.00338858   0.00000000   0.00000000          498.48        0.00        0.00
   0.00000000   0.00338858   0.00000000            0.00      498.48        0.00
   0.00000000   0.00000000   0.00340346            0.00        0.00      500.67


     Writing all to output data dir ./output/LiSi.save/

     init_run     :      1.53s CPU      2.19s WALL (       2 calls)
     electrons    :    101.52s CPU    107.38s WALL (      15 calls)
     update_pot   :      6.59s CPU      6.71s WALL (      13 calls)
     forces       :      5.72s CPU      5.88s WALL (      15 calls)
     stress       :     28.91s CPU     29.98s WALL (      15 calls)

     Called by init_run:
     wfcinit      :      0.61s CPU      0.64s WALL (       2 calls)
     potinit      :      0.50s CPU      0.83s WALL (       2 calls)
     hinit0       :      0.36s CPU      0.54s WALL (       2 calls)

     Called by electrons:
     c_bands      :     92.09s CPU     95.40s WALL (     115 calls)
     sum_band     :      7.63s CPU      8.53s WALL (     115 calls)
     v_of_rho     :      1.71s CPU      3.39s WALL (     128 calls)
     mix_rho      :      0.23s CPU      0.39s WALL (     115 calls)

     Called by c_bands:
     init_us_2    :      1.79s CPU      2.06s WALL (    4716 calls)
     init_us_2:cp :      1.78s CPU      2.05s WALL (    4716 calls)
     cegterg      :     85.53s CPU     87.79s WALL (    2070 calls)

     Called by *egterg:
     cdiaghg      :      8.00s CPU      8.29s WALL (   11506 calls)
     h_psi        :     63.67s CPU     65.35s WALL (   11812 calls)
     g_psi        :      0.35s CPU      0.36s WALL (    9706 calls)

     Called by h_psi:
     h_psi:calbec :     10.94s CPU     11.16s WALL (   11812 calls)
     vloc_psi     :     44.73s CPU     46.03s WALL (   11812 calls)
     add_vuspsi   :      7.72s CPU      7.85s WALL (   11812 calls)

     General routines
     calbec       :     13.35s CPU     13.61s WALL (   13162 calls)
     fft          :      1.82s CPU      4.08s WALL (    1655 calls)
     ffts         :      0.06s CPU      0.20s WALL (     115 calls)
     fftw         :     44.36s CPU     45.63s WALL (  392714 calls)

     Parallel routines

     PWSCF        :   2m24.73s CPU   2m33.05s WALL


   This run was terminated on:  11:12:11  22Jan2025            

=------------------------------------------------------------------------------=
   JOB DONE.
=------------------------------------------------------------------------------=
