
     Program PWSCF v.7.2 starts on 29Dec2024 at 20:17:33 

     This program is part of the open-source Quantum ESPRESSO suite
     for quantum simulation of materials; please cite
         "P. Giannozzi et al., J. Phys.:Condens. Matter 21 395502 (2009);
         "P. Giannozzi et al., J. Phys.:Condens. Matter 29 465901 (2017);
         "P. Giannozzi et al., J. Chem. Phys. 152 154105 (2020);
          URL http://www.quantum-espresso.org", 
     in publications or presentations arising from this work. More details at
     http://www.quantum-espresso.org/quote

     Parallel version (MPI & OpenMP), running on       8 processor cores
     Number of MPI processes:                 8
     Threads/MPI process:                     1

     MPI processes distributed on     1 nodes
     482665 MiB available memory on the printing compute node when the environment starts

     Waiting for input...
     Reading input from standard input

     Current dimensions of program PWSCF are:
     Max number of different atomic species (ntypx) = 10
     Max number of k-points (npk) =  40000
     Max angular momentum in pseudopotentials (lmaxx) =  4

     R & G space division:  proc/nbgrp/npool/nimage =       8
     Subspace diagonalization in iterative solution of the eigenvalue problem:
     a serial algorithm will be used


     Parallelization info
     --------------------
     sticks:   dense  smooth     PW     G-vecs:    dense   smooth      PW
     Min         121     121     35                 4579     4579     708
     Max         122     122     37                 4586     4586     711
     Sum         973     973    285                36669    36669    5675

     Using Slab Decomposition



     bravais-lattice index     =            6
     lattice parameter (alat)  =       6.2002  a.u.
     unit-cell volume          =     379.3339 (a.u.)^3
     number of atoms/cell      =            5
     number of atomic types    =            2
     number of electrons       =        19.00
     number of Kohn-Sham states=           14
     kinetic-energy cutoff     =      80.0000  Ry
     charge density cutoff     =     320.0000  Ry
     scf convergence threshold =      1.0E-08
     mixing beta               =       0.7000
     number of iterations used =            8  plain     mixing
     energy convergence thresh.=      1.0E-04
     force convergence thresh. =      1.0E-03
     press convergence thresh. =      1.0E+00
     Exchange-correlation= PBE
                           (   1   4   3   4   0   0   0)
     nstep                     =           50


     celldm(1)=   6.200236  celldm(2)=   0.000000  celldm(3)=   1.591465
     celldm(4)=   0.000000  celldm(5)=   0.000000  celldm(6)=   0.000000

     crystal axes: (cart. coord. in units of alat)
               a(1) = (   1.000000   0.000000   0.000000 )  
               a(2) = (   0.000000   1.000000   0.000000 )  
               a(3) = (   0.000000   0.000000   1.591465 )  

     reciprocal axes: (cart. coord. in units 2 pi/alat)
               b(1) = (  1.000000  0.000000  0.000000 )  
               b(2) = (  0.000000  1.000000  0.000000 )  
               b(3) = (  0.000000  0.000000  0.628352 )  


     PseudoPot. # 1 for Li read from file:
     ../pseudo/Li_ONCV_PBE_sr.upf
     MD5 check sum: 50ff420e78310ffa21704f3361e624a4
     Pseudo is Norm-conserving, Zval =  3.0
     Generated using ONCVPSP code by D. R. Hamann
     Using radial grid of 1944 points,  4 beta functions with: 
                l(1) =   0
                l(2) =   0
                l(3) =   1
                l(4) =   1

     PseudoPot. # 2 for Si read from file:
     ../pseudo/Si_ONCV_PBE_sr.upf
     MD5 check sum: e543d271109d17c80368dfa7c482276d
     Pseudo is Norm-conserving + core correction, Zval =  4.0
     Generated using ONCVPSP code by D. R. Hamann
     Using radial grid of 1510 points,  6 beta functions with: 
                l(1) =   0
                l(2) =   0
                l(3) =   1
                l(4) =   1
                l(5) =   2
                l(6) =   2

     atomic species   valence    mass     pseudopotential
        Li             3.00     6.94100     Li( 1.00)
        Si             4.00    28.08550     Si( 1.00)

     16 Sym. Ops., with inversion, found



   Cartesian axes

     site n.     atom                  positions (alat units)
         1           Li  tau(   1) = (   0.0000000   0.0000000   0.0000000  )
         2           Si  tau(   2) = (   0.0000000   0.5000000   0.7957323  )
         3           Si  tau(   3) = (   0.5000000   0.0000000   0.7957323  )
         4           Si  tau(   4) = (   0.5000000   0.5000000   0.3264762  )
         5           Si  tau(   5) = (   0.5000000   0.5000000   1.2649884  )

     number of k points=    30  Marzari-Vanderbilt smearing, width (Ry)=  0.0200
                       cart. coord. in units 2pi/alat
        k(    1) = (   0.0000000   0.0000000   0.0000000), wk =   0.0081633
        k(    2) = (   0.0000000   0.0000000   0.1256704), wk =   0.0163265
        k(    3) = (   0.0000000   0.0000000   0.2513408), wk =   0.0163265
        k(    4) = (   0.0000000   0.1428571   0.0000000), wk =   0.0326531
        k(    5) = (   0.0000000   0.1428571   0.1256704), wk =   0.0653061
        k(    6) = (   0.0000000   0.1428571   0.2513408), wk =   0.0653061
        k(    7) = (   0.0000000   0.2857143   0.0000000), wk =   0.0326531
        k(    8) = (   0.0000000   0.2857143   0.1256704), wk =   0.0653061
        k(    9) = (   0.0000000   0.2857143   0.2513408), wk =   0.0653061
        k(   10) = (   0.0000000   0.4285714   0.0000000), wk =   0.0326531
        k(   11) = (   0.0000000   0.4285714   0.1256704), wk =   0.0653061
        k(   12) = (   0.0000000   0.4285714   0.2513408), wk =   0.0653061
        k(   13) = (   0.1428571   0.1428571   0.0000000), wk =   0.0326531
        k(   14) = (   0.1428571   0.1428571   0.1256704), wk =   0.0653061
        k(   15) = (   0.1428571   0.1428571   0.2513408), wk =   0.0653061
        k(   16) = (   0.1428571   0.2857143   0.0000000), wk =   0.0653061
        k(   17) = (   0.1428571   0.2857143   0.1256704), wk =   0.1306122
        k(   18) = (   0.1428571   0.2857143   0.2513408), wk =   0.1306122
        k(   19) = (   0.1428571   0.4285714   0.0000000), wk =   0.0653061
        k(   20) = (   0.1428571   0.4285714   0.1256704), wk =   0.1306122
        k(   21) = (   0.1428571   0.4285714   0.2513408), wk =   0.1306122
        k(   22) = (   0.2857143   0.2857143   0.0000000), wk =   0.0326531
        k(   23) = (   0.2857143   0.2857143   0.1256704), wk =   0.0653061
        k(   24) = (   0.2857143   0.2857143   0.2513408), wk =   0.0653061
        k(   25) = (   0.2857143   0.4285714   0.0000000), wk =   0.0653061
        k(   26) = (   0.2857143   0.4285714   0.1256704), wk =   0.1306122
        k(   27) = (   0.2857143   0.4285714   0.2513408), wk =   0.1306122
        k(   28) = (   0.4285714   0.4285714   0.0000000), wk =   0.0326531
        k(   29) = (   0.4285714   0.4285714   0.1256704), wk =   0.0653061
        k(   30) = (   0.4285714   0.4285714   0.2513408), wk =   0.0653061

     Dense  grid:    36669 G-vectors     FFT dimensions: (  36,  36,  60)

     Estimated max dynamical RAM per process >      19.28 MB

     Estimated total dynamical RAM >     154.26 MB

     Initial potential from superposition of free atoms

     starting charge      18.9930, renormalised to      19.0000
     Starting wfcs are   18 randomized atomic wfcs

     total cpu time spent up to now is        1.3 secs

     Self-consistent Calculation

     iteration #  1     ecut=    80.00 Ry     beta= 0.70
     Davidson diagonalization with overlap
     ethr =  1.00E-02,  avg # of iterations =  6.2

     Threshold (ethr) on eigenvalues was too large:
     Diagonalizing with lowered threshold

     Davidson diagonalization with overlap
     ethr =  3.54E-04,  avg # of iterations =  3.5

     total cpu time spent up to now is        2.4 secs

     total energy              =     -47.89621811 Ry
     estimated scf accuracy    <       0.07177358 Ry

     iteration #  2     ecut=    80.00 Ry     beta= 0.70
     Davidson diagonalization with overlap
     ethr =  3.78E-04,  avg # of iterations =  2.4

     total cpu time spent up to now is        2.9 secs

     total energy              =     -47.90367701 Ry
     estimated scf accuracy    <       0.01778365 Ry

     iteration #  3     ecut=    80.00 Ry     beta= 0.70
     Davidson diagonalization with overlap
     ethr =  9.36E-05,  avg # of iterations =  2.7

     total cpu time spent up to now is        3.4 secs

     total energy              =     -47.90606322 Ry
     estimated scf accuracy    <       0.02117167 Ry

     iteration #  4     ecut=    80.00 Ry     beta= 0.70
     Davidson diagonalization with overlap
     ethr =  9.36E-05,  avg # of iterations =  2.2

     total cpu time spent up to now is        3.8 secs

     total energy              =     -47.90996567 Ry
     estimated scf accuracy    <       0.00048510 Ry

     iteration #  5     ecut=    80.00 Ry     beta= 0.70
     Davidson diagonalization with overlap
     c_bands:  1 eigenvalues not converged
     ethr =  2.55E-06,  avg # of iterations =  6.7

     total cpu time spent up to now is        4.4 secs

     total energy              =     -47.91004758 Ry
     estimated scf accuracy    <       0.00001253 Ry

     iteration #  6     ecut=    80.00 Ry     beta= 0.70
     Davidson diagonalization with overlap
     ethr =  6.59E-08,  avg # of iterations =  3.2

     total cpu time spent up to now is        4.9 secs

     total energy              =     -47.91005213 Ry
     estimated scf accuracy    <       0.00000031 Ry

     iteration #  7     ecut=    80.00 Ry     beta= 0.70
     Davidson diagonalization with overlap
     ethr =  1.64E-09,  avg # of iterations =  3.5

     total cpu time spent up to now is        5.4 secs

     total energy              =     -47.91005228 Ry
     estimated scf accuracy    <       0.00000002 Ry

     iteration #  8     ecut=    80.00 Ry     beta= 0.70
     Davidson diagonalization with overlap
     ethr =  8.61E-11,  avg # of iterations =  2.7

     total cpu time spent up to now is        5.9 secs

     End of self-consistent calculation

          k = 0.0000 0.0000 0.0000 (  4605 PWs)   bands (ev):

   -34.0833  -4.4477   1.5690   2.7288   7.2015   7.2015  10.4368  10.4710
    13.1366  13.1366  13.9975  14.1091  14.1091  15.1009

          k = 0.0000 0.0000 0.1257 (  4564 PWs)   bands (ev):

   -34.0833  -4.3695   0.5236   4.2294   7.2718   7.2718  10.4337  10.5943
    12.0692  12.0692  12.6992  13.5943  15.6521  15.6521

          k = 0.0000 0.0000 0.2513 (  4588 PWs)   bands (ev):

   -34.0833  -4.2263  -0.3237   6.3869   7.3998   7.3998   9.9236  10.4587
    10.8516  11.2490  11.2490  12.9689  17.3248  17.9091

          k = 0.0000 0.1429 0.0000 (  4585 PWs)   bands (ev):

   -34.0825  -4.1986   1.8156   2.8751   5.2047   7.4210  10.5552  10.8232
    12.7535  12.9017  13.3338  14.3185  15.4883  15.7006

          k = 0.0000 0.1429 0.1257 (  4591 PWs)   bands (ev):

   -34.0825  -4.1187   0.7382   4.3878   5.2766   7.4911   9.9552  10.8091
    12.2787  12.6752  12.9631  14.3357  15.2756  15.7871

          k = 0.0000 0.1429 0.2513 (  4580 PWs)   bands (ev):

   -34.0825  -3.9717  -0.1174   5.3631   6.5176   7.6187   9.3020  10.1944
    10.8980  11.4622  13.1059  14.4046  16.4553  16.5194

          k = 0.0000 0.2857 0.0000 (  4566 PWs)   bands (ev):

   -34.0808  -3.4795   2.4687   2.5337   3.4463   8.0494   8.2773  10.0893
    11.9311  13.8585  13.8672  15.0564  15.6360  16.4843

          k = 0.0000 0.2857 0.1257 (  4580 PWs)   bands (ev):

   -34.0808  -3.3933   1.3265   2.6446   4.9203   7.6533   8.1192  10.9009
    12.0529  12.8526  13.9536  14.1777  15.9780  16.5073

          k = 0.0000 0.2857 0.2513 (  4583 PWs)   bands (ev):

   -34.0808  -3.2327   0.4542   2.7450   6.3755   7.6251   8.2462  10.7844
    11.4973  12.0517  14.0485  14.3816  15.5557  16.7535

          k = 0.0000 0.4286 0.0000 (  4584 PWs)   bands (ev):

   -34.0794  -2.4969   0.5793   3.5502   3.8178   6.3098   8.8728   9.0491
    12.1117  12.5074  14.4558  15.1601  15.8048  17.5241

          k = 0.0000 0.4286 0.1257 (  4587 PWs)   bands (ev):

   -34.0794  -2.3944   0.6247   2.1091   5.4047   6.0490   8.9432  10.0185
    12.1676  12.4640  13.5317  14.7522  15.8816  16.9003

          k = 0.0000 0.4286 0.2513 (  4575 PWs)   bands (ev):

   -34.0794  -2.1973   0.7128   1.1470   5.1227   7.7910   9.0719  11.5215
    11.8943  12.2665  12.7441  13.7199  14.8946  16.0914

          k = 0.1429 0.1429 0.0000 (  4579 PWs)   bands (ev):

   -34.0817  -3.9496   2.0623   3.0345   5.4144   5.4349  10.5980  11.7111
    12.2879  12.3356  13.5377  13.5869  14.7008  16.7143

          k = 0.1429 0.1429 0.1257 (  4588 PWs)   bands (ev):

   -34.0817  -3.8681   0.9550   4.5650   5.4875   5.5035   9.7924  10.8235
    12.7093  12.9662  13.2038  14.2029  14.7593  15.2380

          k = 0.1429 0.1429 0.2513 (  4580 PWs)   bands (ev):

   -34.0817  -3.7177   0.0921   5.5245   5.6717   6.6641   8.9944  10.0362
    10.6745  13.1953  13.3353  14.7430  15.5717  17.0113

          k = 0.1429 0.2857 0.0000 (  4582 PWs)   bands (ev):

   -34.0800  -3.2308   2.7126   2.7809   3.6144   6.0598   8.4662  10.4009
    11.8930  11.9448  13.4589  14.0748  17.1885  17.4955

          k = 0.1429 0.2857 0.1257 (  4574 PWs)   bands (ev):

   -34.0800  -3.1434   1.5527   2.8806   5.1161   6.1272   7.8168  10.8792
    11.3519  12.3669  13.6255  14.4793  15.3630  17.2084

          k = 0.1429 0.2857 0.2513 (  4591 PWs)   bands (ev):

   -34.0800  -2.9803   0.6744   2.9859   6.2657   6.5782   7.6579  10.2840
    10.9919  12.2539  13.6937  14.7177  16.7839  17.0312

          k = 0.1429 0.4286 0.0000 (  4568 PWs)   bands (ev):

   -34.0787  -2.2476   0.8197   3.8013   4.0225   6.5237   6.9489   8.8635
    10.5464  12.5693  13.7410  14.9516  16.7902  17.2961

          k = 0.1429 0.4286 0.1257 (  4578 PWs)   bands (ev):

   -34.0787  -2.1450   0.8682   2.3444   5.6065   6.2235   7.0486   9.5188
    10.9238  11.6445  14.2059  15.4286  15.9461  16.3126

          k = 0.1429 0.4286 0.2513 (  4574 PWs)   bands (ev):

   -34.0787  -1.9476   0.9611   1.3850   5.2753   7.1934   7.9271   9.9355
    10.9028  12.1866  12.7824  14.7445  15.7702  16.0145

          k = 0.2857 0.2857 0.0000 (  4570 PWs)   bands (ev):

   -34.0784  -2.5122   3.3737   3.4815   3.5028   4.1334   8.6337   9.0493
     9.7878  10.8161  11.7694  15.8985  17.7032  17.8276

          k = 0.2857 0.2857 0.1257 (  4584 PWs)   bands (ev):

   -34.0784  -2.4205   2.1859   3.5477   3.5769   5.6619   7.8324   8.7992
     9.5917  12.0671  12.5831  15.2944  15.5780  17.6665

          k = 0.2857 0.2857 0.2513 (  4588 PWs)   bands (ev):

   -34.0784  -2.2478   1.2926   3.6172   3.7592   7.0103   7.1437   8.8842
     9.4953  12.0737  14.2537  14.4799  15.7028  16.8209

          k = 0.2857 0.4286 0.0000 (  4590 PWs)   bands (ev):

   -34.0771  -1.5268   1.5144   4.4146   4.5410   4.5825   7.1100   7.1865
     9.8808  10.0545  11.5546  14.1664  17.2646  18.4684

          k = 0.2857 0.4286 0.1257 (  4585 PWs)   bands (ev):

   -34.0771  -1.4235   1.5736   3.0161   4.5036   6.1633   6.6414   7.3936
     9.2390  10.8647  12.8089  13.9509  16.0552  17.5439

          k = 0.2857 0.4286 0.2513 (  4596 PWs)   bands (ev):

   -34.0770  -1.2242   1.6840   2.0654   4.6684   5.6744   7.4353   7.6829
     9.2222  12.6129  13.1908  13.7851  15.2907  15.7881

          k = 0.4286 0.4286 0.0000 (  4596 PWs)   bands (ev):

   -34.0758  -0.5339   2.4603   2.4729   5.1861   5.4106   5.6558   7.6456
     8.1595   9.8516  10.0634  12.4382  16.5296  19.9528

          k = 0.4286 0.4286 0.1257 (  4601 PWs)   bands (ev):

   -34.0758  -0.4274   2.5460   2.5572   3.9027   5.3933   6.7728   6.8331
     7.9446  11.1265  11.2276  12.3790  16.7973  17.1296

          k = 0.4286 0.4286 0.2513 (  4599 PWs)   bands (ev):

   -34.0758  -0.2200   2.6800   2.7428   2.9626   5.4507   6.0002   6.2717
     9.5188  11.9998  13.3581  13.4680  14.4790  16.6280

     the Fermi energy is    12.2188 ev

!    total energy              =     -47.91005229 Ry
     estimated scf accuracy    <          1.7E-09 Ry
     smearing contrib. (-TS)   =      -0.00145858 Ry
     internal energy E=F+TS    =     -47.90859370 Ry

     The total energy is F=E-TS. E is the sum of the following terms:
     one-electron contribution =      12.78971020 Ry
     hartree contribution      =       3.92352444 Ry
     xc contribution           =     -16.85891417 Ry
     ewald contribution        =     -47.76291418 Ry

     convergence has been achieved in   8 iterations

     Forces acting on atoms (cartesian axes, Ry/au):

     atom    1 type  1   force =     0.00000000    0.00000000    0.00000000
     atom    2 type  2   force =     0.00000000    0.00000000    0.00000000
     atom    3 type  2   force =     0.00000000    0.00000000    0.00000000
     atom    4 type  2   force =     0.00000000    0.00000000   -0.09196981
     atom    5 type  2   force =     0.00000000    0.00000000    0.09196981
     The non-local contrib.  to forces
     atom    1 type  1   force =     0.00000000    0.00000000    0.00000000
     atom    2 type  2   force =     0.00000000    0.00000000    0.00000000
     atom    3 type  2   force =     0.00000000    0.00000000    0.00000000
     atom    4 type  2   force =     0.00000000    0.00000000   -0.07735037
     atom    5 type  2   force =     0.00000000    0.00000000    0.07735037
     The ionic contribution  to forces
     atom    1 type  1   force =     0.00000000    0.00000000   -0.00000000
     atom    2 type  2   force =    -0.00000000    0.00000000    0.00000000
     atom    3 type  2   force =     0.00000000   -0.00000000    0.00000000
     atom    4 type  2   force =     0.00000000    0.00000000   -1.32088852
     atom    5 type  2   force =     0.00000000    0.00000000    1.32088852
     The local contribution  to forces
     atom    1 type  1   force =     0.00000000    0.00000000    0.00000000
     atom    2 type  2   force =    -0.00000000    0.00000000    0.00000000
     atom    3 type  2   force =     0.00000000   -0.00000000    0.00000000
     atom    4 type  2   force =     0.00000000    0.00000000    1.29858569
     atom    5 type  2   force =     0.00000000   -0.00000000   -1.29858569
     The core correction contribution to forces
     atom    1 type  1   force =     0.00000000    0.00000000    0.00000000
     atom    2 type  2   force =     0.00000000   -0.00000000   -0.00000000
     atom    3 type  2   force =    -0.00000000    0.00000000   -0.00000000
     atom    4 type  2   force =     0.00000000    0.00000000    0.00772385
     atom    5 type  2   force =    -0.00000000   -0.00000000   -0.00772385
     The Hubbard contrib.    to forces
     atom    1 type  1   force =     0.00000000    0.00000000    0.00000000
     atom    2 type  2   force =     0.00000000    0.00000000    0.00000000
     atom    3 type  2   force =     0.00000000    0.00000000    0.00000000
     atom    4 type  2   force =     0.00000000    0.00000000    0.00000000
     atom    5 type  2   force =     0.00000000    0.00000000    0.00000000
     The SCF correction term to forces
     atom    1 type  1   force =     0.00000000    0.00000000   -0.00000000
     atom    2 type  2   force =     0.00000000   -0.00000000   -0.00000000
     atom    3 type  2   force =    -0.00000000    0.00000000   -0.00000000
     atom    4 type  2   force =    -0.00000000   -0.00000000   -0.00004046
     atom    5 type  2   force =     0.00000000    0.00000000    0.00004046

     Total force =     0.130065     Total SCF correction =     0.000057


     Computing stress (Cartesian axis) and pressure

          total   stress  (Ry/bohr**3)                   (kbar)     P=      561.80
   0.00356525   0.00000000   0.00000000          524.47        0.00        0.00
   0.00000000   0.00356525   0.00000000            0.00      524.47        0.00
   0.00000000   0.00000000   0.00432652            0.00        0.00      636.45


     BFGS Geometry Optimization
     Energy error            =      0.0E+00 Ry
     Gradient error          =      9.2E-02 Ry/Bohr
     Cell gradient error     =      1.4E+02 kbar

     number of scf cycles    =   1
     number of bfgs steps    =   0

     enthalpy           new  =     -46.6207224699 Ry

     new trust radius        =       0.0919698103 bohr
ibrav =      6
 celldm(1) =      6.22601707
 celldm(3) =      1.62162728
Input lattice vectors:
     1.00415805     0.00000000     0.00000000
     0.00000000     1.00415805     0.00000000
     0.00000000     0.00000000     1.62837008
New lattice vectors in INITIAL alat:
     1.00415805     0.00000000     0.00000000
     0.00000000     1.00415805     0.00000000
     0.00000000     0.00000000     1.62837008
New lattice vectors in NEW alat (for information only):
     1.00000000     0.00000000     0.00000000
     0.00000000     1.00000000     0.00000000
     0.00000000     0.00000000     1.62162728
Discrepancy in bohr =     0.000000    0.000000    0.000000
     new conv_thr            =       0.0000000100 Ry

     new unit-cell volume =    391.36498 a.u.^3 (    57.99431 Ang^3 )
     density =      3.41541 g/cm^3

CELL_PARAMETERS (alat=  6.20023620)
   1.004158046   0.000000000   0.000000000
   0.000000000   1.004158046   0.000000000
   0.000000000   0.000000000   1.628370082

ATOMIC_POSITIONS (crystal)
Li            0.0000000000        0.0000000000        0.0000000000
Si            0.0000000000        0.5000000000        0.5000000000
Si            0.5000000000        0.0000000000        0.5000000000
Si            0.5000000000        0.5000000000        0.1958214815
Si            0.5000000000        0.5000000000        0.8041785185



     Writing config-only to output data dir ./output/LiSi.save/
     NEW-OLD atomic charge density approx. for the potential
     extrapolated charge   19.58387, renormalised to   19.00000

     total cpu time spent up to now is        7.7 secs

     Self-consistent Calculation

     iteration #  1     ecut=    80.00 Ry     beta= 0.70
     Davidson diagonalization with overlap
     c_bands:  1 eigenvalues not converged
     c_bands:  1 eigenvalues not converged
     ethr =  1.00E-06,  avg # of iterations = 11.8

     total cpu time spent up to now is        8.9 secs

     total energy              =     -47.94073170 Ry
     estimated scf accuracy    <       0.03054700 Ry

     iteration #  2     ecut=    80.00 Ry     beta= 0.70
     Davidson diagonalization with overlap
     ethr =  1.61E-04,  avg # of iterations =  3.5

     total cpu time spent up to now is        9.5 secs

     total energy              =     -47.94106201 Ry
     estimated scf accuracy    <       0.18954335 Ry

     iteration #  3     ecut=    80.00 Ry     beta= 0.70
     Davidson diagonalization with overlap
     ethr =  1.61E-04,  avg # of iterations =  2.5

     total cpu time spent up to now is       10.0 secs

     total energy              =     -47.96398703 Ry
     estimated scf accuracy    <       0.00259790 Ry

     iteration #  4     ecut=    80.00 Ry     beta= 0.70
     Davidson diagonalization with overlap
     ethr =  1.37E-05,  avg # of iterations =  3.6

     total cpu time spent up to now is       10.5 secs

     total energy              =     -47.96436995 Ry
     estimated scf accuracy    <       0.00026080 Ry

     iteration #  5     ecut=    80.00 Ry     beta= 0.70
     Davidson diagonalization with overlap
     ethr =  1.37E-06,  avg # of iterations =  3.6

     total cpu time spent up to now is       11.1 secs

     total energy              =     -47.96442337 Ry
     estimated scf accuracy    <       0.00000689 Ry

     iteration #  6     ecut=    80.00 Ry     beta= 0.70
     Davidson diagonalization with overlap
     ethr =  3.63E-08,  avg # of iterations =  3.6

     total cpu time spent up to now is       11.6 secs

     total energy              =     -47.96442675 Ry
     estimated scf accuracy    <       0.00000080 Ry

     iteration #  7     ecut=    80.00 Ry     beta= 0.70
     Davidson diagonalization with overlap
     ethr =  4.21E-09,  avg # of iterations =  1.8

     total cpu time spent up to now is       12.1 secs

     total energy              =     -47.96442675 Ry
     estimated scf accuracy    <       0.00000020 Ry

     iteration #  8     ecut=    80.00 Ry     beta= 0.70
     Davidson diagonalization with overlap
     ethr =  1.04E-09,  avg # of iterations =  2.1

     total cpu time spent up to now is       12.6 secs

     End of self-consistent calculation

          k = 0.0000 0.0000 0.0000 (  4605 PWs)   bands (ev):

   -34.4565  -4.4639   1.2997   2.1100   7.1432   7.1432  10.2470  10.3329
    12.9285  12.9285  13.3937  13.3937  13.7549  14.1797

          k = 0.0000 0.0000 0.1228 (  4564 PWs)   bands (ev):

   -34.4565  -4.3830   0.1769   3.6621   7.2155   7.2155  10.3290  10.3641
    11.7110  11.7110  11.8755  13.3438  15.0650  15.0650

          k = 0.0000 0.0000 0.2456 (  4588 PWs)   bands (ev):

   -34.4565  -4.2328  -0.6678   5.7377   7.3487   7.3487   9.2218  10.3493
    10.6067  10.8926  10.8926  12.7234  16.6983  17.2749

          k = 0.0000 0.1423 0.0000 (  4585 PWs)   bands (ev):

   -34.4558  -4.2148   1.5443   2.2544   5.1301   7.3653  10.3461  10.5844
    12.0746  12.7560  13.1255  13.5970  14.8145  15.1342

          k = 0.0000 0.1423 0.1228 (  4591 PWs)   bands (ev):

   -34.4558  -4.1320   0.3855   3.8247   5.2008   7.4377   9.6366  10.6361
    11.9086  11.9191  12.8355  13.6462  14.9267  15.2121

          k = 0.0000 0.1423 0.2456 (  4580 PWs)   bands (ev):

   -34.4558  -3.9776  -0.4663   5.2698   5.8933   7.5709   8.9410   9.5444
    10.7154  11.1034  12.9551  14.0574  15.7730  16.2906

          k = 0.0000 0.2845 0.0000 (  4566 PWs)   bands (ev):

   -34.4541  -3.4934   2.2112   2.2551   3.0056   8.0054   8.0314   9.5369
    11.6383  13.5727  13.6586  14.4376  15.0032  16.0028

          k = 0.0000 0.2845 0.1228 (  4580 PWs)   bands (ev):

   -34.4541  -3.4037   0.9524   2.5439   4.3987   7.3475   8.0783  10.4653
    11.6850  12.4867  13.3377  13.7567  15.6117  15.9344

          k = 0.0000 0.2845 0.2456 (  4583 PWs)   bands (ev):

   -34.4541  -3.2336   0.0887   2.6516   5.9248   7.1461   8.2127  10.1259
    11.2983  11.6851  13.6371  13.8469  15.1648  16.0505

          k = 0.0000 0.4268 0.0000 (  4584 PWs)   bands (ev):

   -34.4528  -2.4942   0.4490   3.2356   3.2521   6.0783   8.4155   8.8656
    11.8819  12.3317  14.2482  14.8140  15.0694  16.8233

          k = 0.0000 0.4268 0.1228 (  4587 PWs)   bands (ev):

   -34.4528  -2.3859   0.4917   1.7207   4.9827   5.6874   8.9416   9.4043
    11.9333  12.2900  13.1799  14.0895  15.2440  16.4501

          k = 0.0000 0.4268 0.2456 (  4575 PWs)   bands (ev):

   -34.4528  -2.1718   0.5695   0.7752   4.8519   7.1729   9.0834  10.9251
    11.5231  12.0260  12.3698  13.0715  14.1996  15.6630

          k = 0.1423 0.1423 0.0000 (  4579 PWs)   bands (ev):

   -34.4550  -3.9658   1.7890   2.4110   5.3163   5.3859  10.3774  11.4327
    11.7113  11.7902  13.1874  13.3765  14.4847  15.7372

          k = 0.1423 0.1423 0.1228 (  4588 PWs)   bands (ev):

   -34.4550  -3.8812   0.5966   4.0024   5.4053   5.4379   9.5060  10.4060
    12.0396  12.7068  13.1241  13.6128  14.2759  14.7317

          k = 0.1423 0.1423 0.2456 (  4580 PWs)   bands (ev):

   -34.4550  -3.7228  -0.2615   5.4430   5.5749   6.0530   8.7010   9.4709
    10.1683  13.1267  13.1338  14.4569  15.0048  16.2386

          k = 0.1423 0.2845 0.0000 (  4582 PWs)   bands (ev):

   -34.4534  -3.2445   2.4474   2.5005   3.1778   5.9897   8.2233   9.7999
    11.5882  11.6261  12.9134  13.8576  16.4667  16.6947

          k = 0.1423 0.2845 0.1228 (  4574 PWs)   bands (ev):

   -34.4534  -3.1534   1.1732   2.7818   4.5908   6.0555   7.5216  10.4475
    10.9163  12.0301  13.1659  14.0288  14.6434  17.0017

          k = 0.1423 0.2845 0.2456 (  4591 PWs)   bands (ev):

   -34.4534  -2.9802   0.3042   2.8941   6.1196   6.1963   7.2037   9.8466
    10.4550  11.9712  13.3103  14.1789  16.1728  16.3924

          k = 0.1423 0.4268 0.0000 (  4568 PWs)   bands (ev):

   -34.4521  -2.2445   0.6904   3.4367   3.5015   6.2918   6.8896   8.3360
    10.2062  12.3056  13.1137  14.7208  16.4928  16.8274

          k = 0.1423 0.4268 0.1228 (  4578 PWs)   bands (ev):

   -34.4521  -2.1358   0.7361   1.9506   5.1920   5.8515   7.0030   9.1122
    10.4679  11.2788  13.7701  14.9390  15.2662  15.9203

          k = 0.1423 0.4268 0.2456 (  4574 PWs)   bands (ev):

   -34.4521  -1.9207   0.8171   1.0089   5.0031   7.1631   7.3162   9.6692
    10.5189  11.5505  12.1587  14.1601  15.4177  15.5168

          k = 0.2845 0.2845 0.0000 (  4570 PWs)   bands (ev):

   -34.4518  -2.5231   3.0273   3.2156   3.3781   3.8085   8.4132   8.7612
     9.4858  10.1703  11.1657  15.6081  17.4031  17.5243

          k = 0.2845 0.2845 0.1228 (  4584 PWs)   bands (ev):

   -34.4518  -2.4269   1.7859   3.4710   3.4722   5.1602   7.5566   8.4516
     9.3355  11.4579  11.9579  14.5274  15.2095  17.3841

          k = 0.2845 0.2845 0.2456 (  4588 PWs)   bands (ev):

   -34.4518  -2.2418   0.9059   3.5512   3.6534   6.6228   6.7324   8.4693
     9.2237  11.3807  13.5895  13.9609  15.1854  16.2725

          k = 0.2845 0.4268 0.0000 (  4590 PWs)   bands (ev):

   -34.4506  -1.5197   1.3903   3.9502   4.2347   4.3908   6.8782   6.9225
     9.2684   9.7753  10.8926  13.8847  16.5797  17.9964

          k = 0.2845 0.4268 0.1228 (  4585 PWs)   bands (ev):

   -34.4506  -1.4093   1.4465   2.6012   4.4398   5.7608   6.2770   7.1538
     8.8734  10.2503  12.2024  13.6345  15.2496  16.8532

          k = 0.2845 0.4268 0.2456 (  4596 PWs)   bands (ev):

   -34.4506  -1.1893   1.5367   1.6771   4.6107   5.3979   7.2188   7.2380
     8.6940  11.9816  12.5374  13.3435  14.6174  15.0550

          k = 0.4268 0.4268 0.0000 (  4596 PWs)   bands (ev):

   -34.4493  -0.5055   2.3581   2.3725   4.6259   5.1396   5.3283   7.4251
     7.8837   9.2080   9.4183  12.1616  15.8319  19.2190

          k = 0.4268 0.4268 0.1228 (  4601 PWs)   bands (ev):

   -34.4493  -0.3887   2.4427   2.4534   3.4539   5.1547   6.4015   6.5605
     7.4871  10.5140  10.6309  12.0714  16.0182  16.3695

          k = 0.4268 0.4268 0.2456 (  4599 PWs)   bands (ev):

   -34.4493  -0.1511   2.4756   2.6164   2.6370   5.2220   5.7279   5.9581
     8.8995  11.6670  12.6822  12.8115  13.7573  15.8494

     the Fermi energy is    11.8043 ev

!    total energy              =     -47.96442680 Ry
     estimated scf accuracy    <          2.6E-09 Ry
     smearing contrib. (-TS)   =      -0.00089669 Ry
     internal energy E=F+TS    =     -47.96353011 Ry

     The total energy is F=E-TS. E is the sum of the following terms:
     one-electron contribution =      12.43402516 Ry
     hartree contribution      =       3.81373405 Ry
     xc contribution           =     -16.72790510 Ry
     ewald contribution        =     -47.48338423 Ry

     convergence has been achieved in   8 iterations

     Forces acting on atoms (cartesian axes, Ry/au):

     atom    1 type  1   force =     0.00000000    0.00000000    0.00000000
     atom    2 type  2   force =     0.00000000    0.00000000    0.00000000
     atom    3 type  2   force =     0.00000000    0.00000000    0.00000000
     atom    4 type  2   force =     0.00000000    0.00000000   -0.00062693
     atom    5 type  2   force =     0.00000000    0.00000000    0.00062693
     The non-local contrib.  to forces
     atom    1 type  1   force =     0.00000000    0.00000000    0.00000000
     atom    2 type  2   force =     0.00000000    0.00000000    0.00000000
     atom    3 type  2   force =     0.00000000    0.00000000    0.00000000
     atom    4 type  2   force =     0.00000000    0.00000000    0.01405242
     atom    5 type  2   force =     0.00000000    0.00000000   -0.01405242
     The ionic contribution  to forces
     atom    1 type  1   force =     0.00000000    0.00000000   -0.00000000
     atom    2 type  2   force =    -0.00000000    0.00000000   -0.00000000
     atom    3 type  2   force =     0.00000000   -0.00000000   -0.00000000
     atom    4 type  2   force =     0.00000000   -0.00000000   -0.92251219
     atom    5 type  2   force =     0.00000000    0.00000000    0.92251219
     The local contribution  to forces
     atom    1 type  1   force =     0.00000000    0.00000000    0.00000000
     atom    2 type  2   force =    -0.00000000   -0.00000000    0.00000000
     atom    3 type  2   force =    -0.00000000   -0.00000000    0.00000000
     atom    4 type  2   force =     0.00000000    0.00000000    0.90713720
     atom    5 type  2   force =    -0.00000000   -0.00000000   -0.90713720
     The core correction contribution to forces
     atom    1 type  1   force =     0.00000000    0.00000000    0.00000000
     atom    2 type  2   force =    -0.00000000   -0.00000000    0.00000000
     atom    3 type  2   force =    -0.00000000    0.00000000    0.00000000
     atom    4 type  2   force =    -0.00000000   -0.00000000    0.00075094
     atom    5 type  2   force =    -0.00000000   -0.00000000   -0.00075094
     The Hubbard contrib.    to forces
     atom    1 type  1   force =     0.00000000    0.00000000    0.00000000
     atom    2 type  2   force =     0.00000000    0.00000000    0.00000000
     atom    3 type  2   force =     0.00000000    0.00000000    0.00000000
     atom    4 type  2   force =     0.00000000    0.00000000    0.00000000
     atom    5 type  2   force =     0.00000000    0.00000000    0.00000000
     The SCF correction term to forces
     atom    1 type  1   force =    -0.00000000    0.00000000   -0.00000000
     atom    2 type  2   force =     0.00000000   -0.00000000    0.00000000
     atom    3 type  2   force =    -0.00000000    0.00000000    0.00000000
     atom    4 type  2   force =    -0.00000000   -0.00000000   -0.00005530
     atom    5 type  2   force =    -0.00000000    0.00000000    0.00005530

     Total force =     0.000887     Total SCF correction =     0.000078


     Computing stress (Cartesian axis) and pressure

          total   stress  (Ry/bohr**3)                   (kbar)     P=      464.31
   0.00284467   0.00000000   0.00000000          418.46        0.00        0.00
   0.00000000   0.00284467   0.00000000            0.00      418.46        0.00
   0.00000000   0.00000000   0.00377962            0.00        0.00      556.00

     Energy error            =      1.3E-02 Ry
     Gradient error          =      6.3E-04 Ry/Bohr
     Cell gradient error     =      8.2E+01 kbar

     number of scf cycles    =   2
     number of bfgs steps    =   1

     enthalpy           old  =     -46.6207224699 Ry
     enthalpy           new  =     -46.6342042631 Ry

     CASE: enthalpy          _new < enthalpy          _old

     new trust radius        =       0.0696252980 bohr
ibrav =      6
 celldm(1) =      6.14006423
 celldm(3) =      1.67326367
Input lattice vectors:
     0.99029521     0.00000000     0.00000000
     0.00000000     0.99029521     0.00000000
     0.00000000     0.00000000     1.65702500
New lattice vectors in INITIAL alat:
     0.99029521     0.00000000     0.00000000
     0.00000000     0.99029521     0.00000000
     0.00000000     0.00000000     1.65702500
New lattice vectors in NEW alat (for information only):
     1.00000000     0.00000000     0.00000000
     0.00000000     1.00000000     0.00000000
     0.00000000     0.00000000     1.67326367
Discrepancy in bohr =     0.000000    0.000000    0.000000
     new conv_thr            =            1.0E-10 Ry

     new unit-cell volume =    387.33177 a.u.^3 (    57.39665 Ang^3 )
     density =      3.45097 g/cm^3

CELL_PARAMETERS (alat=  6.20023620)
   0.990295214   0.000000000   0.000000000
   0.000000000   0.990295214   0.000000000
   0.000000000   0.000000000   1.657025003

ATOMIC_POSITIONS (crystal)
Li            0.0000000000        0.0000000000        0.0000000000
Si            0.0000000000        0.5000000000        0.5000000000
Si            0.5000000000        0.0000000000        0.5000000000
Si            0.5000000000        0.5000000000        0.1926461297
Si            0.5000000000        0.5000000000        0.8073538703



     Writing config-only to output data dir ./output/LiSi.save/
     NEW-OLD atomic charge density approx. for the potential
     extrapolated charge   18.80223, renormalised to   19.00000

     total cpu time spent up to now is       14.3 secs

     Self-consistent Calculation

     iteration #  1     ecut=    80.00 Ry     beta= 0.70
     Davidson diagonalization with overlap
     ethr =  1.00E-06,  avg # of iterations =  9.5

     total cpu time spent up to now is       15.4 secs

     total energy              =     -47.95870439 Ry
     estimated scf accuracy    <       0.00043346 Ry

     iteration #  2     ecut=    80.00 Ry     beta= 0.70
     Davidson diagonalization with overlap
     ethr =  2.28E-06,  avg # of iterations =  2.4

     total cpu time spent up to now is       15.9 secs

     total energy              =     -47.95879188 Ry
     estimated scf accuracy    <       0.00045035 Ry

     iteration #  3     ecut=    80.00 Ry     beta= 0.70
     Davidson diagonalization with overlap
     ethr =  2.28E-06,  avg # of iterations =  2.0

     total cpu time spent up to now is       16.4 secs

     total energy              =     -47.95888810 Ry
     estimated scf accuracy    <       0.00008215 Ry

     iteration #  4     ecut=    80.00 Ry     beta= 0.70
     Davidson diagonalization with overlap
     ethr =  4.32E-07,  avg # of iterations =  2.0

     total cpu time spent up to now is       16.9 secs

     total energy              =     -47.95890569 Ry
     estimated scf accuracy    <       0.00000544 Ry

     iteration #  5     ecut=    80.00 Ry     beta= 0.70
     Davidson diagonalization with overlap
     ethr =  2.86E-08,  avg # of iterations =  1.7

     total cpu time spent up to now is       17.4 secs

     total energy              =     -47.95890662 Ry
     estimated scf accuracy    <       0.00000002 Ry

     iteration #  6     ecut=    80.00 Ry     beta= 0.70
     Davidson diagonalization with overlap
     ethr =  1.28E-10,  avg # of iterations =  4.9

     total cpu time spent up to now is       18.0 secs

     total energy              =     -47.95890666 Ry
     estimated scf accuracy    <       0.00000003 Ry

     iteration #  7     ecut=    80.00 Ry     beta= 0.70
     Davidson diagonalization with overlap
     ethr =  1.28E-10,  avg # of iterations =  2.1

     total cpu time spent up to now is       18.5 secs

     total energy              =     -47.95890667 Ry
     estimated scf accuracy    <          5.1E-09 Ry

     iteration #  8     ecut=    80.00 Ry     beta= 0.70
     Davidson diagonalization with overlap
     ethr =  2.70E-11,  avg # of iterations =  1.1

     total cpu time spent up to now is       19.0 secs

     total energy              =     -47.95890667 Ry
     estimated scf accuracy    <          5.1E-10 Ry

     iteration #  9     ecut=    80.00 Ry     beta= 0.70
     Davidson diagonalization with overlap
     ethr =  2.70E-12,  avg # of iterations =  2.5

     total cpu time spent up to now is       19.6 secs

     End of self-consistent calculation

          k = 0.0000 0.0000 0.0000 (  4605 PWs)   bands (ev):

   -34.2625  -4.3968   1.2457   2.0423   7.5114   7.5114  10.5965  10.7525
    13.2402  13.2402  13.5340  13.5340  13.9211  14.0983

          k = 0.0000 0.0000 0.1207 (  4564 PWs)   bands (ev):

   -34.2625  -4.3224   0.1734   3.5371   7.5781   7.5781  10.5741  10.8697
    11.5267  12.0054  12.0054  13.6928  15.2117  15.2117

          k = 0.0000 0.0000 0.2414 (  4588 PWs)   bands (ev):

   -34.2625  -4.1855  -0.6318   5.5614   7.6999   7.6999   8.8708  10.6255
    11.1165  11.2213  11.2213  13.0770  16.9612  17.3589

          k = 0.0000 0.1443 0.0000 (  4585 PWs)   bands (ev):

   -34.2616  -4.1384   1.4987   2.1963   5.4233   7.7416  10.6525  10.8088
    12.2319  13.1679  13.4471  13.7475  14.6397  15.0573

          k = 0.0000 0.1443 0.1207 (  4591 PWs)   bands (ev):

   -34.2616  -4.0621   0.3902   3.7137   5.4853   7.8083   9.8515  10.9985
    11.6391  12.2229  13.2731  13.7046  15.2604  15.3836

          k = 0.0000 0.1443 0.2414 (  4580 PWs)   bands (ev):

   -34.2616  -3.9212  -0.4223   5.5088   5.7729   7.9302   8.9750   9.4165
    11.1055  11.4413  13.4196  14.4109  15.8107  16.7155

          k = 0.0000 0.2885 0.0000 (  4566 PWs)   bands (ev):

   -34.2596  -3.3874   2.2349   2.3060   3.0847   8.1658   8.4089   9.5493
    12.0678  13.9257  14.0101  14.6860  14.9105  15.7967

          k = 0.0000 0.2885 0.1207 (  4580 PWs)   bands (ev):

   -34.2596  -3.3044   0.9827   2.7387   4.3213   7.4866   8.4761  10.4790
    11.9665  12.8193  13.1269  14.1718  15.9005  16.1221

          k = 0.0000 0.2885 0.2414 (  4583 PWs)   bands (ev):

   -34.2596  -3.1484   0.1566   2.8467   5.9104   7.1872   8.5991   9.8252
    11.6535  12.0516  13.6074  14.2535  15.5151  15.9911

          k = 0.0000 0.4328 0.0000 (  4584 PWs)   bands (ev):

   -34.2580  -2.3305   0.5689   3.2340   3.2752   6.1371   8.3530   9.3275
    12.2286  12.8301  14.6422  15.0927  15.2888  16.7883

          k = 0.0000 0.4328 0.1207 (  4587 PWs)   bands (ev):

   -34.2580  -2.2287   0.6070   1.7877   4.9579   5.7403   9.3067   9.3981
    12.2744  12.6580  13.5622  14.0078  15.4802  16.7477

          k = 0.0000 0.4328 0.2414 (  4575 PWs)   bands (ev):

   -34.2580  -2.0289   0.6775   0.8811   4.9522   7.0728   9.5289  10.7021
    11.4915  12.3576  12.7809  13.2293  14.2740  16.0220

          k = 0.1443 0.1443 0.0000 (  4579 PWs)   bands (ev):

   -34.2607  -3.8801   1.7517   2.3619   5.6503   5.6545  10.6102  11.6588
    11.7924  11.8786  13.7254  13.7732  14.8866  15.5416

          k = 0.1443 0.1443 0.1207 (  4588 PWs)   bands (ev):

   -34.2607  -3.8022   0.6094   3.9027   5.6924   5.7395   9.7338  10.5987
    11.8325  12.9555  13.4709  13.9870  14.4039  15.0695

          k = 0.1443 0.1443 0.2414 (  4580 PWs)   bands (ev):

   -34.2607  -3.6574  -0.2095   5.6474   5.9012   5.9536   8.9502   9.2616
    10.3119  13.5291  13.6281  14.8605  15.1932  16.2753

          k = 0.1443 0.2885 0.0000 (  4582 PWs)   bands (ev):

   -34.2587  -3.1296   2.4884   2.5427   3.2759   6.3137   8.3684   9.8294
    11.8294  11.8803  13.1141  14.3815  16.2464  16.2476

          k = 0.1443 0.2885 0.1207 (  4574 PWs)   bands (ev):

   -34.2587  -3.0452   1.2116   2.9865   4.5242   6.3733   7.6768  10.5842
    11.0347  12.2950  13.0586  14.4773  14.6556  17.4733

          k = 0.1443 0.2885 0.2414 (  4591 PWs)   bands (ev):

   -34.2587  -2.8861   0.3805   3.0974   6.1174   6.5083   7.2716   9.8456
    10.4718  12.2819  13.3662  14.4824  16.2576  16.3910

          k = 0.1443 0.4328 0.0000 (  4568 PWs)   bands (ev):

   -34.2572  -2.0723   0.8206   3.4467   3.5324   6.3605   7.2564   8.3562
    10.4484  12.6093  13.2512  15.2631  16.7458  16.9094

          k = 0.1443 0.4328 0.1207 (  4578 PWs)   bands (ev):

   -34.2572  -1.9702   0.8615   2.0268   5.1804   5.9123   7.3842   9.1571
    10.6241  11.5738  13.6859  15.1622  15.4685  16.2128

          k = 0.1443 0.4328 0.2414 (  4574 PWs)   bands (ev):

   -34.2572  -1.7694   0.9345   1.1243   5.1125   7.2386   7.5411   9.8578
    10.8155  11.4076  12.0227  14.0373  15.7320  15.9634

          k = 0.2885 0.2885 0.0000 (  4570 PWs)   bands (ev):

   -34.2569  -2.3797   3.1104   3.2285   3.6674   3.9332   8.5845   9.0013
     9.6551  10.1614  11.2891  15.8638  17.0116  17.1316

          k = 0.2885 0.2885 0.1207 (  4584 PWs)   bands (ev):

   -34.2569  -2.2903   1.8498   3.6635   3.7581   5.1235   7.7248   8.6496
     9.5856  11.4398  11.9677  14.2564  15.4753  17.8528

          k = 0.2885 0.2885 0.2414 (  4588 PWs)   bands (ev):

   -34.2569  -2.1198   1.0077   3.7414   3.9327   6.6381   6.9198   8.5697
     9.4505  11.1762  13.5191  14.0243  15.3650  16.2341

          k = 0.2885 0.4328 0.0000 (  4590 PWs)   bands (ev):

   -34.2553  -1.3213   1.5546   4.0144   4.2895   4.6835   6.9777   7.0921
     9.2658   9.9918  10.9532  14.0655  16.6176  17.8624

          k = 0.2885 0.4328 0.1207 (  4585 PWs)   bands (ev):

   -34.2553  -1.2175   1.6052   2.7062   4.7469   5.7948   6.3601   7.3450
     9.0727  10.1979  12.2373  13.8253  14.9896  16.7514

          k = 0.2885 0.4328 0.2414 (  4596 PWs)   bands (ev):

   -34.2553  -1.0123   1.6836   1.8231   4.9103   5.5343   7.3508   7.4231
     8.7445  11.8379  12.3793  13.4769  14.6034  14.8755

          k = 0.4328 0.4328 0.0000 (  4596 PWs)   bands (ev):

   -34.2539  -0.2585   2.5933   2.6196   4.7211   5.2477   5.4228   7.5657
     8.0357   9.1674   9.4072  12.2644  15.8453  18.9410

          k = 0.4328 0.4328 0.1207 (  4601 PWs)   bands (ev):

   -34.2539  -0.1484   2.6561   2.7116   3.6039   5.2648   6.5028   6.6981
     7.5721  10.4625  10.6015  12.1936  15.8116  16.2916

          k = 0.4328 0.4328 0.2414 (  4599 PWs)   bands (ev):

   -34.2539   0.0736   2.6694   2.8134   2.8889   5.3402   5.8845   6.1353
     8.8610  11.7654  12.5712  12.7314  13.6220  15.6350

     the Fermi energy is    11.9043 ev

!    total energy              =     -47.95890667 Ry
     estimated scf accuracy    <          1.6E-11 Ry
     smearing contrib. (-TS)   =      -0.00072626 Ry
     internal energy E=F+TS    =     -47.95818041 Ry

     The total energy is F=E-TS. E is the sum of the following terms:
     one-electron contribution =      12.74485221 Ry
     hartree contribution      =       3.76318270 Ry
     xc contribution           =     -16.74454873 Ry
     ewald contribution        =     -47.72166660 Ry

     convergence has been achieved in   9 iterations

     Forces acting on atoms (cartesian axes, Ry/au):

     atom    1 type  1   force =     0.00000000    0.00000000    0.00000000
     atom    2 type  2   force =     0.00000000    0.00000000    0.00000000
     atom    3 type  2   force =     0.00000000    0.00000000    0.00000000
     atom    4 type  2   force =     0.00000000    0.00000000    0.01179121
     atom    5 type  2   force =     0.00000000    0.00000000   -0.01179121
     The non-local contrib.  to forces
     atom    1 type  1   force =     0.00000000    0.00000000    0.00000000
     atom    2 type  2   force =     0.00000000    0.00000000    0.00000000
     atom    3 type  2   force =     0.00000000    0.00000000    0.00000000
     atom    4 type  2   force =     0.00000000    0.00000000    0.03103618
     atom    5 type  2   force =     0.00000000    0.00000000   -0.03103618
     The ionic contribution  to forces
     atom    1 type  1   force =     0.00000000    0.00000000   -0.00000000
     atom    2 type  2   force =    -0.00000000   -0.00000000   -0.00000000
     atom    3 type  2   force =    -0.00000000   -0.00000000   -0.00000000
     atom    4 type  2   force =     0.00000000    0.00000000   -0.85082205
     atom    5 type  2   force =    -0.00000000   -0.00000000    0.85082205
     The local contribution  to forces
     atom    1 type  1   force =     0.00000000    0.00000000   -0.00000000
     atom    2 type  2   force =    -0.00000000   -0.00000000    0.00000000
     atom    3 type  2   force =    -0.00000000   -0.00000000    0.00000000
     atom    4 type  2   force =    -0.00000000   -0.00000000    0.83206716
     atom    5 type  2   force =     0.00000000    0.00000000   -0.83206716
     The core correction contribution to forces
     atom    1 type  1   force =     0.00000000    0.00000000    0.00000000
     atom    2 type  2   force =     0.00000000   -0.00000000    0.00000000
     atom    3 type  2   force =    -0.00000000    0.00000000    0.00000000
     atom    4 type  2   force =    -0.00000000   -0.00000000   -0.00048589
     atom    5 type  2   force =     0.00000000    0.00000000    0.00048589
     The Hubbard contrib.    to forces
     atom    1 type  1   force =     0.00000000    0.00000000    0.00000000
     atom    2 type  2   force =     0.00000000    0.00000000    0.00000000
     atom    3 type  2   force =     0.00000000    0.00000000    0.00000000
     atom    4 type  2   force =     0.00000000    0.00000000    0.00000000
     atom    5 type  2   force =     0.00000000    0.00000000    0.00000000
     The SCF correction term to forces
     atom    1 type  1   force =    -0.00000000   -0.00000000   -0.00000000
     atom    2 type  2   force =    -0.00000000   -0.00000000   -0.00000000
     atom    3 type  2   force =    -0.00000000    0.00000000   -0.00000000
     atom    4 type  2   force =    -0.00000000    0.00000000   -0.00000419
     atom    5 type  2   force =     0.00000000    0.00000000    0.00000419

     Total force =     0.016675     Total SCF correction =     0.000006


     Computing stress (Cartesian axis) and pressure

          total   stress  (Ry/bohr**3)                   (kbar)     P=      477.69
   0.00293173   0.00000000   0.00000000          431.27        0.00        0.00
   0.00000000   0.00293173   0.00000000            0.00      431.27        0.00
   0.00000000   0.00000000   0.00387834            0.00        0.00      570.52

     Energy error            =      8.2E-03 Ry
     Gradient error          =      1.2E-02 Ry/Bohr
     Cell gradient error     =      7.1E+01 kbar

     number of scf cycles    =   3
     number of bfgs steps    =   2

     enthalpy           old  =     -46.6342042631 Ry
     enthalpy           new  =     -46.6423927251 Ry

     CASE: enthalpy          _new < enthalpy          _old


     WARNING: bfgs curvature condition failed, Theta= 0.922
     new trust radius        =       0.1021016969 bohr
ibrav =      6
 celldm(1) =      6.03144246
 celldm(3) =      1.74758317
Input lattice vectors:
     0.97277624     0.00000000     0.00000000
     0.00000000     0.97277624     0.00000000
     0.00000000     0.00000000     1.70000738
New lattice vectors in INITIAL alat:
     0.97277624     0.00000000     0.00000000
     0.00000000     0.97277624     0.00000000
     0.00000000     0.00000000     1.70000738
New lattice vectors in NEW alat (for information only):
     1.00000000     0.00000000     0.00000000
     0.00000000     1.00000000     0.00000000
     0.00000000     0.00000000     1.74758317
Discrepancy in bohr =     0.000000    0.000000    0.000000
     new conv_thr            =       0.0000000012 Ry

     new unit-cell volume =    383.44353 a.u.^3 (    56.82047 Ang^3 )
     density =      3.48596 g/cm^3

CELL_PARAMETERS (alat=  6.20023620)
   0.972776240   0.000000000   0.000000000
   0.000000000   0.972776240   0.000000000
   0.000000000   0.000000000   1.700007383

ATOMIC_POSITIONS (crystal)
Li            0.0000000000        0.0000000000        0.0000000000
Si            0.0000000000        0.5000000000        0.5000000000
Si            0.5000000000        0.0000000000        0.5000000000
Si            0.5000000000        0.5000000000        0.1896616897
Si            0.5000000000        0.5000000000        0.8103383103



     Writing config-only to output data dir ./output/LiSi.save/
     NEW-OLD atomic charge density approx. for the potential
     extrapolated charge   18.80741, renormalised to   19.00000

     total cpu time spent up to now is       21.3 secs

     Self-consistent Calculation

     iteration #  1     ecut=    80.00 Ry     beta= 0.70
     Davidson diagonalization with overlap
     ethr =  1.00E-06,  avg # of iterations = 10.3

     total cpu time spent up to now is       22.4 secs

     total energy              =     -47.95154053 Ry
     estimated scf accuracy    <       0.00199940 Ry

     iteration #  2     ecut=    80.00 Ry     beta= 0.70
     Davidson diagonalization with overlap
     ethr =  1.05E-05,  avg # of iterations =  3.4

     total cpu time spent up to now is       23.0 secs

     total energy              =     -47.95161951 Ry
     estimated scf accuracy    <       0.00554131 Ry

     iteration #  3     ecut=    80.00 Ry     beta= 0.70
     Davidson diagonalization with overlap
     ethr =  1.05E-05,  avg # of iterations =  2.1

     total cpu time spent up to now is       23.5 secs

     total energy              =     -47.95256998 Ry
     estimated scf accuracy    <       0.00004180 Ry

     iteration #  4     ecut=    80.00 Ry     beta= 0.70
     Davidson diagonalization with overlap
     ethr =  2.20E-07,  avg # of iterations =  3.5

     total cpu time spent up to now is       24.0 secs

     total energy              =     -47.95258356 Ry
     estimated scf accuracy    <       0.00000190 Ry

     iteration #  5     ecut=    80.00 Ry     beta= 0.70
     Davidson diagonalization with overlap
     ethr =  1.00E-08,  avg # of iterations =  3.6

     total cpu time spent up to now is       24.6 secs

     total energy              =     -47.95258410 Ry
     estimated scf accuracy    <       0.00000041 Ry

     iteration #  6     ecut=    80.00 Ry     beta= 0.70
     Davidson diagonalization with overlap
     ethr =  2.17E-09,  avg # of iterations =  1.9

     total cpu time spent up to now is       25.0 secs

     total energy              =     -47.95258416 Ry
     estimated scf accuracy    <       0.00000001 Ry

     iteration #  7     ecut=    80.00 Ry     beta= 0.70
     Davidson diagonalization with overlap
     ethr =  6.33E-11,  avg # of iterations =  3.9

     total cpu time spent up to now is       25.6 secs

     End of self-consistent calculation

          k = 0.0000 0.0000 0.0000 (  4605 PWs)   bands (ev):

   -34.0777  -4.3240   1.1450   1.9221   7.9892   7.9892  10.9029  11.4030
    13.5046  13.6240  13.6240  13.7120  13.7120  14.5294

          k = 0.0000 0.0000 0.1176 (  4564 PWs)   bands (ev):

   -34.0777  -4.2582   0.1419   3.3379   8.0483   8.0483  10.6734  11.1851
    11.5202  12.3731  12.3731  14.1325  15.3902  15.3902

          k = 0.0000 0.0000 0.2353 (  4588 PWs)   bands (ev):

   -34.0777  -4.1382  -0.6100   5.2949   8.1553   8.1553   8.3412  10.9631
    11.6383  11.6383  11.7725  13.5239  17.2406  17.4460

          k = 0.0000 0.1469 0.0000 (  4585 PWs)   bands (ev):

   -34.0766  -4.0535   1.4091   2.0889   5.7979   8.2294  10.9599  11.0773
    12.4569  13.5591  13.8434  13.9391  14.3842  14.4868

          k = 0.0000 0.1469 0.1176 (  4591 PWs)   bands (ev):

   -34.0766  -3.9859   0.3695   3.5310   5.8505   8.2885  10.0870  11.0630
    11.5732  12.6028  13.6522  13.9667  15.5869  15.6645

          k = 0.0000 0.1469 0.2353 (  4580 PWs)   bands (ev):

   -34.0766  -3.8622  -0.3899   5.4427   5.9467   8.3954   8.5649   9.6172
    11.5880  11.8704  14.0095  14.8294  15.8676  17.2088

          k = 0.0000 0.2937 0.0000 (  4566 PWs)   bands (ev):

   -34.0741  -3.2644   2.1791   2.3532   3.2263   8.3166   8.9300   9.5296
    12.6166  14.3325  14.4449  14.6249  15.0653  15.1447

          k = 0.0000 0.2937 0.1176 (  4580 PWs)   bands (ev):

   -34.0741  -3.1902   0.9965   2.9790   4.1916   7.6462   8.9895  10.3968
    12.0972  13.0463  13.2377  14.7156  16.1860  16.3570

          k = 0.0000 0.2937 0.2353 (  4583 PWs)   bands (ev):

   -34.0741  -3.0523   0.2214   3.0937   5.8115   7.2653   9.0972   9.3581
    12.0261  12.5186  13.5862  14.7896  15.7713  16.0005

          k = 0.0000 0.4406 0.0000 (  4584 PWs)   bands (ev):

   -34.0721  -2.1324   0.7188   3.2033   3.2769   6.1880   8.2446   9.9223
    12.6909  13.4317  15.1329  15.2735  15.5755  16.7893

          k = 0.0000 0.4406 0.1176 (  4587 PWs)   bands (ev):

   -34.0721  -2.0394   0.7511   1.8509   4.8859   5.7935   9.1457   9.9854
    12.7299  12.7965  14.0436  14.0471  15.7096  16.9059

          k = 0.0000 0.4406 0.2353 (  4575 PWs)   bands (ev):

   -34.0721  -1.8589   0.8103   1.0004   5.0580   6.9161  10.1010  10.3293
    11.2962  12.8017  13.2364  13.3088  14.5374  16.4796

          k = 0.1469 0.1469 0.0000 (  4579 PWs)   bands (ev):

   -34.0755  -3.7833   1.6732   2.2667   5.9832   6.0932  10.8919  11.8337
    11.9226  11.9600  14.2827  14.4352  14.7600  15.0404

          k = 0.1469 0.1469 0.1176 (  4588 PWs)   bands (ev):

   -34.0755  -3.7140   0.5996   3.7344   6.0151   6.1728  10.0111  10.7123
    11.5510  13.1260  13.8359  14.5841  14.5944  15.5853

          k = 0.1469 0.1469 0.2353 (  4580 PWs)   bands (ev):

   -34.0755  -3.5867  -0.1663   5.6104   6.0765   6.3239   8.8133   9.2590
    10.5880  14.0338  14.1979  15.3615  15.3946  16.3279

          k = 0.1469 0.2937 0.0000 (  4582 PWs)   bands (ev):

   -34.0731  -2.9949   2.4436   2.5882   3.4438   6.7263   8.5331   9.8392
    12.0895  12.1852  13.4113  15.0391  15.5166  15.8544

          k = 0.1469 0.2937 0.1176 (  4574 PWs)   bands (ev):

   -34.0731  -2.9194   1.2362   3.2388   4.4077   6.7767   7.8615  10.6008
    11.2413  12.4427  13.0050  14.6766  15.1014  17.7432

          k = 0.1469 0.2937 0.2353 (  4591 PWs)   bands (ev):

   -34.0731  -2.7787   0.4564   3.3542   6.0314   6.9029   7.3897   9.5176
    10.7115  12.6699  13.3568  14.8460  16.3022  16.3995

          k = 0.1469 0.4406 0.0000 (  4568 PWs)   bands (ev):

   -34.0711  -1.8633   0.9834   3.4312   3.5448   6.4244   7.6638   8.4073
    10.7825  12.9803  13.4096  15.8431  16.6083  16.7701

          k = 0.1469 0.4406 0.1176 (  4578 PWs)   bands (ev):

   -34.0711  -1.7700   1.0181   2.1021   5.1248   5.9762   7.8588   9.1489
    10.8814  11.9381  13.3750  15.2398  15.7816  16.6133

          k = 0.1469 0.4406 0.2353 (  4574 PWs)   bands (ev):

   -34.0711  -1.5886   1.0786   1.2563   5.2311   7.1068   8.0191   9.9836
    11.1318  11.2935  11.8280  13.7600  16.0863  16.6266

          k = 0.2937 0.2937 0.0000 (  4570 PWs)   bands (ev):

   -34.0707  -2.2083   3.1623   3.2167   4.0420   4.1084   8.7849   9.3001
     9.8496  10.1292  11.4538  16.1216  16.3660  16.5989

          k = 0.2937 0.2937 0.1176 (  4584 PWs)   bands (ev):

   -34.0707  -2.1279   1.9083   3.8959   4.1282   5.0451   7.9227   8.8891
     9.8974  11.3930  11.9463  13.8440  15.8057  18.1667

          k = 0.2937 0.2937 0.2353 (  4588 PWs)   bands (ev):

   -34.0707  -1.9764   1.1175   3.9763   4.2941   6.5923   7.1460   8.7017
     9.6702  10.9314  13.3996  14.0475  15.5924  16.0526

          k = 0.2937 0.4406 0.0000 (  4590 PWs)   bands (ev):

   -34.0688  -1.0783   1.7594   4.0557   4.3336   5.0687   7.0818   7.3102
     9.2560  10.2505  11.0207  14.2853  16.6016  17.4087

          k = 0.2937 0.4406 0.1176 (  4585 PWs)   bands (ev):

   -34.0688  -0.9836   1.8028   2.8195   5.1354   5.7959   6.4602   7.5975
     9.3128  10.1134  12.2584  14.0312  14.5831  16.5136

          k = 0.2937 0.4406 0.2353 (  4596 PWs)   bands (ev):

   -34.0688  -0.7982   1.8623   1.9969   5.2879   5.6941   7.4226   7.6952
     8.8495  11.5697  12.1195  13.6084  14.4584  14.7329

          k = 0.4406 0.4406 0.0000 (  4596 PWs)   bands (ev):

   -34.0670   0.0472   2.8630   2.9576   4.8221   5.4062   5.5198   7.7255
     8.2092   9.0923   9.3760  12.3803  15.8129  18.4348

          k = 0.4406 0.4406 0.1176 (  4601 PWs)   bands (ev):

   -34.0670   0.1479   2.9160   3.0452   3.7780   5.4258   6.6025   6.8552
     7.6692  10.3710  10.5426  12.3318  15.4251  16.1532

          k = 0.4406 0.4406 0.2353 (  4599 PWs)   bands (ev):

   -34.0670   0.3487   2.9038   3.0509   3.2141   5.5119   6.0695   6.3511
     8.7935  11.8360  12.3999  12.5984  13.3866  15.2954

     the Fermi energy is    11.9914 ev

!    total energy              =     -47.95258416 Ry
     estimated scf accuracy    <          7.7E-10 Ry
     smearing contrib. (-TS)   =      -0.00075323 Ry
     internal energy E=F+TS    =     -47.95183094 Ry

     The total energy is F=E-TS. E is the sum of the following terms:
     one-electron contribution =      13.01970271 Ry
     hartree contribution      =       3.73353879 Ry
     xc contribution           =     -16.75879399 Ry
     ewald contribution        =     -47.94627844 Ry

     convergence has been achieved in   7 iterations

     Forces acting on atoms (cartesian axes, Ry/au):

     atom    1 type  1   force =     0.00000000    0.00000000    0.00000000
     atom    2 type  2   force =     0.00000000    0.00000000    0.00000000
     atom    3 type  2   force =     0.00000000    0.00000000    0.00000000
     atom    4 type  2   force =     0.00000000    0.00000000    0.02134936
     atom    5 type  2   force =     0.00000000    0.00000000   -0.02134936
     The non-local contrib.  to forces
     atom    1 type  1   force =     0.00000000    0.00000000    0.00000000
     atom    2 type  2   force =     0.00000000    0.00000000    0.00000000
     atom    3 type  2   force =     0.00000000    0.00000000    0.00000000
     atom    4 type  2   force =     0.00000000    0.00000000    0.04070888
     atom    5 type  2   force =     0.00000000    0.00000000   -0.04070888
     The ionic contribution  to forces
     atom    1 type  1   force =     0.00000000    0.00000000    0.00000000
     atom    2 type  2   force =    -0.00000000   -0.00000000   -0.00000000
     atom    3 type  2   force =    -0.00000000   -0.00000000   -0.00000000
     atom    4 type  2   force =     0.00000000    0.00000000   -0.79713913
     atom    5 type  2   force =     0.00000000    0.00000000    0.79713913
     The local contribution  to forces
     atom    1 type  1   force =     0.00000000    0.00000000    0.00000000
     atom    2 type  2   force =    -0.00000000   -0.00000000    0.00000000
     atom    3 type  2   force =    -0.00000000   -0.00000000    0.00000000
     atom    4 type  2   force =    -0.00000000   -0.00000000    0.77899070
     atom    5 type  2   force =     0.00000000    0.00000000   -0.77899070
     The core correction contribution to forces
     atom    1 type  1   force =     0.00000000    0.00000000    0.00000000
     atom    2 type  2   force =     0.00000000   -0.00000000    0.00000000
     atom    3 type  2   force =    -0.00000000    0.00000000    0.00000000
     atom    4 type  2   force =    -0.00000000   -0.00000000   -0.00123881
     atom    5 type  2   force =    -0.00000000   -0.00000000    0.00123881
     The Hubbard contrib.    to forces
     atom    1 type  1   force =     0.00000000    0.00000000    0.00000000
     atom    2 type  2   force =     0.00000000    0.00000000    0.00000000
     atom    3 type  2   force =     0.00000000    0.00000000    0.00000000
     atom    4 type  2   force =     0.00000000    0.00000000    0.00000000
     atom    5 type  2   force =     0.00000000    0.00000000    0.00000000
     The SCF correction term to forces
     atom    1 type  1   force =    -0.00000000   -0.00000000   -0.00000000
     atom    2 type  2   force =    -0.00000000    0.00000000   -0.00000000
     atom    3 type  2   force =     0.00000000   -0.00000000   -0.00000000
     atom    4 type  2   force =     0.00000000    0.00000000    0.00002773
     atom    5 type  2   force =    -0.00000000   -0.00000000   -0.00002773

     Total force =     0.030193     Total SCF correction =     0.000039


     Computing stress (Cartesian axis) and pressure

          total   stress  (Ry/bohr**3)                   (kbar)     P=      494.67
   0.00326334   0.00000000   0.00000000          480.05        0.00        0.00
   0.00000000   0.00326334   0.00000000            0.00      480.05        0.00
   0.00000000   0.00000000   0.00356131            0.00        0.00      523.89

     Energy error            =      6.9E-03 Ry
     Gradient error          =      2.1E-02 Ry/Bohr
     Cell gradient error     =      2.4E+01 kbar

     number of scf cycles    =   4
     number of bfgs steps    =   3

     enthalpy           old  =     -46.6423927251 Ry
     enthalpy           new  =     -46.6492860772 Ry

     CASE: enthalpy          _new < enthalpy          _old

     new trust radius        =       0.0294027779 bohr
ibrav =      6
 celldm(1) =      5.99845775
 celldm(3) =      1.77038539
Input lattice vectors:
     0.96745633     0.00000000     0.00000000
     0.00000000     0.96745633     0.00000000
     0.00000000     0.00000000     1.71277055
New lattice vectors in INITIAL alat:
     0.96745633     0.00000000     0.00000000
     0.00000000     0.96745633     0.00000000
     0.00000000     0.00000000     1.71277055
New lattice vectors in NEW alat (for information only):
     1.00000000     0.00000000     0.00000000
     0.00000000     1.00000000     0.00000000
     0.00000000     0.00000000     1.77038539
Discrepancy in bohr =     0.000000    0.000000    0.000000
     new conv_thr            =       0.0000000021 Ry

     new unit-cell volume =    382.10844 a.u.^3 (    56.62263 Ang^3 )
     density =      3.49814 g/cm^3

CELL_PARAMETERS (alat=  6.20023620)
   0.967456330   0.000000000   0.000000000
   0.000000000   0.967456330   0.000000000
   0.000000000   0.000000000   1.712770550

ATOMIC_POSITIONS (crystal)
Li            0.0000000000        0.0000000000        0.0000000000
Si            0.0000000000        0.5000000000        0.5000000000
Si            0.5000000000        0.0000000000        0.5000000000
Si            0.5000000000        0.5000000000        0.1907917871
Si            0.5000000000        0.5000000000        0.8092082129



     Writing config-only to output data dir ./output/LiSi.save/
     NEW-OLD atomic charge density approx. for the potential
     extrapolated charge   18.93364, renormalised to   19.00000

     total cpu time spent up to now is       27.3 secs

     Self-consistent Calculation

     iteration #  1     ecut=    80.00 Ry     beta= 0.70
     Davidson diagonalization with overlap
     ethr =  1.00E-06,  avg # of iterations =  6.9

     total cpu time spent up to now is       28.1 secs

     total energy              =     -47.94821077 Ry
     estimated scf accuracy    <       0.00097751 Ry

     iteration #  2     ecut=    80.00 Ry     beta= 0.70
     Davidson diagonalization with overlap
     ethr =  5.14E-06,  avg # of iterations =  3.9

     total cpu time spent up to now is       28.6 secs

     total energy              =     -47.94816150 Ry
     estimated scf accuracy    <       0.00509958 Ry

     iteration #  3     ecut=    80.00 Ry     beta= 0.70
     Davidson diagonalization with overlap
     ethr =  5.14E-06,  avg # of iterations =  2.5

     total cpu time spent up to now is       29.1 secs

     total energy              =     -47.94886733 Ry
     estimated scf accuracy    <       0.00003087 Ry

     iteration #  4     ecut=    80.00 Ry     beta= 0.70
     Davidson diagonalization with overlap
     ethr =  1.62E-07,  avg # of iterations =  4.4

     total cpu time spent up to now is       29.5 secs

     total energy              =     -47.94888235 Ry
     estimated scf accuracy    <       0.00000286 Ry

     iteration #  5     ecut=    80.00 Ry     beta= 0.70
     Davidson diagonalization with overlap
     ethr =  1.50E-08,  avg # of iterations =  1.9

     total cpu time spent up to now is       29.9 secs

     total energy              =     -47.94888265 Ry
     estimated scf accuracy    <       0.00000020 Ry

     iteration #  6     ecut=    80.00 Ry     beta= 0.70
     Davidson diagonalization with overlap
     ethr =  1.07E-09,  avg # of iterations =  2.9

     total cpu time spent up to now is       30.3 secs

     End of self-consistent calculation

          k = 0.0000 0.0000 0.0000 (  4605 PWs)   bands (ev):

   -34.0303  -4.3311   1.0973   1.9557   8.1061   8.1061  10.9670  11.5847
    13.4385  13.7103  13.7103  13.8485  13.8485  13.8557

          k = 0.0000 0.0000 0.1168 (  4564 PWs)   bands (ev):

   -34.0303  -4.2695   0.1496   3.3158   8.1615   8.1615  10.6051  11.1734
    11.7003  12.5106  12.5106  14.2498  15.4724  15.4724

          k = 0.0000 0.0000 0.2335 (  4588 PWs)   bands (ev):

   -34.0303  -4.1580  -0.5779   5.2540   8.2015   8.2610   8.2610  11.0303
    11.7954  11.7954  11.9496  13.6553  17.3480  17.4988

          k = 0.0000 0.1477 0.0000 (  4585 PWs)   bands (ev):

   -34.0291  -4.0570   1.3647   2.1270   5.8839   8.3488  11.0495  11.1342
    12.5664  13.6248  13.9332  14.0802  14.1384  14.5460

          k = 0.0000 0.1477 0.1168 (  4591 PWs)   bands (ev):

   -34.0291  -3.9936   0.3821   3.5128   5.9328   8.4042  10.1633  10.9671
    11.6610  12.7441  13.7240  14.1136  15.6752  15.7736

          k = 0.0000 0.1477 0.2335 (  4580 PWs)   bands (ev):

   -34.0291  -3.8786  -0.3533   5.4132   6.0183   8.4358   8.5035   9.7175
    11.7019  12.0313  14.1588  14.9662  15.9232  17.3332

          k = 0.0000 0.2953 0.0000 (  4566 PWs)   bands (ev):

   -34.0264  -3.2564   2.1451   2.4110   3.2716   8.3413   9.0577   9.5787
    12.7682  14.4902  14.5452  14.5867  14.9072  15.2127

          k = 0.0000 0.2953 0.1168 (  4580 PWs)   bands (ev):

   -34.0264  -3.1867   1.0254   3.0281   4.1823   7.6984   9.1132  10.3896
    12.0533  13.1282  13.3911  14.8621  16.2547  16.4564

          k = 0.0000 0.2953 0.2335 (  4583 PWs)   bands (ev):

   -34.0264  -3.0585   0.2722   3.1414   5.8088   7.3093   9.2131   9.2312
    12.0956  12.6917  13.6335  14.9332  15.7570  16.1380

          k = 0.0000 0.4430 0.0000 (  4584 PWs)   bands (ev):

   -34.0243  -2.1025   0.7467   3.2609   3.2616   6.1831   8.2695  10.0670
    12.8212  13.5870  15.2484  15.3170  15.7520  16.0538

          k = 0.0000 0.4430 0.1168 (  4587 PWs)   bands (ev):

   -34.0243  -2.0148   0.7778   1.8985   4.8855   5.8098   9.1371  10.1258
    12.7514  12.8578  14.1286  14.2159  15.7549  16.9205

          k = 0.0000 0.4430 0.2335 (  4575 PWs)   bands (ev):

   -34.0243  -1.8464   0.8413   1.0627   5.0962   6.9008  10.2266  10.2326
    11.2383  12.9248  13.2236  13.5009  14.6667  16.6330

          k = 0.1477 0.1477 0.0000 (  4579 PWs)   bands (ev):

   -34.0279  -3.7831   1.6322   2.3092   6.0531   6.2030  10.9507  11.9022
    11.9805  12.0437  14.4112  14.5119  14.6472  15.0336

          k = 0.1477 0.1477 0.1168 (  4588 PWs)   bands (ev):

   -34.0279  -3.7181   0.6170   3.7199   6.0818   6.2793  10.1007  10.7279
    11.5155  13.1861  13.9088  14.6806  14.7938  15.7329

          k = 0.1477 0.1477 0.2335 (  4580 PWs)   bands (ev):

   -34.0279  -3.5997  -0.1253   5.5894   6.1319   6.4232   8.6857   9.3688
    10.7006  14.1480  14.3299  15.4982  15.4989  16.3908

          k = 0.1477 0.2953 0.0000 (  4582 PWs)   bands (ev):

   -34.0253  -2.9833   2.4129   2.6496   3.4933   6.8251   8.5613   9.9006
    12.1945  12.2543  13.5312  15.2130  15.2750  15.8135

          k = 0.1477 0.2953 0.1168 (  4574 PWs)   bands (ev):

   -34.0253  -2.9124   1.2695   3.2911   4.4022   6.8726   7.9188  10.6133
    11.3355  12.4096  13.0711  14.7354  15.2682  17.7415

          k = 0.1477 0.2953 0.2335 (  4591 PWs)   bands (ev):

   -34.0253  -2.7815   0.5115   3.4044   6.0330   6.9938   7.4438   9.4089
    10.8252  12.7604  13.3882  14.9257  16.3441  16.4586

          k = 0.1477 0.4430 0.0000 (  4568 PWs)   bands (ev):

   -34.0232  -1.8302   1.0150   3.4947   3.5320   6.4231   7.7551   8.4758
    10.8833  13.0675  13.5300  15.9618  16.3919  16.7945

          k = 0.1477 0.4430 0.1168 (  4578 PWs)   bands (ev):

   -34.0232  -1.7423   1.0483   2.1543   5.1291   5.9976   7.9679   9.1699
    10.9706  12.0672  13.2781  15.3054  15.8086  16.7288

          k = 0.1477 0.4430 0.2335 (  4574 PWs)   bands (ev):

   -34.0232  -1.5731   1.1138   1.3222   5.2745   7.0990   8.1261   9.9829
    11.1582  11.3777  11.8160  13.6983  16.2063  16.8074

          k = 0.2953 0.2953 0.0000 (  4570 PWs)   bands (ev):

   -34.0228  -2.1858   3.1962   3.2356   4.1339   4.1473   8.8202   9.4043
     9.8924  10.1848  11.5480  16.0032  16.3303  16.5125

          k = 0.2953 0.2953 0.1168 (  4584 PWs)   bands (ev):

   -34.0228  -2.1104   1.9563   3.9406   4.2170   5.0466   7.9860   8.9798
     9.9723  11.4174  11.9678  13.7552  15.9052  18.1995

          k = 0.2953 0.2953 0.2335 (  4588 PWs)   bands (ev):

   -34.0228  -1.9695   1.1866   4.0179   4.3762   6.6098   7.2289   8.7600
     9.6951  10.9004  13.3978  14.0957  15.6659  16.0055

          k = 0.2953 0.4430 0.0000 (  4590 PWs)   bands (ev):

   -34.0208  -1.0355   1.8026   4.1384   4.3307   5.1588   7.0915   7.3822
     9.3031  10.3080  11.1127  14.3396  16.6318  17.3461

          k = 0.2953 0.4430 0.1168 (  4585 PWs)   bands (ev):

   -34.0208  -0.9463   1.8440   2.8873   5.2249   5.8166   6.4953   7.6655
     9.3997  10.1301  12.3000  14.0739  14.4956  16.4570

          k = 0.2953 0.4430 0.2335 (  4596 PWs)   bands (ev):

   -34.0208  -0.7739   1.9148   2.0705   5.3695   5.7535   7.4647   7.7673
     8.9152  11.5023  12.0739  13.6492  14.4165  14.7522

          k = 0.4430 0.4430 0.0000 (  4596 PWs)   bands (ev):

   -34.0188   0.1069   2.9219   3.0387   4.9231   5.4555   5.5341   7.7491
     8.2421   9.1339   9.4321  12.4054  15.8397  18.2335

          k = 0.4430 0.4430 0.1168 (  4601 PWs)   bands (ev):

   -34.0188   0.2014   2.9718   3.1233   3.8729   5.4712   6.6488   6.9061
     7.7117  10.3818  10.5648  12.3673  15.3230  16.1424

          k = 0.4430 0.4430 0.2335 (  4599 PWs)   bands (ev):

   -34.0188   0.3871   3.0144   3.1060   3.2857   5.5562   6.1397   6.4385
     8.8033  11.8622  12.3829  12.5719  13.3409  15.2143

     the Fermi energy is    12.0468 ev

!    total energy              =     -47.94888270 Ry
     estimated scf accuracy    <          3.7E-10 Ry
     smearing contrib. (-TS)   =      -0.00106739 Ry
     internal energy E=F+TS    =     -47.94781531 Ry

     The total energy is F=E-TS. E is the sum of the following terms:
     one-electron contribution =      13.04695346 Ry
     hartree contribution      =       3.75553533 Ry
     xc contribution           =     -16.76815147 Ry
     ewald contribution        =     -47.98215263 Ry

     convergence has been achieved in   6 iterations

     Forces acting on atoms (cartesian axes, Ry/au):

     atom    1 type  1   force =     0.00000000    0.00000000    0.00000000
     atom    2 type  2   force =     0.00000000    0.00000000    0.00000000
     atom    3 type  2   force =     0.00000000    0.00000000    0.00000000
     atom    4 type  2   force =     0.00000000    0.00000000    0.00598900
     atom    5 type  2   force =     0.00000000    0.00000000   -0.00598900
     The non-local contrib.  to forces
     atom    1 type  1   force =     0.00000000    0.00000000    0.00000000
     atom    2 type  2   force =     0.00000000    0.00000000    0.00000000
     atom    3 type  2   force =     0.00000000    0.00000000    0.00000000
     atom    4 type  2   force =     0.00000000    0.00000000    0.02377804
     atom    5 type  2   force =     0.00000000    0.00000000   -0.02377804
     The ionic contribution  to forces
     atom    1 type  1   force =     0.00000000    0.00000000    0.00000000
     atom    2 type  2   force =    -0.00000000    0.00000000    0.00000000
     atom    3 type  2   force =     0.00000000   -0.00000000    0.00000000
     atom    4 type  2   force =     0.00000000    0.00000000   -0.87603526
     atom    5 type  2   force =     0.00000000   -0.00000000    0.87603526
     The local contribution  to forces
     atom    1 type  1   force =     0.00000000    0.00000000   -0.00000000
     atom    2 type  2   force =    -0.00000000    0.00000000   -0.00000000
     atom    3 type  2   force =     0.00000000   -0.00000000   -0.00000000
     atom    4 type  2   force =     0.00000000    0.00000000    0.85818398
     atom    5 type  2   force =     0.00000000   -0.00000000   -0.85818398
     The core correction contribution to forces
     atom    1 type  1   force =     0.00000000    0.00000000    0.00000000
     atom    2 type  2   force =    -0.00000000    0.00000000   -0.00000000
     atom    3 type  2   force =     0.00000000    0.00000000   -0.00000000
     atom    4 type  2   force =    -0.00000000    0.00000000    0.00006990
     atom    5 type  2   force =    -0.00000000   -0.00000000   -0.00006990
     The Hubbard contrib.    to forces
     atom    1 type  1   force =     0.00000000    0.00000000    0.00000000
     atom    2 type  2   force =     0.00000000    0.00000000    0.00000000
     atom    3 type  2   force =     0.00000000    0.00000000    0.00000000
     atom    4 type  2   force =     0.00000000    0.00000000    0.00000000
     atom    5 type  2   force =     0.00000000    0.00000000    0.00000000
     The SCF correction term to forces
     atom    1 type  1   force =     0.00000000   -0.00000000    0.00000000
     atom    2 type  2   force =     0.00000000    0.00000000   -0.00000000
     atom    3 type  2   force =     0.00000000   -0.00000000   -0.00000000
     atom    4 type  2   force =    -0.00000000   -0.00000000   -0.00000767
     atom    5 type  2   force =    -0.00000000   -0.00000000    0.00000767

     Total force =     0.008470     Total SCF correction =     0.000011


     Computing stress (Cartesian axis) and pressure

          total   stress  (Ry/bohr**3)                   (kbar)     P=      501.40
   0.00340535   0.00000000   0.00000000          500.95        0.00        0.00
   0.00000000   0.00340535   0.00000000            0.00      500.95        0.00
   0.00000000   0.00000000   0.00341467            0.00        0.00      502.32

     Energy error            =      8.4E-04 Ry
     Gradient error          =      6.0E-03 Ry/Bohr
     Cell gradient error     =      2.3E+00 kbar

     number of scf cycles    =   5
     number of bfgs steps    =   4

     enthalpy           old  =     -46.6492860772 Ry
     enthalpy           new  =     -46.6501225116 Ry

     CASE: enthalpy          _new < enthalpy          _old

     new trust radius        =       0.0070971246 bohr
ibrav =      6
 celldm(1) =      6.00081708
 celldm(3) =      1.76932766
Input lattice vectors:
     0.96783685     0.00000000     0.00000000
     0.00000000     0.96783685     0.00000000
     0.00000000     0.00000000     1.71242051
New lattice vectors in INITIAL alat:
     0.96783685     0.00000000     0.00000000
     0.00000000     0.96783685     0.00000000
     0.00000000     0.00000000     1.71242051
New lattice vectors in NEW alat (for information only):
     1.00000000     0.00000000     0.00000000
     0.00000000     1.00000000     0.00000000
     0.00000000     0.00000000     1.76932766
Discrepancy in bohr =     0.000000    0.000000    0.000000
     new conv_thr            =       0.0000000006 Ry

     new unit-cell volume =    382.33093 a.u.^3 (    56.65560 Ang^3 )
     density =      3.49611 g/cm^3

CELL_PARAMETERS (alat=  6.20023620)
   0.967836852   0.000000000   0.000000000
   0.000000000   0.967836852   0.000000000
   0.000000000   0.000000000   1.712420507

ATOMIC_POSITIONS (crystal)
Li            0.0000000000        0.0000000000        0.0000000000
Si            0.0000000000        0.5000000000        0.5000000000
Si            0.5000000000        0.0000000000        0.5000000000
Si            0.5000000000        0.5000000000        0.1914600926
Si            0.5000000000        0.5000000000        0.8085399074



     Writing config-only to output data dir ./output/LiSi.save/
     NEW-OLD atomic charge density approx. for the potential
     extrapolated charge   19.01105, renormalised to   19.00000

     total cpu time spent up to now is       32.1 secs

     Self-consistent Calculation

     iteration #  1     ecut=    80.00 Ry     beta= 0.70
     Davidson diagonalization with overlap
     ethr =  1.00E-06,  avg # of iterations =  2.9

     total cpu time spent up to now is       32.6 secs

     total energy              =     -47.94967416 Ry
     estimated scf accuracy    <       0.00001964 Ry

     iteration #  2     ecut=    80.00 Ry     beta= 0.70
     Davidson diagonalization with overlap
     ethr =  1.03E-07,  avg # of iterations =  2.3

     total cpu time spent up to now is       33.0 secs

     total energy              =     -47.94967503 Ry
     estimated scf accuracy    <       0.00002796 Ry

[...]
     Using radial grid of 1944 points,  4 beta functions with: 
                l(1) =   0
                l(2) =   0
                l(3) =   1
                l(4) =   1

     PseudoPot. # 2 for Si read from file:
     ../pseudo/Si_ONCV_PBE_sr.upf
     MD5 check sum: e543d271109d17c80368dfa7c482276d
     Pseudo is Norm-conserving + core correction, Zval =  4.0
     Generated using ONCVPSP code by D. R. Hamann
     Using radial grid of 1510 points,  6 beta functions with: 
                l(1) =   0
                l(2) =   0
                l(3) =   1
                l(4) =   1
                l(5) =   2
                l(6) =   2

     atomic species   valence    mass     pseudopotential
        Li             3.00     6.94100     Li( 1.00)
        Si             4.00    28.08550     Si( 1.00)

     16 Sym. Ops., with inversion, found



   Cartesian axes

     site n.     atom                  positions (alat units)
         1           Li  tau(   1) = (   0.0000000   0.0000000   0.0000000  )
         2           Si  tau(   2) = (   0.0000000   0.4839184   0.8562103  )
         3           Si  tau(   3) = (   0.4839184   0.0000000   0.8562103  )
         4           Si  tau(   4) = (   0.4839184   0.4839184   0.3278602  )
         5           Si  tau(   5) = (   0.4839184   0.4839184   1.3845603  )

     number of k points=    30  Marzari-Vanderbilt smearing, width (Ry)=  0.0200
                       cart. coord. in units 2pi/alat
        k(    1) = (   0.0000000   0.0000000   0.0000000), wk =   0.0081633
        k(    2) = (   0.0000000   0.0000000   0.1167937), wk =   0.0163265
        k(    3) = (   0.0000000   0.0000000   0.2335875), wk =   0.0163265
        k(    4) = (   0.0000000   0.1476046   0.0000000), wk =   0.0326531
        k(    5) = (   0.0000000   0.1476046   0.1167937), wk =   0.0653061
        k(    6) = (   0.0000000   0.1476046   0.2335875), wk =   0.0653061
        k(    7) = (   0.0000000   0.2952091   0.0000000), wk =   0.0326531
        k(    8) = (   0.0000000   0.2952091   0.1167937), wk =   0.0653061
        k(    9) = (   0.0000000   0.2952091   0.2335875), wk =   0.0653061
        k(   10) = (   0.0000000   0.4428137   0.0000000), wk =   0.0326531
        k(   11) = (   0.0000000   0.4428137   0.1167937), wk =   0.0653061
        k(   12) = (   0.0000000   0.4428137   0.2335875), wk =   0.0653061
        k(   13) = (   0.1476046   0.1476046   0.0000000), wk =   0.0326531
        k(   14) = (   0.1476046   0.1476046   0.1167937), wk =   0.0653061
        k(   15) = (   0.1476046   0.1476046   0.2335875), wk =   0.0653061
        k(   16) = (   0.1476046   0.2952091   0.0000000), wk =   0.0653061
        k(   17) = (   0.1476046   0.2952091   0.1167937), wk =   0.1306122
        k(   18) = (   0.1476046   0.2952091   0.2335875), wk =   0.1306122
        k(   19) = (   0.1476046   0.4428137   0.0000000), wk =   0.0653061
        k(   20) = (   0.1476046   0.4428137   0.1167937), wk =   0.1306122
        k(   21) = (   0.1476046   0.4428137   0.2335875), wk =   0.1306122
        k(   22) = (   0.2952091   0.2952091   0.0000000), wk =   0.0326531
        k(   23) = (   0.2952091   0.2952091   0.1167937), wk =   0.0653061
        k(   24) = (   0.2952091   0.2952091   0.2335875), wk =   0.0653061
        k(   25) = (   0.2952091   0.4428137   0.0000000), wk =   0.0653061
        k(   26) = (   0.2952091   0.4428137   0.1167937), wk =   0.1306122
        k(   27) = (   0.2952091   0.4428137   0.2335875), wk =   0.1306122
        k(   28) = (   0.4428137   0.4428137   0.0000000), wk =   0.0326531
        k(   29) = (   0.4428137   0.4428137   0.1167937), wk =   0.0653061
        k(   30) = (   0.4428137   0.4428137   0.2335875), wk =   0.0653061

     Dense  grid:    36937 G-vectors     FFT dimensions: (  36,  36,  64)

     Estimated max dynamical RAM per process >      19.40 MB

     Estimated total dynamical RAM >     155.23 MB

     Initial potential from superposition of free atoms

     starting charge      18.9930, renormalised to      19.0000
     Starting wfcs are   18 randomized atomic wfcs

     total cpu time spent up to now is       36.9 secs

     Self-consistent Calculation

     iteration #  1     ecut=    80.00 Ry     beta= 0.70
     Davidson diagonalization with overlap
     c_bands:  1 eigenvalues not converged
     c_bands:  1 eigenvalues not converged
     c_bands:  2 eigenvalues not converged
     c_bands:  1 eigenvalues not converged
     c_bands:  2 eigenvalues not converged
     c_bands:  2 eigenvalues not converged
     c_bands:  2 eigenvalues not converged
     c_bands:  1 eigenvalues not converged
     c_bands:  2 eigenvalues not converged
     c_bands:  1 eigenvalues not converged
     c_bands:  2 eigenvalues not converged
     c_bands:  1 eigenvalues not converged
     c_bands:  1 eigenvalues not converged
     c_bands:  2 eigenvalues not converged
     c_bands:  1 eigenvalues not converged
     c_bands:  2 eigenvalues not converged
     c_bands:  1 eigenvalues not converged
     c_bands:  2 eigenvalues not converged
     c_bands:  2 eigenvalues not converged
     c_bands:  1 eigenvalues not converged
     c_bands:  1 eigenvalues not converged
     ethr =  1.00E-06,  avg # of iterations = 19.4

     total cpu time spent up to now is       38.7 secs

     total energy              =     -47.94319337 Ry
     estimated scf accuracy    <       0.05334561 Ry

     iteration #  2     ecut=    80.00 Ry     beta= 0.70
     Davidson diagonalization with overlap
     ethr =  2.81E-04,  avg # of iterations =  2.0

     total cpu time spent up to now is       39.1 secs

     total energy              =     -47.94926706 Ry
     estimated scf accuracy    <       0.00283772 Ry

     iteration #  3     ecut=    80.00 Ry     beta= 0.70
     Davidson diagonalization with overlap
     ethr =  1.49E-05,  avg # of iterations =  3.1

     total cpu time spent up to now is       39.5 secs

     total energy              =     -47.94937567 Ry
     estimated scf accuracy    <       0.00074185 Ry

     iteration #  4     ecut=    80.00 Ry     beta= 0.70
     Davidson diagonalization with overlap
     ethr =  3.90E-06,  avg # of iterations =  3.5

     total cpu time spent up to now is       40.0 secs

     total energy              =     -47.94948515 Ry
     estimated scf accuracy    <       0.00125033 Ry

     iteration #  5     ecut=    80.00 Ry     beta= 0.70
     Davidson diagonalization with overlap
     ethr =  3.90E-06,  avg # of iterations =  2.0

     total cpu time spent up to now is       40.4 secs

     total energy              =     -47.94968985 Ry
     estimated scf accuracy    <       0.00000105 Ry

     iteration #  6     ecut=    80.00 Ry     beta= 0.70
     Davidson diagonalization with overlap
     ethr =  5.50E-09,  avg # of iterations =  5.2

     total cpu time spent up to now is       41.0 secs

     total energy              =     -47.94969211 Ry
     estimated scf accuracy    <       0.00000161 Ry

     iteration #  7     ecut=    80.00 Ry     beta= 0.70
     Davidson diagonalization with overlap
     ethr =  5.50E-09,  avg # of iterations =  2.0

     total cpu time spent up to now is       41.4 secs

     total energy              =     -47.94969238 Ry
     estimated scf accuracy    <          5.0E-09 Ry

     iteration #  8     ecut=    80.00 Ry     beta= 0.70
     Davidson diagonalization with overlap
     ethr =  2.61E-11,  avg # of iterations =  4.4

     total cpu time spent up to now is       41.9 secs

     total energy              =     -47.94969238 Ry
     estimated scf accuracy    <          7.6E-09 Ry

     iteration #  9     ecut=    80.00 Ry     beta= 0.70
     Davidson diagonalization with overlap
     ethr =  2.61E-11,  avg # of iterations =  2.0

     total cpu time spent up to now is       42.3 secs

     End of self-consistent calculation

          k = 0.0000 0.0000 0.0000 (  4623 PWs)   bands (ev):

   -34.0397  -4.3458   1.0872   1.9744   8.0812   8.0812  10.9476  11.5601
    13.4554  13.6850  13.6850  13.8493  13.8623  13.8623

          k = 0.0000 0.0000 0.1168 (  4606 PWs)   bands (ev):

   -34.0397  -4.2847   0.1506   3.3243   8.1361   8.1361  10.6085  11.1541
    11.6749  12.5045  12.5045  14.2287  15.4675  15.4675

          k = 0.0000 0.0000 0.2336 (  4602 PWs)   bands (ev):

   -34.0397  -4.1743  -0.5742   5.2628   8.2055   8.2345   8.2345  11.0072
    11.7910  11.7910  11.9216  13.6394  17.3453  17.4938

          k = 0.0000 0.1476 0.0000 (  4645 PWs)   bands (ev):

   -34.0386  -4.0719   1.3544   2.1457   5.8617   8.3236  11.0425  11.1136
    12.5639  13.6194  13.9074  14.0938  14.1311  14.5435

          k = 0.0000 0.1476 0.1168 (  4629 PWs)   bands (ev):

   -34.0386  -4.0090   0.3833   3.5209   5.9103   8.3784  10.1590  10.9679
    11.6371  12.7378  13.7190  14.0946  15.6698  15.7570

          k = 0.0000 0.1476 0.2336 (  4632 PWs)   bands (ev):

   -34.0386  -3.8952  -0.3494   5.4210   5.9961   8.4387   8.4767   9.7112
    11.6763  12.0266  14.1313  14.9572  15.9187  17.3140

          k = 0.0000 0.2952 0.0000 (  4635 PWs)   bands (ev):

   -34.0359  -3.2721   2.1339   2.4215   3.2602   8.3244   9.0314   9.5899
    12.7461  14.4874  14.5182  14.6022  14.8982  15.2036

          k = 0.0000 0.2952 0.1168 (  4629 PWs)   bands (ev):

   -34.0359  -3.2031   1.0277   3.0104   4.1864   7.6902   9.0864  10.3927
    12.0460  13.1170  13.3838  14.8369  16.2460  16.4504

          k = 0.0000 0.2952 0.2336 (  4642 PWs)   bands (ev):

   -34.0359  -3.0762   0.2768   3.1215   5.8150   7.3047   9.1851   9.2323
    12.0758  12.6862  13.6334  14.9074  15.7554  16.1273

          k = 0.0000 0.4428 0.0000 (  4615 PWs)   bands (ev):

   -34.0338  -2.1199   0.7323   3.2481   3.2778   6.1692   8.2825  10.0379
    12.7998  13.5656  15.2195  15.3148  15.7656  16.0402

          k = 0.0000 0.4428 0.1168 (  4627 PWs)   bands (ev):

   -34.0338  -2.0331   0.7634   1.9009   4.8870   5.8019   9.1448  10.0960
    12.7451  12.8363  14.1133  14.2055  15.7436  16.9146

          k = 0.0000 0.4428 0.2336 (  4633 PWs)   bands (ev):

   -34.0338  -1.8667   0.8284   1.0652   5.0917   6.9044  10.2014  10.2265
    11.2360  12.9027  13.2253  13.4938  14.6469  16.6195

          k = 0.1476 0.1476 0.0000 (  4624 PWs)   bands (ev):

   -34.0374  -3.7983   1.6215   2.3279   6.0310   6.1805  10.9291  11.9148
    11.9612  12.0535  14.3859  14.5038  14.6239  15.0485

          k = 0.1476 0.1476 0.1168 (  4634 PWs)   bands (ev):

   -34.0374  -3.7338   0.6184   3.7275   6.0595   6.2562  10.0907  10.7327
    11.5077  13.1821  13.8903  14.6710  14.7732  15.7092

          k = 0.1476 0.1476 0.2336 (  4626 PWs)   bands (ev):

   -34.0374  -3.6167  -0.1213   5.5963   6.1112   6.3985   8.6878   9.3629
    10.6942  14.1197  14.3060  15.4784  15.4954  16.3891

          k = 0.1476 0.2952 0.0000 (  4625 PWs)   bands (ev):

   -34.0348  -2.9993   2.4014   2.6612   3.4805   6.8028   8.5439   9.9116
    12.1940  12.2332  13.5225  15.1884  15.2652  15.8308

          k = 0.1476 0.2952 0.1168 (  4623 PWs)   bands (ev):

   -34.0348  -2.9291   1.2719   3.2731   4.4060   6.8505   7.9088  10.6159
    11.3301  12.4061  13.0517  14.7349  15.2435  17.7424

          k = 0.1476 0.2952 0.2336 (  4627 PWs)   bands (ev):

   -34.0348  -2.7996   0.5161   3.3843   6.0391   6.9711   7.4373   9.4092
    10.8191  12.7415  13.3834  14.9118  16.3390  16.4539

          k = 0.1476 0.4428 0.0000 (  4608 PWs)   bands (ev):

   -34.0327  -1.8479   1.0002   3.5109   3.5190   6.4087   7.7413   8.4751
    10.8665  13.0439  13.5421  15.9513  16.3772  16.7965

          k = 0.1476 0.4428 0.1168 (  4622 PWs)   bands (ev):

   -34.0327  -1.7608   1.0336   2.1567   5.1301   5.9901   7.9436   9.1709
    10.9563  12.0589  13.2763  15.3038  15.8024  16.7131

          k = 0.1476 0.4428 0.2336 (  4627 PWs)   bands (ev):

   -34.0327  -1.5938   1.1008   1.3245   5.2701   7.1025   8.0987   9.9737
    11.1487  11.3725  11.8159  13.7013  16.1962  16.7802

          k = 0.2952 0.2952 0.0000 (  4626 PWs)   bands (ev):

   -34.0323  -2.2026   3.1839   3.2486   4.1134   4.1325   8.8010   9.3963
     9.8755  10.1983  11.5483  15.9900  16.3128  16.5328

          k = 0.2952 0.2952 0.1168 (  4619 PWs)   bands (ev):

   -34.0323  -2.1279   1.9593   3.9225   4.1959   5.0487   7.9774   8.9741
     9.9531  11.4212  11.9679  13.7567  15.8906  18.1898

          k = 0.2952 0.2952 0.2336 (  4611 PWs)   bands (ev):

   -34.0323  -1.9886   1.1915   3.9981   4.3533   6.6155   7.2246   8.7546
     9.6815  10.8913  13.3998  14.1007  15.6542  16.0024

          k = 0.2952 0.4428 0.0000 (  4596 PWs)   bands (ev):

   -34.0303  -1.0541   1.7869   4.1546   4.3169   5.1369   7.0758   7.3728
     9.3095  10.2881  11.1254  14.3236  16.6380  17.1386

          k = 0.2952 0.4428 0.1168 (  4614 PWs)   bands (ev):

   -34.0303  -0.9658   1.8282   2.8901   5.2028   5.8167   6.4876   7.6498
     9.3926  10.1347  12.3017  14.0638  14.4910  16.4586

          k = 0.2952 0.4428 0.2336 (  4612 PWs)   bands (ev):

   -34.0303  -0.7956   1.9022   2.0714   5.3460   5.7488   7.4662   7.7507
     8.9112  11.5023  12.0761  13.6436  14.4159  14.7480

          k = 0.4428 0.4428 0.0000 (  4586 PWs)   bands (ev):

   -34.0283   0.0864   2.9044   3.0192   4.9373   5.4440   5.5190   7.7310
     8.2247   9.1481   9.4451  12.3929  15.8430  18.2565

          k = 0.4428 0.4428 0.1168 (  4600 PWs)   bands (ev):

   -34.0283   0.1798   2.9543   3.1032   3.8771   5.4580   6.6456   6.8984
     7.7048  10.3864  10.5692  12.3557  15.3208  16.1435

          k = 0.4428 0.4428 0.2336 (  4604 PWs)   bands (ev):

   -34.0283   0.3629   3.0124   3.0956   3.2638   5.5413   6.1363   6.4362
     8.8037  11.8591  12.3860  12.5671  13.3364  15.2138

     the Fermi energy is    12.0421 ev

!    total energy              =     -47.94969238 Ry
     estimated scf accuracy    <          2.4E-11 Ry
     smearing contrib. (-TS)   =      -0.00107952 Ry
     internal energy E=F+TS    =     -47.94861287 Ry

     The total energy is F=E-TS. E is the sum of the following terms:
     one-electron contribution =      13.01337207 Ry
     hartree contribution      =       3.76583301 Ry
     xc contribution           =     -16.76756335 Ry
     ewald contribution        =     -47.96025459 Ry

     convergence has been achieved in   9 iterations

     Forces acting on atoms (cartesian axes, Ry/au):

     atom    1 type  1   force =     0.00000000    0.00000000    0.00000000
     atom    2 type  2   force =     0.00000000    0.00000000    0.00000000
     atom    3 type  2   force =     0.00000000    0.00000000    0.00000000
     atom    4 type  2   force =     0.00000000    0.00000000    0.00010044
     atom    5 type  2   force =     0.00000000    0.00000000   -0.00010044
     The non-local contrib.  to forces
     atom    1 type  1   force =     0.00000000    0.00000000    0.00000000
     atom    2 type  2   force =     0.00000000    0.00000000    0.00000000
     atom    3 type  2   force =     0.00000000    0.00000000    0.00000000
     atom    4 type  2   force =     0.00000000    0.00000000    0.01722563
     atom    5 type  2   force =     0.00000000    0.00000000   -0.01722563
     The ionic contribution  to forces
     atom    1 type  1   force =     0.00000000    0.00000000    0.00000000
     atom    2 type  2   force =    -0.00000000    0.00000000    0.00000000
     atom    3 type  2   force =     0.00000000   -0.00000000    0.00000000
     atom    4 type  2   force =     0.00000000   -0.00000000   -0.90712126
     atom    5 type  2   force =    -0.00000000   -0.00000000    0.90712126
     The local contribution  to forces
     atom    1 type  1   force =     0.00000000    0.00000000   -0.00000000
     atom    2 type  2   force =    -0.00000000   -0.00000000   -0.00000000
     atom    3 type  2   force =    -0.00000000   -0.00000000   -0.00000000
     atom    4 type  2   force =     0.00000000    0.00000000    0.88941647
     atom    5 type  2   force =     0.00000000    0.00000000   -0.88941647
     The core correction contribution to forces
     atom    1 type  1   force =     0.00000000    0.00000000    0.00000000
     atom    2 type  2   force =    -0.00000000   -0.00000000    0.00000000
     atom    3 type  2   force =    -0.00000000    0.00000000    0.00000000
     atom    4 type  2   force =    -0.00000000    0.00000000    0.00057444
     atom    5 type  2   force =     0.00000000    0.00000000   -0.00057444
     The Hubbard contrib.    to forces
     atom    1 type  1   force =     0.00000000    0.00000000    0.00000000
     atom    2 type  2   force =     0.00000000    0.00000000    0.00000000
     atom    3 type  2   force =     0.00000000    0.00000000    0.00000000
     atom    4 type  2   force =     0.00000000    0.00000000    0.00000000
     atom    5 type  2   force =     0.00000000    0.00000000    0.00000000
     The SCF correction term to forces
     atom    1 type  1   force =    -0.00000000   -0.00000000    0.00000000
     atom    2 type  2   force =     0.00000000    0.00000000   -0.00000000
     atom    3 type  2   force =     0.00000000    0.00000000   -0.00000000
     atom    4 type  2   force =    -0.00000000    0.00000000    0.00000516
     atom    5 type  2   force =     0.00000000    0.00000000   -0.00000516

     Total force =     0.000142     Total SCF correction =     0.000007


     Computing stress (Cartesian axis) and pressure

          total   stress  (Ry/bohr**3)                   (kbar)     P=      500.31
   0.00339986   0.00000000   0.00000000          500.14        0.00        0.00
   0.00000000   0.00339986   0.00000000            0.00      500.14        0.00
   0.00000000   0.00000000   0.00340342            0.00        0.00      500.66


     Writing all to output data dir ./output/LiSi.save/

     init_run     :      1.19s CPU      1.65s WALL (       2 calls)
     electrons    :     25.73s CPU     30.26s WALL (       7 calls)
     update_pot   :      1.93s CPU      1.99s WALL (       5 calls)
     forces       :      1.71s CPU      1.81s WALL (       7 calls)
     stress       :      7.13s CPU      7.52s WALL (       7 calls)

     Called by init_run:
     wfcinit      :      0.35s CPU      0.37s WALL (       2 calls)
     potinit      :      0.34s CPU      0.64s WALL (       2 calls)
     hinit0       :      0.46s CPU      0.54s WALL (       2 calls)

     Called by electrons:
     c_bands      :     22.65s CPU     26.32s WALL (      55 calls)
     sum_band     :      2.58s CPU      2.78s WALL (      55 calls)
     v_of_rho     :      0.51s CPU      1.27s WALL (      61 calls)
     mix_rho      :      0.04s CPU      0.06s WALL (      55 calls)

     Called by c_bands:
     init_us_2    :      0.66s CPU      0.72s WALL (    3780 calls)
     init_us_2:cp :      0.65s CPU      0.71s WALL (    3780 calls)
     cegterg      :     20.38s CPU     21.08s WALL (    1650 calls)

     Called by *egterg:
     cdiaghg      :      1.66s CPU      1.71s WALL (    7690 calls)
     h_psi        :     16.49s CPU     17.07s WALL (    7930 calls)
     g_psi        :      0.10s CPU      0.10s WALL (    6220 calls)

     Called by h_psi:
     h_psi:calbec :      1.68s CPU      1.73s WALL (    7930 calls)
     vloc_psi     :     13.35s CPU     13.83s WALL (    7930 calls)
     add_vuspsi   :      1.38s CPU      1.42s WALL (    7930 calls)

     General routines
     calbec       :      2.08s CPU      2.14s WALL (    8980 calls)
     fft          :      0.69s CPU      1.67s WALL (     784 calls)
     ffts         :      0.01s CPU      0.05s WALL (      55 calls)
     fftw         :     13.53s CPU     14.00s WALL (  165154 calls)

     Parallel routines

     PWSCF        :     37.96s CPU     43.90s WALL


   This run was terminated on:  20:18:16  29Dec2024            

=------------------------------------------------------------------------------=
   JOB DONE.
=------------------------------------------------------------------------------=
