
     Program PWSCF v.7.2 starts on 29Dec2024 at 21:30:11 

     This program is part of the open-source Quantum ESPRESSO suite
     for quantum simulation of materials; please cite
         "P. Giannozzi et al., J. Phys.:Condens. Matter 21 395502 (2009);
         "P. Giannozzi et al., J. Phys.:Condens. Matter 29 465901 (2017);
         "P. Giannozzi et al., J. Chem. Phys. 152 154105 (2020);
          URL http://www.quantum-espresso.org", 
     in publications or presentations arising from this work. More details at
     http://www.quantum-espresso.org/quote

     Parallel version (MPI & OpenMP), running on       8 processor cores
     Number of MPI processes:                 8
     Threads/MPI process:                     1

     MPI processes distributed on     1 nodes
     482198 MiB available memory on the printing compute node when the environment starts

     Waiting for input...
     Reading input from standard input

     Current dimensions of program PWSCF are:
     Max number of different atomic species (ntypx) = 10
     Max number of k-points (npk) =  40000
     Max angular momentum in pseudopotentials (lmaxx) =  4

     R & G space division:  proc/nbgrp/npool/nimage =       8
     Subspace diagonalization in iterative solution of the eigenvalue problem:
     a serial algorithm will be used


     Parallelization info
     --------------------
     sticks:   dense  smooth     PW     G-vecs:    dense   smooth      PW
     Min         144     144     41                 3659     3659     567
     Max         145     145     42                 3660     3660     570
     Sum        1153    1153    333                29279    29279    4553

     Using Slab Decomposition



     bravais-lattice index     =            1
     lattice parameter (alat)  =       6.7106  a.u.
     unit-cell volume          =     302.1931 (a.u.)^3
     number of atoms/cell      =            5
     number of atomic types    =            2
     number of electrons       =        16.00
     number of Kohn-Sham states=           12
     kinetic-energy cutoff     =      80.0000  Ry
     charge density cutoff     =     320.0000  Ry
     scf convergence threshold =      1.0E-08
     mixing beta               =       0.7000
     number of iterations used =            8  plain     mixing
     energy convergence thresh.=      1.0E-04
     force convergence thresh. =      1.0E-03
     press convergence thresh. =      1.0E+00
     Exchange-correlation= PBE
                           (   1   4   3   4   0   0   0)
     nstep                     =           50


     celldm(1)=   6.710603  celldm(2)=   0.000000  celldm(3)=   0.000000
     celldm(4)=   0.000000  celldm(5)=   0.000000  celldm(6)=   0.000000

     crystal axes: (cart. coord. in units of alat)
               a(1) = (   1.000000   0.000000   0.000000 )  
               a(2) = (   0.000000   1.000000   0.000000 )  
               a(3) = (   0.000000   0.000000   1.000000 )  

     reciprocal axes: (cart. coord. in units 2 pi/alat)
               b(1) = (  1.000000  0.000000  0.000000 )  
               b(2) = (  0.000000  1.000000  0.000000 )  
               b(3) = (  0.000000  0.000000  1.000000 )  


     PseudoPot. # 1 for Li read from file:
     ../pseudo/Li_ONCV_PBE_sr.upf
     MD5 check sum: 50ff420e78310ffa21704f3361e624a4
     Pseudo is Norm-conserving, Zval =  3.0
     Generated using ONCVPSP code by D. R. Hamann
     Using radial grid of 1944 points,  4 beta functions with: 
                l(1) =   0
                l(2) =   0
                l(3) =   1
                l(4) =   1

     PseudoPot. # 2 for Si read from file:
     ../pseudo/Si_ONCV_PBE_sr.upf
     MD5 check sum: e543d271109d17c80368dfa7c482276d
     Pseudo is Norm-conserving + core correction, Zval =  4.0
     Generated using ONCVPSP code by D. R. Hamann
     Using radial grid of 1510 points,  6 beta functions with: 
                l(1) =   0
                l(2) =   0
                l(3) =   1
                l(4) =   1
                l(5) =   2
                l(6) =   2

     atomic species   valence    mass     pseudopotential
        Li             3.00     6.94100     Li( 1.00)
        Si             4.00    28.08550     Si( 1.00)

     48 Sym. Ops., with inversion, found



   Cartesian axes

     site n.     atom                  positions (alat units)
         1           Li  tau(   1) = (   0.0000000   0.5000000   0.5000000  )
         2           Li  tau(   2) = (   0.5000000   0.0000000   0.5000000  )
         3           Li  tau(   3) = (   0.5000000   0.5000000   0.0000000  )
         4           Li  tau(   4) = (   0.0000000   0.0000000   0.0000000  )
         5           Si  tau(   5) = (   0.5000000   0.5000000   0.5000000  )

     number of k points=    20  Marzari-Vanderbilt smearing, width (Ry)=  0.0200
                       cart. coord. in units 2pi/alat
        k(    1) = (   0.0000000   0.0000000   0.0000000), wk =   0.0058309
        k(    2) = (   0.0000000   0.0000000   0.1428571), wk =   0.0349854
        k(    3) = (   0.0000000   0.0000000   0.2857143), wk =   0.0349854
        k(    4) = (   0.0000000   0.0000000   0.4285714), wk =   0.0349854
        k(    5) = (   0.0000000   0.1428571   0.1428571), wk =   0.0699708
        k(    6) = (   0.0000000   0.1428571   0.2857143), wk =   0.1399417
        k(    7) = (   0.0000000   0.1428571   0.4285714), wk =   0.1399417
        k(    8) = (   0.0000000   0.2857143   0.2857143), wk =   0.0699708
        k(    9) = (   0.0000000   0.2857143   0.4285714), wk =   0.1399417
        k(   10) = (   0.0000000   0.4285714   0.4285714), wk =   0.0699708
        k(   11) = (   0.1428571   0.1428571   0.1428571), wk =   0.0466472
        k(   12) = (   0.1428571   0.1428571   0.2857143), wk =   0.1399417
        k(   13) = (   0.1428571   0.1428571   0.4285714), wk =   0.1399417
        k(   14) = (   0.1428571   0.2857143   0.2857143), wk =   0.1399417
        k(   15) = (   0.1428571   0.2857143   0.4285714), wk =   0.2798834
        k(   16) = (   0.1428571   0.4285714   0.4285714), wk =   0.1399417
        k(   17) = (   0.2857143   0.2857143   0.2857143), wk =   0.0466472
        k(   18) = (   0.2857143   0.2857143   0.4285714), wk =   0.1399417
        k(   19) = (   0.2857143   0.4285714   0.4285714), wk =   0.1399417
        k(   20) = (   0.4285714   0.4285714   0.4285714), wk =   0.0466472

     Dense  grid:    29279 G-vectors     FFT dimensions: (  40,  40,  40)

     Estimated max dynamical RAM per process >      16.14 MB

     Estimated total dynamical RAM >     129.14 MB

     Initial potential from superposition of free atoms

     starting charge      15.9811, renormalised to      16.0000
     Starting wfcs are   12 randomized atomic wfcs

     total cpu time spent up to now is        1.0 secs

     Self-consistent Calculation

     iteration #  1     ecut=    80.00 Ry     beta= 0.70
     Davidson diagonalization with overlap
     ethr =  1.00E-02,  avg # of iterations =  5.5

     total cpu time spent up to now is        1.3 secs

     total energy              =     -65.30382396 Ry
     estimated scf accuracy    <       0.29879911 Ry

     iteration #  2     ecut=    80.00 Ry     beta= 0.70
     Davidson diagonalization with overlap
     ethr =  1.87E-03,  avg # of iterations =  2.8

     total cpu time spent up to now is        1.5 secs

     total energy              =     -65.39416568 Ry
     estimated scf accuracy    <       0.12672258 Ry

     iteration #  3     ecut=    80.00 Ry     beta= 0.70
     Davidson diagonalization with overlap
     ethr =  7.92E-04,  avg # of iterations =  2.7

     total cpu time spent up to now is        1.8 secs

     total energy              =     -65.41446607 Ry
     estimated scf accuracy    <       0.00092998 Ry

     iteration #  4     ecut=    80.00 Ry     beta= 0.70
     Davidson diagonalization with overlap
     ethr =  5.81E-06,  avg # of iterations =  5.2

     total cpu time spent up to now is        2.1 secs

     total energy              =     -65.41481646 Ry
     estimated scf accuracy    <       0.00018290 Ry

     iteration #  5     ecut=    80.00 Ry     beta= 0.70
     Davidson diagonalization with overlap
     ethr =  1.14E-06,  avg # of iterations =  2.1

     total cpu time spent up to now is        2.3 secs

     total energy              =     -65.41483853 Ry
     estimated scf accuracy    <       0.00000481 Ry

     iteration #  6     ecut=    80.00 Ry     beta= 0.70
     Davidson diagonalization with overlap
     ethr =  3.01E-08,  avg # of iterations =  2.1

     total cpu time spent up to now is        2.5 secs

     total energy              =     -65.41484023 Ry
     estimated scf accuracy    <       0.00000049 Ry

     iteration #  7     ecut=    80.00 Ry     beta= 0.70
     Davidson diagonalization with overlap
     ethr =  3.09E-09,  avg # of iterations =  2.0

     total cpu time spent up to now is        2.7 secs

     total energy              =     -65.41484030 Ry
     estimated scf accuracy    <       0.00000001 Ry

     iteration #  8     ecut=    80.00 Ry     beta= 0.70
     Davidson diagonalization with overlap
     ethr =  8.89E-11,  avg # of iterations =  2.3

     total cpu time spent up to now is        2.9 secs

     End of self-consistent calculation

          k = 0.0000 0.0000 0.0000 (  3743 PWs)   bands (ev):

   -39.2988 -39.0706 -39.0706 -38.9630  -1.2505   4.3217   4.3217   4.3217
     9.8355  13.2409  13.2409  15.1890

          k = 0.0000 0.0000 0.1429 (  3675 PWs)   bands (ev):

   -39.2869 -39.0787 -39.0704 -38.9650  -1.2115   3.8685   4.4870   4.4870
    10.3015  12.8467  13.0619  13.6443

          k = 0.0000 0.0000 0.2857 (  3659 PWs)   bands (ev):

   -39.2548 -39.1033 -39.0699 -38.9687  -1.1119   3.0535   4.9292   4.9292
    10.4614  11.5783  11.5783  12.7026

          k = 0.0000 0.0000 0.4286 (  3631 PWs)   bands (ev):

   -39.2146 -39.1383 -39.0696 -38.9709  -1.0159   2.5044   5.4048   5.4048
    10.1945  10.2435  10.2435  12.4472

          k = 0.0000 0.1429 0.1429 (  3679 PWs)   bands (ev):

   -39.2757 -39.0817 -39.0746 -38.9671  -1.1785   3.7978   4.2866   4.6505
    10.7846  11.6508  12.6316  13.4174

          k = 0.0000 0.1429 0.2857 (  3656 PWs)   bands (ev):

   -39.2450 -39.1029 -39.0758 -38.9711  -1.0950   3.1528   4.5726   5.0869
     9.8307  11.2819  11.7529  13.1732

          k = 0.0000 0.1429 0.4286 (  3655 PWs)   bands (ev):

   -39.2067 -39.1356 -39.0754 -38.9736  -1.0164   2.6508   5.0057   5.5534
     8.7775  10.4519  10.9335  13.7153

          k = 0.0000 0.2857 0.2857 (  3642 PWs)   bands (ev):

   -39.2186 -39.1066 -39.0889 -38.9762  -1.0540   3.2718   4.1353   5.5041
     8.1129  11.9754  12.7816  12.7829

          k = 0.0000 0.2857 0.4286 (  3652 PWs)   bands (ev):

   -39.1852 -39.1293 -39.0922 -38.9799  -1.0174   3.0789   4.3327   5.9420
     6.9569  11.0428  12.4918  13.1598

          k = 0.0000 0.4286 0.4286 (  3636 PWs)   bands (ev):

   -39.1570 -39.1265 -39.1141 -38.9853  -1.0184   3.6447   3.9596   5.6126
     6.3397  11.7279  11.9512  13.9247

          k = 0.1429 0.1429 0.1429 (  3671 PWs)   bands (ev):

   -39.2649 -39.0815 -39.0815 -38.9692  -1.1524   3.7203   4.4649   4.4649
    11.4504  11.4598  11.4598  12.4524

          k = 0.1429 0.1429 0.2857 (  3655 PWs)   bands (ev):

   -39.2359 -39.1026 -39.0810 -38.9733  -1.0876   3.2285   4.5600   4.9695
     9.7138  10.5923  11.6133  13.1478

          k = 0.1429 0.1429 0.4286 (  3652 PWs)   bands (ev):

   -39.1994 -39.1333 -39.0806 -38.9758  -1.0280   2.7933   4.8211   5.6073
     8.3889   9.8348  11.2492  14.4357

          k = 0.1429 0.2857 0.2857 (  3657 PWs)   bands (ev):

   -39.2110 -39.1063 -39.0930 -38.9778  -1.0703   3.3160   4.3147   5.2823
     8.3050  10.6266  11.0501  13.5943

          k = 0.1429 0.2857 0.4286 (  3647 PWs)   bands (ev):

   -39.1797 -39.1282 -39.0955 -38.9810  -1.0557   3.2091   4.3867   5.8864
     7.0313   9.9898  11.1235  14.2849

          k = 0.1429 0.4286 0.4286 (  3638 PWs)   bands (ev):

   -39.1538 -39.1262 -39.1152 -38.9854  -1.0794   3.7649   4.1155   5.6048
     6.4544  10.3929  10.4331  14.1032

          k = 0.2857 0.2857 0.2857 (  3638 PWs)   bands (ev):

   -39.1906 -39.1058 -39.1058 -38.9811  -1.1093   3.4392   4.8542   4.8542
     8.6568   8.6568  10.0865  14.1366

          k = 0.2857 0.2857 0.4286 (  3655 PWs)   bands (ev):

   -39.1648 -39.1257 -39.1054 -38.9835  -1.1429   3.5863   4.5211   5.7565
     7.0249   8.8032   9.7175  13.8098

          k = 0.2857 0.4286 0.4286 (  3648 PWs)   bands (ev):

   -39.1456 -39.1256 -39.1187 -38.9856  -1.2135   4.1210   4.5735   5.5300
     6.7408   8.5221   8.8346  13.0411

          k = 0.4286 0.4286 0.4286 (  3638 PWs)   bands (ev):

   -39.1353 -39.1251 -39.1251 -38.9858  -1.3180   4.6624   5.2292   5.2292
     7.1348   7.1348   7.7453  12.3694

     the Fermi energy is     6.0904 ev

!    total energy              =     -65.41484030 Ry
     estimated scf accuracy    <          1.4E-09 Ry
     smearing contrib. (-TS)   =       0.00189880 Ry
     internal energy E=F+TS    =     -65.41673910 Ry

     The total energy is F=E-TS. E is the sum of the following terms:
     one-electron contribution =     -25.92958132 Ry
     hartree contribution      =      13.22137666 Ry
     xc contribution           =     -17.45009393 Ry
     ewald contribution        =     -35.25844052 Ry

     convergence has been achieved in   8 iterations

     Forces acting on atoms (cartesian axes, Ry/au):

     atom    1 type  1   force =     0.00000000    0.00000000    0.00000000
     atom    2 type  1   force =     0.00000000    0.00000000    0.00000000
     atom    3 type  1   force =     0.00000000    0.00000000    0.00000000
     atom    4 type  1   force =     0.00000000    0.00000000    0.00000000
     atom    5 type  2   force =     0.00000000    0.00000000    0.00000000
     The non-local contrib.  to forces
     atom    1 type  1   force =     0.00000000    0.00000000    0.00000000
     atom    2 type  1   force =     0.00000000    0.00000000    0.00000000
     atom    3 type  1   force =     0.00000000    0.00000000    0.00000000
     atom    4 type  1   force =     0.00000000    0.00000000    0.00000000
     atom    5 type  2   force =     0.00000000    0.00000000    0.00000000
     The ionic contribution  to forces
     atom    1 type  1   force =    -0.00000000    0.00000000    0.00000000
     atom    2 type  1   force =     0.00000000   -0.00000000    0.00000000
     atom    3 type  1   force =     0.00000000    0.00000000   -0.00000000
     atom    4 type  1   force =    -0.00000000   -0.00000000   -0.00000000
     atom    5 type  2   force =     0.00000000    0.00000000    0.00000000
     The local contribution  to forces
     atom    1 type  1   force =    -0.00000000    0.00000000    0.00000000
     atom    2 type  1   force =     0.00000000    0.00000000    0.00000000
     atom    3 type  1   force =     0.00000000    0.00000000    0.00000000
     atom    4 type  1   force =    -0.00000000    0.00000000    0.00000000
     atom    5 type  2   force =     0.00000000   -0.00000000    0.00000000
     The core correction contribution to forces
     atom    1 type  1   force =     0.00000000    0.00000000    0.00000000
     atom    2 type  1   force =     0.00000000    0.00000000    0.00000000
     atom    3 type  1   force =     0.00000000    0.00000000    0.00000000
     atom    4 type  1   force =     0.00000000    0.00000000    0.00000000
     atom    5 type  2   force =    -0.00000000   -0.00000000   -0.00000000
     The Hubbard contrib.    to forces
     atom    1 type  1   force =     0.00000000    0.00000000    0.00000000
     atom    2 type  1   force =     0.00000000    0.00000000    0.00000000
     atom    3 type  1   force =     0.00000000    0.00000000    0.00000000
     atom    4 type  1   force =     0.00000000    0.00000000    0.00000000
     atom    5 type  2   force =     0.00000000    0.00000000    0.00000000
     The SCF correction term to forces
     atom    1 type  1   force =     0.00000000    0.00000000    0.00000000
     atom    2 type  1   force =     0.00000000   -0.00000000    0.00000000
     atom    3 type  1   force =     0.00000000   -0.00000000    0.00000000
     atom    4 type  1   force =     0.00000000    0.00000000    0.00000000
     atom    5 type  2   force =     0.00000000    0.00000000   -0.00000000

     Total force =     0.000000     Total SCF correction =     0.000000


     Computing stress (Cartesian axis) and pressure

          total   stress  (Ry/bohr**3)                   (kbar)     P=      831.37
   0.00565156   0.00000000   0.00000000          831.37        0.00        0.00
   0.00000000   0.00565156   0.00000000            0.00      831.37        0.00
   0.00000000   0.00000000   0.00565156            0.00        0.00      831.37


     BFGS Geometry Optimization
     Energy error            =      0.0E+00 Ry
     Gradient error          =      0.0E+00 Ry/Bohr
     Cell gradient error     =      3.3E+02 kbar

     number of scf cycles    =   1
     number of bfgs steps    =   0

     enthalpy           new  =     -64.3877067737 Ry

     new trust radius        =       0.1957953920 bohr
ibrav =      1
 celldm(1) =      7.08851552
Input lattice vectors:
     1.05631579     0.00000000     0.00000000
     0.00000000     1.05631579     0.00000000
     0.00000000     0.00000000     1.05631579
New lattice vectors in INITIAL alat:
     1.05631579     0.00000000     0.00000000
     0.00000000     1.05631579     0.00000000
     0.00000000     0.00000000     1.05631579
New lattice vectors in NEW alat (for information only):
     1.00000000     0.00000000     0.00000000
     0.00000000     1.00000000     0.00000000
     0.00000000     0.00000000     1.00000000
Discrepancy in bohr =     0.000000    0.000000    0.000000
     new conv_thr            =       0.0000000100 Ry

     new unit-cell volume =    356.17701 a.u.^3 (    52.77999 Ang^3 )
     density =      1.75711 g/cm^3

CELL_PARAMETERS (alat=  6.71060263)
   1.056315791   0.000000000   0.000000000
   0.000000000   1.056315791   0.000000000
   0.000000000   0.000000000   1.056315791

ATOMIC_POSITIONS (crystal)
Li            0.0000000000        0.5000000000        0.5000000000
Li            0.5000000000        0.0000000000        0.5000000000
Li            0.5000000000        0.5000000000        0.0000000000
Li            0.0000000000        0.0000000000        0.0000000000
Si            0.5000000000        0.5000000000        0.5000000000



     Writing config-only to output data dir ./output/LiSi.save/
     NEW-OLD atomic charge density approx. for the potential
     extrapolated charge   18.42218, renormalised to   16.00000

     total cpu time spent up to now is        4.1 secs

     Self-consistent Calculation

     iteration #  1     ecut=    80.00 Ry     beta= 0.70
     Davidson diagonalization with overlap
     ethr =  1.00E-06,  avg # of iterations =  7.4

     total cpu time spent up to now is        4.5 secs

     total energy              =     -65.54910696 Ry
     estimated scf accuracy    <       0.02996528 Ry

     iteration #  2     ecut=    80.00 Ry     beta= 0.70
     Davidson diagonalization with overlap
     ethr =  1.87E-04,  avg # of iterations =  3.4

     total cpu time spent up to now is        4.7 secs

     total energy              =     -65.66726062 Ry
     estimated scf accuracy    <       0.20126581 Ry

     iteration #  3     ecut=    80.00 Ry     beta= 0.70
     Davidson diagonalization with overlap
     ethr =  1.87E-04,  avg # of iterations =  2.0

     total cpu time spent up to now is        4.9 secs

     total energy              =     -65.66353094 Ry
     estimated scf accuracy    <       0.05635512 Ry

     iteration #  4     ecut=    80.00 Ry     beta= 0.70
     Davidson diagonalization with overlap
     ethr =  1.87E-04,  avg # of iterations =  1.0

     total cpu time spent up to now is        5.1 secs

     total energy              =     -65.65823322 Ry
     estimated scf accuracy    <       0.02101503 Ry

     iteration #  5     ecut=    80.00 Ry     beta= 0.70
     Davidson diagonalization with overlap
     ethr =  1.31E-04,  avg # of iterations =  1.0

     total cpu time spent up to now is        5.3 secs

     total energy              =     -65.65891667 Ry
     estimated scf accuracy    <       0.00270336 Ry

     iteration #  6     ecut=    80.00 Ry     beta= 0.70
     Davidson diagonalization with overlap
     ethr =  1.69E-05,  avg # of iterations =  1.6

     total cpu time spent up to now is        5.5 secs

     total energy              =     -65.65887649 Ry
     estimated scf accuracy    <       0.00064832 Ry

     iteration #  7     ecut=    80.00 Ry     beta= 0.70
     Davidson diagonalization with overlap
     ethr =  4.05E-06,  avg # of iterations =  2.2

     total cpu time spent up to now is        5.7 secs

     total energy              =     -65.65889587 Ry
     estimated scf accuracy    <       0.00010666 Ry

     iteration #  8     ecut=    80.00 Ry     beta= 0.70
     Davidson diagonalization with overlap
     ethr =  6.67E-07,  avg # of iterations =  1.9

     total cpu time spent up to now is        5.8 secs

     total energy              =     -65.65889841 Ry
     estimated scf accuracy    <       0.00001329 Ry

     iteration #  9     ecut=    80.00 Ry     beta= 0.70
     Davidson diagonalization with overlap
     ethr =  8.31E-08,  avg # of iterations =  2.1

     total cpu time spent up to now is        6.1 secs

     total energy              =     -65.65890228 Ry
     estimated scf accuracy    <       0.00000438 Ry

     iteration # 10     ecut=    80.00 Ry     beta= 0.70
     Davidson diagonalization with overlap
     ethr =  2.74E-08,  avg # of iterations =  1.2

     total cpu time spent up to now is        6.2 secs

     total energy              =     -65.65890271 Ry
     estimated scf accuracy    <       0.00000014 Ry

     iteration # 11     ecut=    80.00 Ry     beta= 0.70
     Davidson diagonalization with overlap
     ethr =  8.91E-10,  avg # of iterations =  2.3

     total cpu time spent up to now is        6.4 secs

     total energy              =     -65.65890273 Ry
     estimated scf accuracy    <       0.00000001 Ry

     iteration # 12     ecut=    80.00 Ry     beta= 0.70
     Davidson diagonalization with overlap
     ethr =  8.87E-11,  avg # of iterations =  2.0
     Minimization algorithm failed to find Fermi energy: reverting to bisection
     Possible cause: smearing is larger than the electronic band-gap.

     total cpu time spent up to now is        6.6 secs

     End of self-consistent calculation

          k = 0.0000 0.0000 0.0000 (  3743 PWs)   bands (ev):

   -40.7619 -40.2184 -40.1047 -40.1047  -2.4842   3.2745   3.2745   3.2745
     7.5396  11.2542  11.2542  12.9111

          k = 0.0000 0.0000 0.1352 (  3675 PWs)   bands (ev):

   -40.7612 -40.2136 -40.1094 -40.1046  -2.4425   2.8101   3.4168   3.4168
     8.0393  10.8706  11.1572  11.7366

          k = 0.0000 0.0000 0.2705 (  3659 PWs)   bands (ev):

   -40.7595 -40.2008 -40.1219 -40.1044  -2.3378   2.0094   3.7932   3.7932
     8.4562   9.9744   9.9744  10.9494

          k = 0.0000 0.0000 0.4057 (  3631 PWs)   bands (ev):

   -40.7581 -40.1862 -40.1362 -40.1042  -2.2397   1.4829   4.1877   4.1877
     8.3528   8.8255   8.8255  10.7923

          k = 0.0000 0.1352 0.1352 (  3679 PWs)   bands (ev):

   -40.7605 -40.2089 -40.1114 -40.1070  -2.4059   2.7297   3.2062   3.5573
     8.5655   9.8833  10.7347  11.5038

          k = 0.0000 0.1352 0.2705 (  3656 PWs)   bands (ev):

   -40.7590 -40.1964 -40.1225 -40.1078  -2.3151   2.1029   3.4413   3.9277
     8.3667   9.1986  10.1253  11.0301

          k = 0.0000 0.1352 0.4057 (  3655 PWs)   bands (ev):

   -40.7578 -40.1820 -40.1364 -40.1077  -2.2313   1.6233   3.8074   4.3136
     7.4583   9.0155   9.0260  11.6647

          k = 0.0000 0.2705 0.2705 (  3642 PWs)   bands (ev):

   -40.7578 -40.1845 -40.1263 -40.1147  -2.2601   2.2164   3.0063   4.2794
     6.8169  10.2976  10.4019  10.8500

          k = 0.0000 0.2705 0.4057 (  3652 PWs)   bands (ev):

   -40.7569 -40.1703 -40.1368 -40.1175  -2.2117   2.0300   3.1706   4.6386
     5.7708   9.5578  10.4211  11.4942

          k = 0.0000 0.4057 0.4057 (  3636 PWs)   bands (ev):

   -40.7562 -40.1551 -40.1382 -40.1302  -2.1949   2.5501   2.8146   4.5380
     4.9621  10.2006  10.4492  11.6925

          k = 0.1352 0.1352 0.1352 (  3671 PWs)   bands (ev):

   -40.7599 -40.2044 -40.1113 -40.1113  -2.3751   2.6520   3.3627   3.3627
     9.1094   9.8000   9.8000  10.6190

          k = 0.1352 0.1352 0.2705 (  3655 PWs)   bands (ev):

   -40.7585 -40.1922 -40.1228 -40.1110  -2.2995   2.1781   3.4266   3.7993
     8.2895   9.0003   9.5290  11.0829

          k = 0.1352 0.1352 0.4057 (  3652 PWs)   bands (ev):

   -40.7574 -40.1780 -40.1365 -40.1108  -2.2312   1.7615   3.6531   4.3267
     7.1506   8.3048   9.3424  12.3903

          k = 0.1352 0.2705 0.2705 (  3657 PWs)   bands (ev):

   -40.7575 -40.1810 -40.1262 -40.1176  -2.2627   2.2687   3.1737   4.0697
     6.9751   9.0495   9.2471  11.3159

          k = 0.1352 0.2705 0.4057 (  3647 PWs)   bands (ev):

   -40.7567 -40.1674 -40.1368 -40.1197  -2.2312   2.1609   3.2393   4.5723
     5.8369   8.4230   9.3669  12.1512

          k = 0.1352 0.4057 0.4057 (  3638 PWs)   bands (ev):

   -40.7561 -40.1534 -40.1381 -40.1310  -2.2315   2.6777   2.9731   4.5461
     5.0228   8.8044   8.8070  12.0030

          k = 0.2705 0.2705 0.2705 (  3638 PWs)   bands (ev):

   -40.7568 -40.1714 -40.1259 -40.1259  -2.2696   2.4022   3.6746   3.6746
     7.2478   7.2478   8.3189  11.9206

          k = 0.2705 0.2705 0.4057 (  3655 PWs)   bands (ev):

   -40.7562 -40.1594 -40.1368 -40.1257  -2.2761   2.5370   3.3931   4.4887
     5.7671   7.2268   8.0634  11.6912

          k = 0.2705 0.4057 0.4057 (  3648 PWs)   bands (ev):

   -40.7558 -40.1491 -40.1378 -40.1335  -2.3130   3.0530   3.4473   4.4936
     5.2176   6.9916   7.2260  10.9527

          k = 0.4057 0.4057 0.4057 (  3638 PWs)   bands (ev):

   -40.7555 -40.1435 -40.1376 -40.1376  -2.3776   3.6218   4.2041   4.2041
     5.5519   5.5519   6.1378  10.2700

     the Fermi energy is     4.7806 ev

!    total energy              =     -65.65890273 Ry
     estimated scf accuracy    <          1.2E-10 Ry
     smearing contrib. (-TS)   =       0.00194339 Ry
     internal energy E=F+TS    =     -65.66084612 Ry

     The total energy is F=E-TS. E is the sum of the following terms:
     one-electron contribution =     -28.95435132 Ry
     hartree contribution      =      13.90220066 Ry
     xc contribution           =     -17.23000243 Ry
     ewald contribution        =     -33.37869302 Ry

     convergence has been achieved in  12 iterations

     Forces acting on atoms (cartesian axes, Ry/au):

     atom    1 type  1   force =     0.00000000    0.00000000    0.00000000
     atom    2 type  1   force =     0.00000000    0.00000000    0.00000000
     atom    3 type  1   force =     0.00000000    0.00000000    0.00000000
     atom    4 type  1   force =     0.00000000    0.00000000    0.00000000
     atom    5 type  2   force =     0.00000000    0.00000000    0.00000000
     The non-local contrib.  to forces
     atom    1 type  1   force =     0.00000000    0.00000000    0.00000000
     atom    2 type  1   force =     0.00000000    0.00000000    0.00000000
     atom    3 type  1   force =     0.00000000    0.00000000    0.00000000
     atom    4 type  1   force =     0.00000000    0.00000000    0.00000000
     atom    5 type  2   force =     0.00000000    0.00000000    0.00000000
     The ionic contribution  to forces
     atom    1 type  1   force =    -0.00000000    0.00000000    0.00000000
     atom    2 type  1   force =     0.00000000   -0.00000000    0.00000000
     atom    3 type  1   force =     0.00000000    0.00000000   -0.00000000
     atom    4 type  1   force =    -0.00000000   -0.00000000   -0.00000000
     atom    5 type  2   force =     0.00000000   -0.00000000    0.00000000
     The local contribution  to forces
     atom    1 type  1   force =    -0.00000000   -0.00000000   -0.00000000
     atom    2 type  1   force =    -0.00000000    0.00000000   -0.00000000
     atom    3 type  1   force =    -0.00000000   -0.00000000    0.00000000
     atom    4 type  1   force =    -0.00000000    0.00000000    0.00000000
     atom    5 type  2   force =     0.00000000   -0.00000000    0.00000000
     The core correction contribution to forces
     atom    1 type  1   force =     0.00000000    0.00000000    0.00000000
     atom    2 type  1   force =     0.00000000    0.00000000    0.00000000
     atom    3 type  1   force =     0.00000000    0.00000000    0.00000000
     atom    4 type  1   force =     0.00000000    0.00000000    0.00000000
     atom    5 type  2   force =     0.00000000    0.00000000    0.00000000
     The Hubbard contrib.    to forces
     atom    1 type  1   force =     0.00000000    0.00000000    0.00000000
     atom    2 type  1   force =     0.00000000    0.00000000    0.00000000
     atom    3 type  1   force =     0.00000000    0.00000000    0.00000000
     atom    4 type  1   force =     0.00000000    0.00000000    0.00000000
     atom    5 type  2   force =     0.00000000    0.00000000    0.00000000
     The SCF correction term to forces
     atom    1 type  1   force =     0.00000000    0.00000000   -0.00000000
     atom    2 type  1   force =     0.00000000    0.00000000   -0.00000000
     atom    3 type  1   force =    -0.00000000    0.00000000   -0.00000000
     atom    4 type  1   force =    -0.00000000   -0.00000000   -0.00000000
     atom    5 type  2   force =     0.00000000   -0.00000000   -0.00000000

     Total force =     0.000000     Total SCF correction =     0.000000


     Computing stress (Cartesian axis) and pressure

          total   stress  (Ry/bohr**3)                   (kbar)     P=      526.56
   0.00357951   0.00000000   0.00000000          526.56        0.00        0.00
   0.00000000   0.00357951   0.00000000            0.00      526.56        0.00
   0.00000000   0.00000000   0.00357951            0.00        0.00      526.56

     Energy error            =      6.1E-02 Ry
     Gradient error          =      0.0E+00 Ry/Bohr
     Cell gradient error     =      2.7E+01 kbar

     number of scf cycles    =   2
     number of bfgs steps    =   1

     enthalpy           old  =     -64.3877067737 Ry
     enthalpy           new  =     -64.4482816776 Ry

     CASE: enthalpy          _new < enthalpy          _old

     new trust radius        =       0.0197679816 bohr
ibrav =      1
 celldm(1) =      7.12563951
Input lattice vectors:
     1.06184793     0.00000000     0.00000000
     0.00000000     1.06184793     0.00000000
     0.00000000     0.00000000     1.06184793
New lattice vectors in INITIAL alat:
     1.06184793     0.00000000     0.00000000
     0.00000000     1.06184793     0.00000000
     0.00000000     0.00000000     1.06184793
New lattice vectors in NEW alat (for information only):
     1.00000000     0.00000000     0.00000000
     0.00000000     1.00000000     0.00000000
     0.00000000     0.00000000     1.00000000
Discrepancy in bohr =     0.000000    0.000000    0.000000
     new conv_thr            =            1.0E-10 Ry

     new unit-cell volume =    361.80248 a.u.^3 (    53.61360 Ang^3 )
     density =      1.72979 g/cm^3

CELL_PARAMETERS (alat=  6.71060263)
   1.061847931   0.000000000   0.000000000
   0.000000000   1.061847931   0.000000000
   0.000000000   0.000000000   1.061847931

ATOMIC_POSITIONS (crystal)
Li            0.0000000000        0.5000000000        0.5000000000
Li            0.5000000000        0.0000000000        0.5000000000
Li            0.5000000000        0.5000000000        0.0000000000
Li            0.0000000000        0.0000000000        0.0000000000
Si            0.5000000000        0.5000000000        0.5000000000



     Writing config-only to output data dir ./output/LiSi.save/
     NEW-OLD atomic charge density approx. for the potential
     extrapolated charge   16.24848, renormalised to   16.00000

     total cpu time spent up to now is        7.7 secs

     Self-consistent Calculation

     iteration #  1     ecut=    80.00 Ry     beta= 0.70
     Davidson diagonalization with overlap
     ethr =  1.00E-06,  avg # of iterations =  3.9

     total cpu time spent up to now is        8.0 secs

     total energy              =     -65.67710024 Ry
     estimated scf accuracy    <       0.00062724 Ry

     iteration #  2     ecut=    80.00 Ry     beta= 0.70
     Davidson diagonalization with overlap
     ethr =  3.92E-06,  avg # of iterations =  3.2

     total cpu time spent up to now is        8.2 secs

     total energy              =     -65.67859703 Ry
     estimated scf accuracy    <       0.00364287 Ry

     iteration #  3     ecut=    80.00 Ry     beta= 0.70
     Davidson diagonalization with overlap
     ethr =  3.92E-06,  avg # of iterations =  2.0

     total cpu time spent up to now is        8.4 secs

     total energy              =     -65.67861855 Ry
     estimated scf accuracy    <       0.00074021 Ry

     iteration #  4     ecut=    80.00 Ry     beta= 0.70
     Davidson diagonalization with overlap
     ethr =  3.92E-06,  avg # of iterations =  1.0
     Minimization algorithm failed to find Fermi energy: reverting to bisection
     Possible cause: smearing is larger than the electronic band-gap.

     total cpu time spent up to now is        8.6 secs

     total energy              =     -65.67854306 Ry
     estimated scf accuracy    <       0.00021953 Ry

     iteration #  5     ecut=    80.00 Ry     beta= 0.70
     Davidson diagonalization with overlap
     ethr =  1.37E-06,  avg # of iterations =  2.0

     total cpu time spent up to now is        8.8 secs

     total energy              =     -65.67858537 Ry
     estimated scf accuracy    <       0.00000161 Ry

     iteration #  6     ecut=    80.00 Ry     beta= 0.70
     Davidson diagonalization with overlap
     ethr =  1.01E-08,  avg # of iterations =  3.2

     total cpu time spent up to now is        9.0 secs

     total energy              =     -65.67858594 Ry
     estimated scf accuracy    <       0.00000030 Ry

     iteration #  7     ecut=    80.00 Ry     beta= 0.70
     Davidson diagonalization with overlap
     ethr =  1.85E-09,  avg # of iterations =  1.4

     total cpu time spent up to now is        9.1 secs

     total energy              =     -65.67858563 Ry
     estimated scf accuracy    <       0.00000076 Ry

     iteration #  8     ecut=    80.00 Ry     beta= 0.70
     Davidson diagonalization with overlap
     ethr =  1.85E-09,  avg # of iterations =  2.0

     total cpu time spent up to now is        9.3 secs

     total energy              =     -65.67858574 Ry
     estimated scf accuracy    <          1.5E-09 Ry

     iteration #  9     ecut=    80.00 Ry     beta= 0.70
     Davidson diagonalization with overlap
     ethr =  9.17E-12,  avg # of iterations =  3.3

     total cpu time spent up to now is        9.5 secs

     End of self-consistent calculation

          k = 0.0000 0.0000 0.0000 (  3743 PWs)   bands (ev):

   -40.9248 -40.3087 -40.2002 -40.2002  -2.5844   3.1859   3.1859   3.1859
     7.3424  11.0783  11.0783  12.7096

          k = 0.0000 0.0000 0.1345 (  3675 PWs)   bands (ev):

   -40.9242 -40.3040 -40.2045 -40.2000  -2.5425   2.7201   3.3262   3.3262
     7.8440  10.6970  10.9878  11.5662

          k = 0.0000 0.0000 0.2691 (  3659 PWs)   bands (ev):

   -40.9228 -40.2916 -40.2165 -40.1998  -2.4376   1.9208   3.6970   3.6970
     8.2788   9.8316   9.8316  10.7928

          k = 0.0000 0.0000 0.4036 (  3631 PWs)   bands (ev):

   -40.9217 -40.2775 -40.2302 -40.1996  -2.3395   1.3966   4.0849   4.0849
     8.1900   8.6990   8.6990  10.6443

          k = 0.0000 0.1345 0.1345 (  3679 PWs)   bands (ev):

   -40.9236 -40.2995 -40.2064 -40.2023  -2.5056   2.6388   3.1145   3.4647
     8.3703   9.7305  10.5670  11.3337

          k = 0.0000 0.1345 0.2691 (  3656 PWs)   bands (ev):

   -40.9224 -40.2874 -40.2170 -40.2030  -2.4144   2.0137   3.3451   3.8296
     8.2357   9.0145   9.9804  10.8448

          k = 0.0000 0.1345 0.4036 (  3655 PWs)   bands (ev):

   -40.9215 -40.2735 -40.2304 -40.2030  -2.3304   1.5363   3.7057   4.2088
     7.3406   8.8577   8.8874  11.4760

          k = 0.0000 0.2691 0.2691 (  3642 PWs)   bands (ev):

   -40.9215 -40.2760 -40.2206 -40.2096  -2.3584   2.1265   2.9101   4.1757
     6.7018  10.1487  10.1956  10.6796

          k = 0.0000 0.2691 0.4036 (  3652 PWs)   bands (ev):

   -40.9207 -40.2624 -40.2307 -40.2123  -2.3091   1.9406   3.0715   4.5285
     5.6655   9.4254  10.2384  11.3470

          k = 0.0000 0.4036 0.4036 (  3636 PWs)   bands (ev):

   -40.9201 -40.2479 -40.2320 -40.2243  -2.2909   2.4562   2.7168   4.4431
     4.8459  10.0648  10.3161  11.4969

          k = 0.1345 0.1345 0.1345 (  3671 PWs)   bands (ev):

   -40.9232 -40.2952 -40.2063 -40.2063  -2.4745   2.5610   3.2691   3.2691
     8.9078   9.6526   9.6526  10.4563

          k = 0.1345 0.1345 0.2691 (  3655 PWs)   bands (ev):

   -40.9220 -40.2834 -40.2173 -40.2061  -2.3982   2.0887   3.3301   3.6998
     8.1634   8.8587   9.3434  10.9046

          k = 0.1345 0.1345 0.4036 (  3652 PWs)   bands (ev):

   -40.9212 -40.2697 -40.2304 -40.2060  -2.3293   1.6739   3.5537   4.2182
     7.0405   8.1683   9.1744  12.2020

          k = 0.1345 0.2691 0.2691 (  3657 PWs)   bands (ev):

   -40.9212 -40.2727 -40.2205 -40.2124  -2.3599   2.1793   3.0762   3.9662
     6.8578   8.9104   9.0868  11.1187

          k = 0.1345 0.2691 0.4036 (  3647 PWs)   bands (ev):

   -40.9205 -40.2596 -40.2306 -40.2143  -2.3271   2.0713   3.1411   4.4600
     5.7320   8.2846   9.2126  11.9609

          k = 0.1345 0.4036 0.4036 (  3638 PWs)   bands (ev):

   -40.9200 -40.2464 -40.2319 -40.2251  -2.3256   2.5840   2.8750   4.4520
     4.9024   8.6642   8.6649  11.8151

          k = 0.2691 0.2691 0.2691 (  3638 PWs)   bands (ev):

   -40.9206 -40.2635 -40.2203 -40.2203  -2.3643   2.3133   3.5727   3.5727
     7.1254   7.1254   8.1642  11.7243

          k = 0.2691 0.2691 0.4036 (  3655 PWs)   bands (ev):

   -40.9201 -40.2521 -40.2306 -40.2201  -2.3687   2.4464   3.2955   4.3762
     5.6614   7.0898   7.9207  11.5024

          k = 0.2691 0.4036 0.4036 (  3648 PWs)   bands (ev):

   -40.9198 -40.2423 -40.2316 -40.2275  -2.4028   2.9597   3.3487   4.3989
     5.0918   6.8610   7.0884  10.7665

          k = 0.4036 0.4036 0.4036 (  3638 PWs)   bands (ev):

   -40.9195 -40.2369 -40.2314 -40.2314  -2.4641   3.5289   4.1100   4.1100
     5.4217   5.4217   6.0031  10.0831

     the Fermi energy is     4.6730 ev

!    total energy              =     -65.67858574 Ry
     estimated scf accuracy    <          6.6E-12 Ry
     smearing contrib. (-TS)   =       0.00189065 Ry
     internal energy E=F+TS    =     -65.68047639 Ry

     The total energy is F=E-TS. E is the sum of the following terms:
     one-electron contribution =     -29.23294851 Ry
     hartree contribution      =      13.96761676 Ry
     xc contribution           =     -17.21035185 Ry
     ewald contribution        =     -33.20479279 Ry

     convergence has been achieved in   9 iterations

     Forces acting on atoms (cartesian axes, Ry/au):

     atom    1 type  1   force =     0.00000000    0.00000000    0.00000000
     atom    2 type  1   force =     0.00000000    0.00000000    0.00000000
     atom    3 type  1   force =     0.00000000    0.00000000    0.00000000
     atom    4 type  1   force =     0.00000000    0.00000000    0.00000000
     atom    5 type  2   force =     0.00000000    0.00000000    0.00000000
     The non-local contrib.  to forces
     atom    1 type  1   force =     0.00000000    0.00000000    0.00000000
     atom    2 type  1   force =     0.00000000    0.00000000    0.00000000
     atom    3 type  1   force =     0.00000000    0.00000000    0.00000000
     atom    4 type  1   force =     0.00000000    0.00000000    0.00000000
     atom    5 type  2   force =     0.00000000    0.00000000    0.00000000
     The ionic contribution  to forces
     atom    1 type  1   force =    -0.00000000    0.00000000    0.00000000
     atom    2 type  1   force =     0.00000000   -0.00000000    0.00000000
     atom    3 type  1   force =     0.00000000    0.00000000   -0.00000000
     atom    4 type  1   force =    -0.00000000   -0.00000000   -0.00000000
     atom    5 type  2   force =     0.00000000    0.00000000    0.00000000
     The local contribution  to forces
     atom    1 type  1   force =    -0.00000000    0.00000000    0.00000000
     atom    2 type  1   force =     0.00000000    0.00000000    0.00000000
     atom    3 type  1   force =     0.00000000    0.00000000   -0.00000000
     atom    4 type  1   force =    -0.00000000    0.00000000   -0.00000000
     atom    5 type  2   force =     0.00000000    0.00000000    0.00000000
     The core correction contribution to forces
     atom    1 type  1   force =     0.00000000    0.00000000    0.00000000
     atom    2 type  1   force =     0.00000000    0.00000000    0.00000000
     atom    3 type  1   force =     0.00000000    0.00000000    0.00000000
     atom    4 type  1   force =     0.00000000    0.00000000    0.00000000
     atom    5 type  2   force =    -0.00000000   -0.00000000    0.00000000
     The Hubbard contrib.    to forces
     atom    1 type  1   force =     0.00000000    0.00000000    0.00000000
     atom    2 type  1   force =     0.00000000    0.00000000    0.00000000
     atom    3 type  1   force =     0.00000000    0.00000000    0.00000000
     atom    4 type  1   force =     0.00000000    0.00000000    0.00000000
     atom    5 type  2   force =     0.00000000    0.00000000    0.00000000
     The SCF correction term to forces
     atom    1 type  1   force =     0.00000000    0.00000000   -0.00000000
     atom    2 type  1   force =     0.00000000   -0.00000000   -0.00000000
     atom    3 type  1   force =    -0.00000000   -0.00000000   -0.00000000
     atom    4 type  1   force =     0.00000000   -0.00000000   -0.00000000
     atom    5 type  2   force =    -0.00000000    0.00000000   -0.00000000

     Total force =     0.000000     Total SCF correction =     0.000000


     Computing stress (Cartesian axis) and pressure

          total   stress  (Ry/bohr**3)                   (kbar)     P=      503.04
   0.00341961   0.00000000   0.00000000          503.04        0.00        0.00
   0.00000000   0.00341961   0.00000000            0.00      503.04        0.00
   0.00000000   0.00000000   0.00341961            0.00        0.00      503.04

     Energy error            =      5.6E-04 Ry
     Gradient error          =      0.0E+00 Ry/Bohr
     Cell gradient error     =      3.0E+00 kbar

     number of scf cycles    =   3
     number of bfgs steps    =   2

     enthalpy           old  =     -64.4482816776 Ry
     enthalpy           new  =     -64.4488440924 Ry

     CASE: enthalpy          _new < enthalpy          _old

     new trust radius        =       0.0025942819 bohr
ibrav =      1
 celldm(1) =      7.13049883
Input lattice vectors:
     1.06257206     0.00000000     0.00000000
     0.00000000     1.06257206     0.00000000
     0.00000000     0.00000000     1.06257206
New lattice vectors in INITIAL alat:
     1.06257206     0.00000000     0.00000000
     0.00000000     1.06257206     0.00000000
     0.00000000     0.00000000     1.06257206
New lattice vectors in NEW alat (for information only):
     1.00000000     0.00000000     0.00000000
     0.00000000     1.00000000     0.00000000
     0.00000000     0.00000000     1.00000000
Discrepancy in bohr =     0.000000    0.000000    0.000000
     new conv_thr            =            1.0E-10 Ry

     new unit-cell volume =    362.54318 a.u.^3 (    53.72336 Ang^3 )
     density =      1.72626 g/cm^3

CELL_PARAMETERS (alat=  6.71060263)
   1.062572056   0.000000000   0.000000000
   0.000000000   1.062572056   0.000000000
   0.000000000   0.000000000   1.062572056

ATOMIC_POSITIONS (crystal)
Li            0.0000000000        0.5000000000        0.5000000000
Li            0.5000000000        0.0000000000        0.5000000000
Li            0.5000000000        0.5000000000        0.0000000000
Li            0.0000000000        0.0000000000        0.0000000000
Si            0.5000000000        0.5000000000        0.5000000000



     Writing config-only to output data dir ./output/LiSi.save/
     NEW-OLD atomic charge density approx. for the potential
     extrapolated charge   16.03265, renormalised to   16.00000

     total cpu time spent up to now is       10.6 secs

     Self-consistent Calculation

     iteration #  1     ecut=    80.00 Ry     beta= 0.70
     Davidson diagonalization with overlap
     ethr =  1.00E-06,  avg # of iterations =  2.0
     Minimization algorithm failed to find Fermi energy: reverting to bisection
     Possible cause: smearing is larger than the electronic band-gap.

     Threshold (ethr) on eigenvalues was too large:
     Diagonalizing with lowered threshold

     Davidson diagonalization with overlap
     ethr =  7.14E-08,  avg # of iterations =  1.8
     Minimization algorithm failed to find Fermi energy: reverting to bisection
     Possible cause: smearing is larger than the electronic band-gap.

     total cpu time spent up to now is       11.0 secs

     total energy              =     -65.68108454 Ry
     estimated scf accuracy    <       0.00001176 Ry

     iteration #  2     ecut=    80.00 Ry     beta= 0.70
     Davidson diagonalization with overlap
     ethr =  7.35E-08,  avg # of iterations =  3.0

     total cpu time spent up to now is       11.2 secs

     total energy              =     -65.68111118 Ry
     estimated scf accuracy    <       0.00006555 Ry

     iteration #  3     ecut=    80.00 Ry     beta= 0.70
     Davidson diagonalization with overlap
     ethr =  7.35E-08,  avg # of iterations =  2.0
     Minimization algorithm failed to find Fermi energy: reverting to bisection
     Possible cause: smearing is larger than the electronic band-gap.

     total cpu time spent up to now is       11.4 secs

     total energy              =     -65.68111154 Ry
     estimated scf accuracy    <       0.00001320 Ry

     iteration #  4     ecut=    80.00 Ry     beta= 0.70
     Davidson diagonalization with overlap
     ethr =  7.35E-08,  avg # of iterations =  1.0
     Minimization algorithm failed to find Fermi energy: reverting to bisection
     Possible cause: smearing is larger than the electronic band-gap.

     total cpu time spent up to now is       11.5 secs

     total energy              =     -65.68111026 Ry
     estimated scf accuracy    <       0.00000373 Ry

     iteration #  5     ecut=    80.00 Ry     beta= 0.70
     Davidson diagonalization with overlap
     ethr =  2.33E-08,  avg # of iterations =  2.0

     total cpu time spent up to now is       11.7 secs

     total energy              =     -65.68111104 Ry
     estimated scf accuracy    <       0.00000006 Ry

     iteration #  6     ecut=    80.00 Ry     beta= 0.70
     Davidson diagonalization with overlap
     ethr =  4.03E-10,  avg # of iterations =  2.2
     Minimization algorithm failed to find Fermi energy: reverting to bisection
     Possible cause: smearing is larger than the electronic band-gap.

     total cpu time spent up to now is       11.9 secs

     total energy              =     -65.68111104 Ry
     estimated scf accuracy    <       0.00000002 Ry

     iteration #  7     ecut=    80.00 Ry     beta= 0.70
     Davidson diagonalization with overlap
     ethr =  1.03E-10,  avg # of iterations =  1.1

     total cpu time spent up to now is       12.0 secs

     total energy              =     -65.68111104 Ry
     estimated scf accuracy    <       0.00000001 Ry

     iteration #  8     ecut=    80.00 Ry     beta= 0.70
     Davidson diagonalization with overlap
     ethr =  9.12E-11,  avg # of iterations =  1.9

     total cpu time spent up to now is       12.2 secs

     End of self-consistent calculation

          k = 0.0000 0.0000 0.0000 (  3743 PWs)   bands (ev):

   -40.9460 -40.3205 -40.2126 -40.2126  -2.5973   3.1744   3.1744   3.1744
     7.3169  11.0556  11.0556  12.6834

          k = 0.0000 0.0000 0.1344 (  3675 PWs)   bands (ev):

   -40.9454 -40.3158 -40.2169 -40.2124  -2.5553   2.7085   3.3145   3.3145
     7.8188  10.6745  10.9659  11.5441

          k = 0.0000 0.0000 0.2689 (  3659 PWs)   bands (ev):

   -40.9441 -40.3034 -40.2288 -40.2122  -2.4504   1.9094   3.6846   3.6846
     8.2558   9.8131   9.8131  10.7725

          k = 0.0000 0.0000 0.4033 (  3631 PWs)   bands (ev):

   -40.9430 -40.2893 -40.2424 -40.2121  -2.3523   1.3855   4.0716   4.0716
     8.1689   8.6826   8.6826  10.6251

          k = 0.0000 0.1344 0.1344 (  3679 PWs)   bands (ev):

   -40.9449 -40.3113 -40.2188 -40.2147  -2.5185   2.6270   3.1027   3.4527
     8.3451   9.7107  10.5453  11.3116

          k = 0.0000 0.1344 0.2689 (  3656 PWs)   bands (ev):

   -40.9437 -40.2993 -40.2293 -40.2154  -2.4271   2.0022   3.3327   3.8169
     8.2187   8.9907   9.9616  10.8208

          k = 0.0000 0.1344 0.4033 (  3655 PWs)   bands (ev):

   -40.9427 -40.2854 -40.2426 -40.2154  -2.3431   1.5250   3.6925   4.1953
     7.3253   8.8359   8.8708  11.4515

          k = 0.0000 0.2689 0.2689 (  3642 PWs)   bands (ev):

   -40.9427 -40.2880 -40.2329 -40.2220  -2.3710   2.1149   2.8977   4.1623
     6.6869  10.1294  10.1689  10.6575

          k = 0.0000 0.2689 0.4033 (  3652 PWs)   bands (ev):

   -40.9420 -40.2744 -40.2429 -40.2246  -2.3216   1.9290   3.0587   4.5142
     5.6519   9.4082  10.2148  11.3279

          k = 0.0000 0.4033 0.4033 (  3636 PWs)   bands (ev):

   -40.9415 -40.2600 -40.2442 -40.2365  -2.3032   2.4441   2.7042   4.4308
     4.8309  10.0472  10.2988  11.4716

          k = 0.1344 0.1344 0.1344 (  3671 PWs)   bands (ev):

   -40.9444 -40.3070 -40.2187 -40.2187  -2.4873   2.5493   3.2570   3.2570
     8.8817   9.6335   9.6335  10.4352

          k = 0.1344 0.1344 0.2689 (  3655 PWs)   bands (ev):

   -40.9433 -40.2953 -40.2296 -40.2185  -2.4109   2.0772   3.3177   3.6870
     8.1471   8.8403   9.3194  10.8816

          k = 0.1344 0.1344 0.4033 (  3652 PWs)   bands (ev):

   -40.9424 -40.2816 -40.2426 -40.2183  -2.3419   1.6626   3.5408   4.2042
     7.0263   8.1506   9.1527  12.1775

          k = 0.1344 0.2689 0.2689 (  3657 PWs)   bands (ev):

   -40.9425 -40.2846 -40.2328 -40.2247  -2.3724   2.1678   3.0636   3.9528
     6.8427   8.8924   9.0660  11.0932

          k = 0.1344 0.2689 0.4033 (  3647 PWs)   bands (ev):

   -40.9418 -40.2716 -40.2429 -40.2266  -2.3395   2.0597   3.1284   4.4455
     5.7185   8.2666   9.1926  11.9362

          k = 0.1344 0.4033 0.4033 (  3638 PWs)   bands (ev):

   -40.9413 -40.2585 -40.2440 -40.2374  -2.3377   2.5719   2.8623   4.4398
     4.8869   8.6456   8.6469  11.7908

          k = 0.2689 0.2689 0.2689 (  3638 PWs)   bands (ev):

   -40.9419 -40.2755 -40.2325 -40.2325  -2.3765   2.3018   3.5596   3.5596
     7.1096   7.1096   8.1442  11.6989

          k = 0.2689 0.2689 0.4033 (  3655 PWs)   bands (ev):

   -40.9414 -40.2641 -40.2428 -40.2324  -2.3806   2.4347   3.2829   4.3616
     5.6477   7.0721   7.9023  11.4779

          k = 0.2689 0.4033 0.4033 (  3648 PWs)   bands (ev):

   -40.9411 -40.2544 -40.2438 -40.2398  -2.4144   2.9476   3.3359   4.3865
     5.0756   6.8442   7.0706  10.7423

          k = 0.4033 0.4033 0.4033 (  3638 PWs)   bands (ev):

   -40.9409 -40.2491 -40.2436 -40.2436  -2.4752   3.5168   4.0977   4.0977
     5.4049   5.4049   5.9857  10.0589

     the Fermi energy is     4.6591 ev

!    total energy              =     -65.68111104 Ry
     estimated scf accuracy    <          7.8E-12 Ry
     smearing contrib. (-TS)   =       0.00188392 Ry
     internal energy E=F+TS    =     -65.68299496 Ry

     The total energy is F=E-TS. E is the sum of the following terms:
     one-electron contribution =     -29.26917416 Ry
     hartree contribution      =      13.97614094 Ry
     xc contribution           =     -17.20779747 Ry
     ewald contribution        =     -33.18216427 Ry

     convergence has been achieved in   8 iterations

     Forces acting on atoms (cartesian axes, Ry/au):

     atom    1 type  1   force =     0.00000000    0.00000000    0.00000000
     atom    2 type  1   force =     0.00000000    0.00000000    0.00000000
     atom    3 type  1   force =     0.00000000    0.00000000    0.00000000
     atom    4 type  1   force =     0.00000000    0.00000000    0.00000000
     atom    5 type  2   force =     0.00000000    0.00000000    0.00000000
     The non-local contrib.  to forces
     atom    1 type  1   force =     0.00000000    0.00000000    0.00000000
     atom    2 type  1   force =     0.00000000    0.00000000    0.00000000
     atom    3 type  1   force =     0.00000000    0.00000000    0.00000000
     atom    4 type  1   force =     0.00000000    0.00000000    0.00000000
     atom    5 type  2   force =     0.00000000    0.00000000    0.00000000
     The ionic contribution  to forces
     atom    1 type  1   force =    -0.00000000   -0.00000000    0.00000000
     atom    2 type  1   force =    -0.00000000   -0.00000000    0.00000000
     atom    3 type  1   force =     0.00000000   -0.00000000   -0.00000000
     atom    4 type  1   force =    -0.00000000   -0.00000000   -0.00000000
     atom    5 type  2   force =     0.00000000   -0.00000000    0.00000000
     The local contribution  to forces
     atom    1 type  1   force =    -0.00000000    0.00000000    0.00000000
     atom    2 type  1   force =     0.00000000    0.00000000    0.00000000
     atom    3 type  1   force =     0.00000000    0.00000000    0.00000000
     atom    4 type  1   force =    -0.00000000    0.00000000    0.00000000
     atom    5 type  2   force =     0.00000000    0.00000000   -0.00000000
     The core correction contribution to forces
     atom    1 type  1   force =     0.00000000    0.00000000    0.00000000
     atom    2 type  1   force =     0.00000000    0.00000000    0.00000000
     atom    3 type  1   force =     0.00000000    0.00000000    0.00000000
     atom    4 type  1   force =     0.00000000    0.00000000    0.00000000
     atom    5 type  2   force =    -0.00000000   -0.00000000   -0.00000000
     The Hubbard contrib.    to forces
     atom    1 type  1   force =     0.00000000    0.00000000    0.00000000
     atom    2 type  1   force =     0.00000000    0.00000000    0.00000000
     atom    3 type  1   force =     0.00000000    0.00000000    0.00000000
     atom    4 type  1   force =     0.00000000    0.00000000    0.00000000
     atom    5 type  2   force =     0.00000000    0.00000000    0.00000000
     The SCF correction term to forces
     atom    1 type  1   force =     0.00000000    0.00000000   -0.00000000
     atom    2 type  1   force =     0.00000000    0.00000000   -0.00000000
     atom    3 type  1   force =     0.00000000   -0.00000000   -0.00000000
     atom    4 type  1   force =    -0.00000000    0.00000000    0.00000000
     atom    5 type  2   force =    -0.00000000   -0.00000000    0.00000000

     Total force =     0.000000     Total SCF correction =     0.000000


     Computing stress (Cartesian axis) and pressure

          total   stress  (Ry/bohr**3)                   (kbar)     P=      500.03
   0.00339911   0.00000000   0.00000000          500.03        0.00        0.00
   0.00000000   0.00339911   0.00000000            0.00      500.03        0.00
   0.00000000   0.00000000   0.00339911            0.00        0.00      500.03

     Energy error            =      7.7E-06 Ry
     Gradient error          =      0.0E+00 Ry/Bohr
     Cell gradient error     =      2.6E-02 kbar
ibrav =      1
 celldm(1) =      7.13049883
Input lattice vectors:
     1.06257206     0.00000000     0.00000000
     0.00000000     1.06257206     0.00000000
     0.00000000     0.00000000     1.06257206
New lattice vectors in INITIAL alat:
     1.06257206     0.00000000     0.00000000
     0.00000000     1.06257206     0.00000000
     0.00000000     0.00000000     1.06257206
New lattice vectors in NEW alat (for information only):
     1.00000000     0.00000000     0.00000000
     0.00000000     1.00000000     0.00000000
     0.00000000     0.00000000     1.00000000
Discrepancy in bohr =     0.000000    0.000000    0.000000

     bfgs converged in   4 scf cycles and   3 bfgs steps
     (criteria: energy <  1.0E-04 Ry, force <  1.0E-03 Ry/Bohr, cell <  1.0E+00 kbar)

     End of BFGS Geometry Optimization

     Final enthalpy           =     -64.4488518172 Ry

     File ./output/LiSi.bfgs deleted, as requested
Begin final coordinates
     new unit-cell volume =    362.54318 a.u.^3 (    53.72336 Ang^3 )
     density =      1.72626 g/cm^3

CELL_PARAMETERS (alat=  6.71060263)
   1.062572056   0.000000000   0.000000000
   0.000000000   1.062572056   0.000000000
   0.000000000   0.000000000   1.062572056

ATOMIC_POSITIONS (crystal)
Li            0.0000000000        0.5000000000        0.5000000000
Li            0.5000000000        0.0000000000        0.5000000000
Li            0.5000000000        0.5000000000        0.0000000000
Li            0.0000000000        0.0000000000        0.0000000000
Si            0.5000000000        0.5000000000        0.5000000000
End final coordinates



     Writing config-only to output data dir ./output/LiSi.save/

     Final scf calculation at the relaxed structure.
     The G-vectors are recalculated for the final unit cell
     Results may differ from those at the preceding step.

     Parallelization info
     --------------------
     sticks:   dense  smooth     PW     G-vecs:    dense   smooth      PW
     Min         163     163     46                 4379     4379     680
     Max         164     164     47                 4380     4380     683
     Sum        1305    1305    373                35033    35033    5449

     Using Slab Decomposition



     bravais-lattice index     =            1
     lattice parameter (alat)  =       6.7106  a.u.
     unit-cell volume          =     362.5432 (a.u.)^3
     number of atoms/cell      =            5
     number of atomic types    =            2
     number of electrons       =        16.00
     number of Kohn-Sham states=           12
     kinetic-energy cutoff     =      80.0000  Ry
     charge density cutoff     =     320.0000  Ry
     scf convergence threshold =      1.0E-10
     mixing beta               =       0.7000
     number of iterations used =            8  plain     mixing
     press convergence thresh. =      1.0E+00
     Exchange-correlation= PBE
                           (   1   4   3   4   0   0   0)

     celldm(1)=   6.710603  celldm(2)=   0.000000  celldm(3)=   0.000000
     celldm(4)=   0.000000  celldm(5)=   0.000000  celldm(6)=   0.000000

     crystal axes: (cart. coord. in units of alat)
               a(1) = (   1.062572   0.000000   0.000000 )  
               a(2) = (   0.000000   1.062572   0.000000 )  
               a(3) = (   0.000000   0.000000   1.062572 )  

     reciprocal axes: (cart. coord. in units 2 pi/alat)
               b(1) = (  0.941113  0.000000  0.000000 )  
               b(2) = (  0.000000  0.941113  0.000000 )  
               b(3) = (  0.000000  0.000000  0.941113 )  


     PseudoPot. # 1 for Li read from file:
     ../pseudo/Li_ONCV_PBE_sr.upf
     MD5 check sum: 50ff420e78310ffa21704f3361e624a4
     Pseudo is Norm-conserving, Zval =  3.0
     Generated using ONCVPSP code by D. R. Hamann
     Using radial grid of 1944 points,  4 beta functions with: 
                l(1) =   0
                l(2) =   0
                l(3) =   1
                l(4) =   1

     PseudoPot. # 2 for Si read from file:
     ../pseudo/Si_ONCV_PBE_sr.upf
     MD5 check sum: e543d271109d17c80368dfa7c482276d
     Pseudo is Norm-conserving + core correction, Zval =  4.0
     Generated using ONCVPSP code by D. R. Hamann
     Using radial grid of 1510 points,  6 beta functions with: 
                l(1) =   0
                l(2) =   0
                l(3) =   1
                l(4) =   1
                l(5) =   2
                l(6) =   2

     atomic species   valence    mass     pseudopotential
        Li             3.00     6.94100     Li( 1.00)
        Si             4.00    28.08550     Si( 1.00)

     48 Sym. Ops., with inversion, found



   Cartesian axes

     site n.     atom                  positions (alat units)
         1           Li  tau(   1) = (   0.0000000   0.5312860   0.5312860  )
         2           Li  tau(   2) = (   0.5312860   0.0000000   0.5312860  )
         3           Li  tau(   3) = (   0.5312860   0.5312860   0.0000000  )
         4           Li  tau(   4) = (   0.0000000   0.0000000   0.0000000  )
         5           Si  tau(   5) = (   0.5312860   0.5312860   0.5312860  )

     number of k points=    20  Marzari-Vanderbilt smearing, width (Ry)=  0.0200
                       cart. coord. in units 2pi/alat
        k(    1) = (   0.0000000   0.0000000   0.0000000), wk =   0.0058309
        k(    2) = (   0.0000000   0.0000000   0.1344447), wk =   0.0349854
        k(    3) = (   0.0000000   0.0000000   0.2688893), wk =   0.0349854
        k(    4) = (   0.0000000   0.0000000   0.4033340), wk =   0.0349854
        k(    5) = (   0.0000000   0.1344447   0.1344447), wk =   0.0699708
        k(    6) = (   0.0000000   0.1344447   0.2688893), wk =   0.1399417
        k(    7) = (   0.0000000   0.1344447   0.4033340), wk =   0.1399417
        k(    8) = (   0.0000000   0.2688893   0.2688893), wk =   0.0699708
        k(    9) = (   0.0000000   0.2688893   0.4033340), wk =   0.1399417
        k(   10) = (   0.0000000   0.4033340   0.4033340), wk =   0.0699708
        k(   11) = (   0.1344447   0.1344447   0.1344447), wk =   0.0466472
        k(   12) = (   0.1344447   0.1344447   0.2688893), wk =   0.1399417
        k(   13) = (   0.1344447   0.1344447   0.4033340), wk =   0.1399417
        k(   14) = (   0.1344447   0.2688893   0.2688893), wk =   0.1399417
        k(   15) = (   0.1344447   0.2688893   0.4033340), wk =   0.2798834
        k(   16) = (   0.1344447   0.4033340   0.4033340), wk =   0.1399417
        k(   17) = (   0.2688893   0.2688893   0.2688893), wk =   0.0466472
        k(   18) = (   0.2688893   0.2688893   0.4033340), wk =   0.1399417
        k(   19) = (   0.2688893   0.4033340   0.4033340), wk =   0.1399417
        k(   20) = (   0.4033340   0.4033340   0.4033340), wk =   0.0466472

     Dense  grid:    35033 G-vectors     FFT dimensions: (  45,  45,  45)

     Estimated max dynamical RAM per process >      17.29 MB

     Estimated total dynamical RAM >     138.32 MB

     Initial potential from superposition of free atoms

     starting charge      15.9811, renormalised to      16.0000
     Starting wfcs are   12 randomized atomic wfcs

     total cpu time spent up to now is       13.6 secs

     Self-consistent Calculation

     iteration #  1     ecut=    80.00 Ry     beta= 0.70
     Davidson diagonalization with overlap
     c_bands:  1 eigenvalues not converged
     c_bands:  1 eigenvalues not converged
     c_bands:  1 eigenvalues not converged
     c_bands:  1 eigenvalues not converged
     c_bands:  1 eigenvalues not converged
     c_bands:  1 eigenvalues not converged
     ethr =  1.00E-06,  avg # of iterations = 17.5
     Minimization algorithm failed to find Fermi energy: reverting to bisection
     Possible cause: smearing is larger than the electronic band-gap.

     total cpu time spent up to now is       14.6 secs

     total energy              =     -65.55327902 Ry
     estimated scf accuracy    <       0.35458321 Ry

     iteration #  2     ecut=    80.00 Ry     beta= 0.70
     Davidson diagonalization with overlap
     ethr =  2.22E-03,  avg # of iterations =  2.0

     total cpu time spent up to now is       14.9 secs

     total energy              =     -65.64955227 Ry
     estimated scf accuracy    <       0.19759000 Ry

     iteration #  3     ecut=    80.00 Ry     beta= 0.70
     Davidson diagonalization with overlap
     ethr =  1.23E-03,  avg # of iterations =  1.9

     total cpu time spent up to now is       15.2 secs

     total energy              =     -65.68081940 Ry
     estimated scf accuracy    <       0.00106626 Ry

     iteration #  4     ecut=    80.00 Ry     beta= 0.70
     Davidson diagonalization with overlap
     ethr =  6.66E-06,  avg # of iterations =  3.6

     total cpu time spent up to now is       15.5 secs

     total energy              =     -65.68120270 Ry
     estimated scf accuracy    <       0.00059071 Ry

     iteration #  5     ecut=    80.00 Ry     beta= 0.70
     Davidson diagonalization with overlap
     ethr =  3.69E-06,  avg # of iterations =  1.6

     total cpu time spent up to now is       15.8 secs

     total energy              =     -65.68130169 Ry
     estimated scf accuracy    <       0.00000074 Ry

     iteration #  6     ecut=    80.00 Ry     beta= 0.70
     Davidson diagonalization with overlap
     ethr =  4.65E-09,  avg # of iterations =  3.8

     total cpu time spent up to now is       16.2 secs

     total energy              =     -65.68130273 Ry
     estimated scf accuracy    <       0.00000030 Ry

     iteration #  7     ecut=    80.00 Ry     beta= 0.70
     Davidson diagonalization with overlap
     ethr =  1.89E-09,  avg # of iterations =  2.0

     total cpu time spent up to now is       16.4 secs

     total energy              =     -65.68130279 Ry
     estimated scf accuracy    <          6.5E-09 Ry

     iteration #  8     ecut=    80.00 Ry     beta= 0.70
     Davidson diagonalization with overlap
     ethr =  4.09E-11,  avg # of iterations =  2.0

     total cpu time spent up to now is       16.7 secs

     total energy              =     -65.68130280 Ry
     estimated scf accuracy    <          2.2E-10 Ry

     iteration #  9     ecut=    80.00 Ry     beta= 0.70
     Davidson diagonalization with overlap
     ethr =  1.40E-12,  avg # of iterations =  1.9

     total cpu time spent up to now is       17.0 secs

     End of self-consistent calculation

          k = 0.0000 0.0000 0.0000 (  4385 PWs)   bands (ev):

   -40.9448 -40.3192 -40.2113 -40.2113  -2.5974   3.1743   3.1743   3.1743
     7.3167  11.0554  11.0554  12.6832

          k = 0.0000 0.0000 0.1344 (  4389 PWs)   bands (ev):

   -40.9442 -40.3145 -40.2157 -40.2112  -2.5555   2.7083   3.3144   3.3144
     7.8185  10.6743  10.9656  11.5439

          k = 0.0000 0.0000 0.2689 (  4364 PWs)   bands (ev):

   -40.9430 -40.3022 -40.2276 -40.2110  -2.4507   1.9092   3.6845   3.6845
     8.2555   9.8129   9.8129  11.0015

          k = 0.0000 0.0000 0.4033 (  4384 PWs)   bands (ev):

   -40.9419 -40.2882 -40.2413 -40.2108  -2.3525   1.3852   4.0715   4.0715
     8.1686   8.6824   8.6824  10.6250

          k = 0.0000 0.1344 0.1344 (  4381 PWs)   bands (ev):

   -40.9437 -40.3100 -40.2176 -40.2135  -2.5187   2.6269   3.1025   3.4526
     8.3448   9.7105  10.5451  11.3114

          k = 0.0000 0.1344 0.2689 (  4374 PWs)   bands (ev):

   -40.9425 -40.2980 -40.2281 -40.2142  -2.4274   2.0020   3.3325   3.8168
     8.2185   8.9904   9.9615  10.8206

          k = 0.0000 0.1344 0.4033 (  4361 PWs)   bands (ev):

   -40.9416 -40.2841 -40.2414 -40.2141  -2.3434   1.5248   3.6924   4.1952
     7.3251   8.8357   8.8706  11.4512

          k = 0.0000 0.2689 0.2689 (  4388 PWs)   bands (ev):

   -40.9416 -40.2867 -40.2317 -40.2208  -2.3712   2.1147   2.8975   4.1622
     6.6866  10.1292  10.1686  10.6573

          k = 0.0000 0.2689 0.4033 (  4377 PWs)   bands (ev):

   -40.9409 -40.2731 -40.2417 -40.2234  -2.3218   1.9288   3.0585   4.5141
     5.6517   9.4081  10.2146  11.3280

          k = 0.0000 0.4033 0.4033 (  4394 PWs)   bands (ev):

   -40.9403 -40.2588 -40.2430 -40.2354  -2.3034   2.4438   2.7039   4.4306
     4.8308  10.0470  10.2987  11.4714

          k = 0.1344 0.1344 0.1344 (  4380 PWs)   bands (ev):

   -40.9432 -40.3057 -40.2175 -40.2175  -2.4875   2.5491   3.2568   3.2568
     8.8814   9.6333   9.6333  10.4350

          k = 0.1344 0.1344 0.2689 (  4371 PWs)   bands (ev):

   -40.9422 -40.2940 -40.2284 -40.2173  -2.4111   2.0770   3.3175   3.6868
     8.1470   8.8401   9.3191  10.8814

          k = 0.1344 0.1344 0.4033 (  4366 PWs)   bands (ev):

   -40.9413 -40.2804 -40.2414 -40.2171  -2.3422   1.6623   3.5407   4.2040
     7.0261   8.1504   9.1525  12.1773

          k = 0.1344 0.2689 0.2689 (  4382 PWs)   bands (ev):

   -40.9414 -40.2833 -40.2316 -40.2235  -2.3726   2.1676   3.0634   3.9527
     6.8425   8.8922   9.0658  11.0930

          k = 0.1344 0.2689 0.4033 (  4372 PWs)   bands (ev):

   -40.9407 -40.2704 -40.2416 -40.2254  -2.3397   2.0594   3.1282   4.4453
     5.7183   8.2664   9.1924  11.9360

          k = 0.1344 0.4033 0.4033 (  4389 PWs)   bands (ev):

   -40.9402 -40.2573 -40.2428 -40.2361  -2.3379   2.5716   2.8621   4.4396
     4.8867   8.6454   8.6467  11.7905

          k = 0.2689 0.2689 0.2689 (  4383 PWs)   bands (ev):

   -40.9408 -40.2743 -40.2313 -40.2313  -2.3767   2.3016   3.5593   3.5593
     7.1094   7.1094   8.1439  11.6987

          k = 0.2689 0.2689 0.4033 (  4388 PWs)   bands (ev):

   -40.9403 -40.2629 -40.2416 -40.2311  -2.3808   2.4345   3.2827   4.3614
     5.6476   7.0718   7.9021  11.4775

          k = 0.2689 0.4033 0.4033 (  4409 PWs)   bands (ev):

   -40.9400 -40.2532 -40.2426 -40.2385  -2.4146   2.9474   3.3357   4.3863
     5.0754   6.8440   7.0703  10.7419

          k = 0.4033 0.4033 0.4033 (  4377 PWs)   bands (ev):

   -40.9397 -40.2479 -40.2424 -40.2424  -2.4754   3.5166   4.0976   4.0976
     5.4047   5.4047   5.9854  10.0583

     the Fermi energy is     4.6589 ev

!    total energy              =     -65.68130280 Ry
     estimated scf accuracy    <          1.8E-11 Ry
     smearing contrib. (-TS)   =       0.00188424 Ry
     internal energy E=F+TS    =     -65.68318704 Ry

     The total energy is F=E-TS. E is the sum of the following terms:
     one-electron contribution =     -29.26992669 Ry
     hartree contribution      =      13.97698022 Ry
     xc contribution           =     -17.20807629 Ry
     ewald contribution        =     -33.18216427 Ry

     convergence has been achieved in   9 iterations

     Forces acting on atoms (cartesian axes, Ry/au):

     atom    1 type  1   force =     0.00000000    0.00000000    0.00000000
     atom    2 type  1   force =     0.00000000    0.00000000    0.00000000
     atom    3 type  1   force =     0.00000000    0.00000000    0.00000000
     atom    4 type  1   force =     0.00000000    0.00000000    0.00000000
     atom    5 type  2   force =     0.00000000    0.00000000    0.00000000
     The non-local contrib.  to forces
     atom    1 type  1   force =     0.00000000    0.00000000    0.00000000
     atom    2 type  1   force =     0.00000000    0.00000000    0.00000000
     atom    3 type  1   force =     0.00000000    0.00000000    0.00000000
     atom    4 type  1   force =     0.00000000    0.00000000    0.00000000
     atom    5 type  2   force =     0.00000000    0.00000000    0.00000000
     The ionic contribution  to forces
     atom    1 type  1   force =    -0.00000000   -0.00000000    0.00000000
     atom    2 type  1   force =    -0.00000000   -0.00000000    0.00000000
     atom    3 type  1   force =     0.00000000   -0.00000000   -0.00000000
     atom    4 type  1   force =    -0.00000000   -0.00000000   -0.00000000
     atom    5 type  2   force =     0.00000000   -0.00000000    0.00000000
     The local contribution  to forces
     atom    1 type  1   force =    -0.00000000    0.00000000    0.00000000
     atom    2 type  1   force =     0.00000000    0.00000000    0.00000000
     atom    3 type  1   force =     0.00000000    0.00000000    0.00000000
     atom    4 type  1   force =     0.00000000    0.00000000    0.00000000
     atom    5 type  2   force =     0.00000000    0.00000000   -0.00000000
     The core correction contribution to forces
     atom    1 type  1   force =     0.00000000    0.00000000    0.00000000
     atom    2 type  1   force =     0.00000000    0.00000000    0.00000000
     atom    3 type  1   force =     0.00000000    0.00000000    0.00000000
     atom    4 type  1   force =     0.00000000    0.00000000    0.00000000
     atom    5 type  2   force =    -0.00000000   -0.00000000   -0.00000000
     The Hubbard contrib.    to forces
     atom    1 type  1   force =     0.00000000    0.00000000    0.00000000
     atom    2 type  1   force =     0.00000000    0.00000000    0.00000000
     atom    3 type  1   force =     0.00000000    0.00000000    0.00000000
     atom    4 type  1   force =     0.00000000    0.00000000    0.00000000
     atom    5 type  2   force =     0.00000000    0.00000000    0.00000000
     The SCF correction term to forces
     atom    1 type  1   force =    -0.00000000   -0.00000000    0.00000000
     atom    2 type  1   force =    -0.00000000   -0.00000000   -0.00000000
     atom    3 type  1   force =    -0.00000000    0.00000000    0.00000000
     atom    4 type  1   force =     0.00000000   -0.00000000   -0.00000000
     atom    5 type  2   force =     0.00000000    0.00000000    0.00000000

     Total force =     0.000000     Total SCF correction =     0.000000


     Computing stress (Cartesian axis) and pressure

          total   stress  (Ry/bohr**3)                   (kbar)     P=      501.29
   0.00340771   0.00000000   0.00000000          501.29        0.00        0.00
   0.00000000   0.00340771   0.00000000            0.00      501.29        0.00
   0.00000000   0.00000000   0.00340771            0.00        0.00      501.29


     Writing all to output data dir ./output/LiSi.save/

     init_run     :      0.99s CPU      1.27s WALL (       2 calls)
     electrons    :      9.48s CPU     11.25s WALL (       5 calls)
     update_pot   :      0.94s CPU      1.00s WALL (       3 calls)
     forces       :      0.94s CPU      1.03s WALL (       5 calls)
     stress       :      2.84s CPU      3.04s WALL (       5 calls)

     Called by init_run:
     wfcinit      :      0.16s CPU      0.16s WALL (       2 calls)
     potinit      :      0.31s CPU      0.43s WALL (       2 calls)
     hinit0       :      0.49s CPU      0.60s WALL (       2 calls)

     Called by electrons:
     c_bands      :      7.83s CPU      8.79s WALL (      47 calls)
     sum_band     :      1.19s CPU      1.28s WALL (      47 calls)
     v_of_rho     :      0.46s CPU      1.25s WALL (      51 calls)
     mix_rho      :      0.04s CPU      0.05s WALL (      47 calls)

     Called by c_bands:
     init_us_2    :      0.27s CPU      0.30s WALL (    2120 calls)
     init_us_2:cp :      0.26s CPU      0.30s WALL (    2120 calls)
     cegterg      :      7.28s CPU      7.57s WALL (     940 calls)

     Called by *egterg:
     cdiaghg      :      0.54s CPU      0.56s WALL (    3426 calls)
     h_psi        :      6.07s CPU      6.32s WALL (    3546 calls)
     g_psi        :      0.03s CPU      0.03s WALL (    2566 calls)

     Called by h_psi:
     h_psi:calbec :      0.43s CPU      0.44s WALL (    3546 calls)
     vloc_psi     :      5.29s CPU      5.52s WALL (    3546 calls)
     add_vuspsi   :      0.31s CPU      0.32s WALL (    3546 calls)

     General routines
     calbec       :      0.52s CPU      0.54s WALL (    4046 calls)
     fft          :      0.73s CPU      1.74s WALL (     634 calls)
     ffts         :      0.02s CPU      0.04s WALL (      47 calls)
     fftw         :      5.49s CPU      5.72s WALL (   70848 calls)

     Parallel routines

     PWSCF        :     15.43s CPU     18.06s WALL


   This run was terminated on:  21:30:29  29Dec2024            

=------------------------------------------------------------------------------=
   JOB DONE.
=------------------------------------------------------------------------------=
