
     Program PWSCF v.7.2 starts on 22Jan2025 at  0:41:10 

     This program is part of the open-source Quantum ESPRESSO suite
     for quantum simulation of materials; please cite
         "P. Giannozzi et al., J. Phys.:Condens. Matter 21 395502 (2009);
         "P. Giannozzi et al., J. Phys.:Condens. Matter 29 465901 (2017);
         "P. Giannozzi et al., J. Chem. Phys. 152 154105 (2020);
          URL http://www.quantum-espresso.org", 
     in publications or presentations arising from this work. More details at
     http://www.quantum-espresso.org/quote

     Parallel version (MPI & OpenMP), running on       8 processor cores
     Number of MPI processes:                 8
     Threads/MPI process:                     1

     MPI processes distributed on     1 nodes
     481579 MiB available memory on the printing compute node when the environment starts

     Waiting for input...
     Reading input from standard input

     Current dimensions of program PWSCF are:
     Max number of different atomic species (ntypx) = 10
     Max number of k-points (npk) =  40000
     Max angular momentum in pseudopotentials (lmaxx) =  4

     R & G space division:  proc/nbgrp/npool/nimage =       8
     Subspace diagonalization in iterative solution of the eigenvalue problem:
     a serial algorithm will be used


     Parallelization info
     --------------------
     sticks:   dense  smooth     PW     G-vecs:    dense   smooth      PW
     Min         151     151     51                 2251     2251     451
     Max         152     152     52                 2252     2252     453
     Sum        1211    1211    415                18009    18009    3619

     Using Slab Decomposition



     bravais-lattice index     =            7
     lattice parameter (alat)  =      10.7106  a.u.
     unit-cell volume          =     286.8437 (a.u.)^3
     number of atoms/cell      =            5
     number of atomic types    =            2
     number of electrons       =        16.00
     number of Kohn-Sham states=           12
     kinetic-energy cutoff     =      60.0000  Ry
     charge density cutoff     =     240.0000  Ry
     scf convergence threshold =      1.0E-08
     mixing beta               =       0.8000
     number of iterations used =            8  plain     mixing
     energy convergence thresh.=      5.0E-03
     force convergence thresh. =      1.0E-02
     press convergence thresh. =      2.0E+00
     Exchange-correlation= PBE
                           (   1   4   3   4   0   0   0)
     nstep                     =           50


     celldm(1)=  10.710620  celldm(2)=   0.000000  celldm(3)=   0.466908
     celldm(4)=   0.000000  celldm(5)=   0.000000  celldm(6)=   0.000000

     crystal axes: (cart. coord. in units of alat)
               a(1) = (   0.500000  -0.500000   0.233454 )  
               a(2) = (   0.500000   0.500000   0.233454 )  
               a(3) = (  -0.500000  -0.500000   0.233454 )  

     reciprocal axes: (cart. coord. in units 2 pi/alat)
               b(1) = (  1.000000 -1.000000  0.000000 )  
               b(2) = (  0.000000  1.000000  2.141749 )  
               b(3) = ( -1.000000  0.000000  2.141749 )  


     PseudoPot. # 1 for Li read from file:
     ../pseudo/Li_ONCV_PBE_sr.upf
     MD5 check sum: 50ff420e78310ffa21704f3361e624a4
     Pseudo is Norm-conserving, Zval =  3.0
     Generated using ONCVPSP code by D. R. Hamann
     Using radial grid of 1944 points,  4 beta functions with: 
                l(1) =   0
                l(2) =   0
                l(3) =   1
                l(4) =   1

     PseudoPot. # 2 for Si read from file:
     ../pseudo/Si_ONCV_PBE_sr.upf
     MD5 check sum: e543d271109d17c80368dfa7c482276d
     Pseudo is Norm-conserving + core correction, Zval =  4.0
     Generated using ONCVPSP code by D. R. Hamann
     Using radial grid of 1510 points,  6 beta functions with: 
                l(1) =   0
                l(2) =   0
                l(3) =   1
                l(4) =   1
                l(5) =   2
                l(6) =   2

     atomic species   valence    mass     pseudopotential
        Li             3.00     6.94100     Li( 1.00)
        Si             4.00    28.08550     Si( 1.00)

      8 Sym. Ops., with inversion, found



   Cartesian axes

     site n.     atom                  positions (alat units)
         1           Li  tau(   1) = (   0.0818565   0.2796575   0.2334541  )
         2           Li  tau(   2) = (   0.9181435   0.7203425   0.2334541  )
         3           Li  tau(   3) = (   0.7203425   0.0818565   0.2334541  )
         4           Li  tau(   4) = (   0.2796575   0.9181435   0.2334541  )
         5           Si  tau(   5) = (   0.0000000   0.0000000   0.0000000  )

     number of k points=    92  Marzari-Vanderbilt smearing, width (Ry)=  0.0200
                       cart. coord. in units 2pi/alat
        k(    1) = (   0.0000000   0.0000000   0.0000000), wk =   0.0178571
        k(    2) = (  -0.1428571   0.0000000   0.3059641), wk =   0.0357143
        k(    3) = (  -0.2857143   0.0000000   0.6119283), wk =   0.0357143
        k(    4) = (  -0.4285714   0.0000000   0.9178924), wk =   0.0357143
        k(    5) = (   0.0000000   0.2500000   0.5354372), wk =   0.0714286
        k(    6) = (  -0.1428571   0.2500000   0.8414014), wk =   0.0178571
        k(    7) = (  -0.2857143   0.2500000   1.1473655), wk =   0.0178571
        k(    8) = (  -0.4285714   0.2500000   1.4533296), wk =   0.0178571
        k(    9) = (   0.4285714   0.2500000  -0.3824552), wk =   0.0178571
        k(   10) = (   0.2857143   0.2500000  -0.0764910), wk =   0.0178571
        k(   11) = (   0.1428571   0.2500000   0.2294731), wk =   0.0178571
        k(   12) = (   0.0000000  -0.5000000  -1.0708745), wk =   0.0357143
        k(   13) = (  -0.1428571  -0.5000000  -0.7649103), wk =   0.0178571
        k(   14) = (  -0.2857143  -0.5000000  -0.4589462), wk =   0.0178571
        k(   15) = (  -0.4285714  -0.5000000  -0.1529821), wk =   0.0178571
        k(   16) = (   0.2500000  -0.2500000   0.0000000), wk =   0.0357143
        k(   17) = (   0.1071429  -0.2500000   0.3059641), wk =   0.0178571
        k(   18) = (  -0.0357143  -0.2500000   0.6119283), wk =   0.0178571
        k(   19) = (  -0.1785714  -0.2500000   0.9178924), wk =   0.0178571
        k(   20) = (   0.6785714  -0.2500000  -0.9178924), wk =   0.0178571
        k(   21) = (   0.5357143  -0.2500000  -0.6119283), wk =   0.0178571
        k(   22) = (   0.3928571  -0.2500000  -0.3059641), wk =   0.0178571
        k(   23) = (   0.1071429   0.0000000   0.8414014), wk =   0.0357143
        k(   24) = (  -0.0357143   0.0000000   1.1473655), wk =   0.0357143
        k(   25) = (  -0.1785714   0.0000000   1.4533296), wk =   0.0357143
        k(   26) = (   0.6785714   0.0000000  -0.3824552), wk =   0.0357143
        k(   27) = (   0.5357143   0.0000000  -0.0764910), wk =   0.0357143
        k(   28) = (   0.3928571   0.0000000   0.2294731), wk =   0.0357143
        k(   29) = (   0.2500000  -0.7500000  -1.0708745), wk =   0.0357143
        k(   30) = (   0.1071429  -0.7500000  -0.7649103), wk =   0.0178571
        k(   31) = (  -0.0357143  -0.7500000  -0.4589462), wk =   0.0178571
        k(   32) = (  -0.1785714  -0.7500000  -0.1529821), wk =   0.0178571
        k(   33) = (   0.6785714  -0.7500000  -1.9887668), wk =   0.0178571
        k(   34) = (   0.5357143  -0.7500000  -1.6828027), wk =   0.0178571
        k(   35) = (   0.3928571  -0.7500000  -1.3768386), wk =   0.0178571
        k(   36) = (   0.2500000  -0.5000000  -0.5354372), wk =   0.0357143
        k(   37) = (   0.1071429  -0.5000000  -0.2294731), wk =   0.0178571
        k(   38) = (  -0.0357143  -0.5000000   0.0764910), wk =   0.0178571
        k(   39) = (  -0.1785714  -0.5000000   0.3824552), wk =   0.0178571
        k(   40) = (   0.6785714  -0.5000000  -1.4533296), wk =   0.0178571
        k(   41) = (   0.5357143  -0.5000000  -1.1473655), wk =   0.0178571
        k(   42) = (   0.3928571  -0.5000000  -0.8414014), wk =   0.0178571
        k(   43) = (  -0.5000000   0.5000000   0.0000000), wk =   0.0178571
        k(   44) = (  -0.6428571   0.5000000   0.3059641), wk =   0.0178571
        k(   45) = (  -0.7857143   0.5000000   0.6119283), wk =   0.0178571
        k(   46) = (  -0.9285714   0.5000000   0.9178924), wk =   0.0178571
        k(   47) = (  -0.6428571   0.7500000   0.8414014), wk =   0.0178571
        k(   48) = (  -0.7857143   0.7500000   1.1473655), wk =   0.0178571
        k(   49) = (  -0.9285714   0.7500000   1.4533296), wk =   0.0178571
        k(   50) = (  -0.0714286   0.7500000  -0.3824552), wk =   0.0178571
        k(   51) = (  -0.2142857   0.7500000  -0.0764910), wk =   0.0178571
        k(   52) = (  -0.3571429   0.7500000   0.2294731), wk =   0.0178571
        k(   53) = (  -0.6428571   0.0000000  -0.7649103), wk =   0.0357143
        k(   54) = (  -0.7857143   0.0000000  -0.4589462), wk =   0.0357143
        k(   55) = (  -0.9285714   0.0000000  -0.1529821), wk =   0.0357143
        k(   56) = (   0.2500000  -0.1428571  -0.8414014), wk =   0.0178571
        k(   57) = (   0.2500000  -0.2857143  -1.1473655), wk =   0.0178571
        k(   58) = (   0.2500000  -0.4285714  -1.4533296), wk =   0.0178571
        k(   59) = (   0.2500000   0.4285714   0.3824552), wk =   0.0178571
        k(   60) = (   0.2500000   0.2857143   0.0764910), wk =   0.0178571
        k(   61) = (   0.2500000   0.1428571  -0.2294731), wk =   0.0178571
        k(   62) = (  -0.5000000  -0.1428571   0.7649103), wk =   0.0178571
        k(   63) = (  -0.5000000  -0.2857143   0.4589462), wk =   0.0178571
        k(   64) = (  -0.5000000  -0.4285714   0.1529821), wk =   0.0178571
        k(   65) = (  -0.2500000   0.1071429  -0.3059641), wk =   0.0178571
        k(   66) = (  -0.2500000  -0.0357143  -0.6119283), wk =   0.0178571
        k(   67) = (  -0.2500000  -0.1785714  -0.9178924), wk =   0.0178571
        k(   68) = (  -0.2500000   0.6785714   0.9178924), wk =   0.0178571
        k(   69) = (  -0.2500000   0.5357143   0.6119283), wk =   0.0178571
        k(   70) = (  -0.2500000   0.3928571   0.3059641), wk =   0.0178571
        k(   71) = (  -0.7500000   0.1071429   0.7649103), wk =   0.0178571
        k(   72) = (  -0.7500000  -0.0357143   0.4589462), wk =   0.0178571
        k(   73) = (  -0.7500000  -0.1785714   0.1529821), wk =   0.0178571
        k(   74) = (  -0.7500000   0.6785714   1.9887668), wk =   0.0178571
        k(   75) = (  -0.7500000   0.5357143   1.6828027), wk =   0.0178571
        k(   76) = (  -0.7500000   0.3928571   1.3768386), wk =   0.0178571
        k(   77) = (  -0.5000000   0.2500000   0.5354372), wk =   0.0357143
        k(   78) = (  -0.5000000   0.1071429   0.2294731), wk =   0.0178571
        k(   79) = (  -0.5000000  -0.0357143  -0.0764910), wk =   0.0178571
        k(   80) = (  -0.5000000  -0.1785714  -0.3824552), wk =   0.0178571
        k(   81) = (  -0.5000000   0.6785714   1.4533296), wk =   0.0178571
        k(   82) = (  -0.5000000   0.5357143   1.1473655), wk =   0.0178571
        k(   83) = (  -0.5000000   0.3928571   0.8414014), wk =   0.0178571
        k(   84) = (   0.5000000  -0.6428571  -0.3059641), wk =   0.0178571
        k(   85) = (   0.5000000  -0.7857143  -0.6119283), wk =   0.0178571
        k(   86) = (   0.5000000  -0.9285714  -0.9178924), wk =   0.0178571
        k(   87) = (   0.7500000  -0.6428571  -0.8414014), wk =   0.0178571
        k(   88) = (   0.7500000  -0.7857143  -1.1473655), wk =   0.0178571
        k(   89) = (   0.7500000  -0.9285714  -1.4533296), wk =   0.0178571
        k(   90) = (   0.7500000  -0.0714286   0.3824552), wk =   0.0178571
        k(   91) = (   0.7500000  -0.2142857   0.0764910), wk =   0.0178571
        k(   92) = (   0.7500000  -0.3571429  -0.2294731), wk =   0.0178571

     Dense  grid:    18009 G-vectors     FFT dimensions: (  40,  40,  40)

     Estimated max dynamical RAM per process >      16.75 MB

     Estimated total dynamical RAM >     133.98 MB

     Initial potential from superposition of free atoms

     starting charge      15.9811, renormalised to      16.0000
     Starting wfcs are   12 randomized atomic wfcs

     total cpu time spent up to now is        1.2 secs

     Self-consistent Calculation

     iteration #  1     ecut=    60.00 Ry     beta= 0.80
     Davidson diagonalization with overlap
     ethr =  1.00E-02,  avg # of iterations =  5.5

     Threshold (ethr) on eigenvalues was too large:
     Diagonalizing with lowered threshold

     Davidson diagonalization with overlap
     ethr =  3.94E-04,  avg # of iterations =  2.1

     total cpu time spent up to now is        3.1 secs

     total energy              =     -65.82730287 Ry
     estimated scf accuracy    <       0.06216292 Ry

     iteration #  2     ecut=    60.00 Ry     beta= 0.80
     Davidson diagonalization with overlap
     ethr =  3.89E-04,  avg # of iterations =  2.4

     total cpu time spent up to now is        3.9 secs

     total energy              =     -65.83826605 Ry
     estimated scf accuracy    <       0.05610821 Ry

     iteration #  3     ecut=    60.00 Ry     beta= 0.80
     Davidson diagonalization with overlap
     ethr =  3.51E-04,  avg # of iterations =  2.1

     total cpu time spent up to now is        4.7 secs

     total energy              =     -65.84985377 Ry
     estimated scf accuracy    <       0.00026610 Ry

     iteration #  4     ecut=    60.00 Ry     beta= 0.80
     Davidson diagonalization with overlap
     ethr =  1.66E-06,  avg # of iterations =  5.8

     total cpu time spent up to now is        5.8 secs

     total energy              =     -65.84990880 Ry
     estimated scf accuracy    <       0.00001682 Ry

     iteration #  5     ecut=    60.00 Ry     beta= 0.80
     Davidson diagonalization with overlap
     ethr =  1.05E-07,  avg # of iterations =  2.0

     total cpu time spent up to now is        6.5 secs

     total energy              =     -65.84991183 Ry
     estimated scf accuracy    <       0.00000018 Ry

     iteration #  6     ecut=    60.00 Ry     beta= 0.80
     Davidson diagonalization with overlap
     ethr =  1.15E-09,  avg # of iterations =  2.9

     total cpu time spent up to now is        7.4 secs

     total energy              =     -65.84991190 Ry
     estimated scf accuracy    <       0.00000002 Ry

     iteration #  7     ecut=    60.00 Ry     beta= 0.80
     Davidson diagonalization with overlap
     ethr =  9.88E-11,  avg # of iterations =  2.0

     total cpu time spent up to now is        8.1 secs

     End of self-consistent calculation

          k = 0.0000 0.0000 0.0000 (  2235 PWs)   bands (ev):

   -38.1776 -37.8858 -37.8858 -37.8315  -2.3908   5.5812   5.5812   5.9038
     6.6649  14.1020  14.8360  15.2387

          k =-0.1429 0.0000 0.3060 (  2240 PWs)   bands (ev):

   -38.1494 -37.8913 -37.8851 -37.8283  -2.0483   5.1951   5.4590   6.6441
     7.4360  11.5013  13.2425  14.1453

          k =-0.2857 0.0000 0.6119 (  2259 PWs)   bands (ev):

   -38.0752 -37.8989 -37.8866 -37.8345  -1.0255   5.0037   5.4917   6.4382
     8.9081   9.7904  11.2116  12.4695

          k =-0.4286 0.0000 0.9179 (  2260 PWs)   bands (ev):

   -37.9894 -37.9054 -37.9002 -37.8505   0.5741   3.5266   5.3924   5.8087
     8.6721  10.6836  11.3593  12.7996

          k = 0.0000 0.2500 0.5354 (  2252 PWs)   bands (ev):

   -38.0963 -37.8973 -37.8857 -37.8312  -1.3437   5.0528   5.4542   6.8165
     8.5147   9.8928  11.5083  12.8364

          k =-0.1429 0.2500 0.8414 (  2252 PWs)   bands (ev):

   -38.0198 -37.9024 -37.8870 -37.8440   0.0832   4.1389   5.5156   6.1348
     9.0526  10.2443  11.0056  11.8304

          k =-0.2857 0.2500 1.1474 (  2261 PWs)   bands (ev):

   -37.9595 -37.9212 -37.9047 -37.8547   1.0386   2.9907   5.2360   5.6100
     8.7084  11.1650  11.5369  13.5312

          k =-0.4286 0.2500 1.4533 (  2251 PWs)   bands (ev):

   -38.0020 -37.9512 -37.8736 -37.8518  -0.5212   4.1913   5.2049   5.8860
     8.3470  11.3703  11.9713  13.1024

          k = 0.4286 0.2500-0.3825 (  2242 PWs)   bands (ev):

   -38.0818 -37.9579 -37.8705 -37.8306  -1.7424   3.6455   5.5488   7.0073
     9.3672  10.3280  12.2147  13.5303

          k = 0.2857 0.2500-0.0765 (  2258 PWs)   bands (ev):

   -38.1374 -37.9464 -37.8745 -37.8236  -2.2926   3.6708   5.4928   6.6837
     8.7653  11.9444  13.6286  14.3593

          k = 0.1429 0.2500 0.2295 (  2244 PWs)   bands (ev):

   -38.1423 -37.9193 -37.8796 -37.8250  -2.1541   4.2509   5.3267   7.0881
     8.0678  11.4963  13.4936  14.0415

          k = 0.0000-0.5000-1.0709 (  2252 PWs)   bands (ev):

   -37.9673 -37.9155 -37.9007 -37.8535   1.1286   2.8456   5.3718   5.8966
     8.4240  10.7739  12.0297  12.3221

          k =-0.1429-0.5000-0.7649 (  2252 PWs)   bands (ev):

   -38.0060 -37.9249 -37.8835 -37.8504  -0.1804   4.4175   4.9961   5.7476
     8.5235  10.6307  12.4114  13.1245

          k =-0.2857-0.5000-0.4589 (  2252 PWs)   bands (ev):

   -38.0525 -37.9700 -37.8657 -37.8387  -1.4826   3.6153   5.5029   7.4052
     8.2964  10.4771  12.7098  13.3510

          k =-0.4286-0.5000-0.1530 (  2255 PWs)   bands (ev):

   -38.0742 -38.0117 -37.8621 -37.8284  -2.1612   3.0644   5.3660   7.6473
     8.3806  12.4586  12.9979  14.7891

          k = 0.2500-0.2500 0.0000 (  2257 PWs)   bands (ev):

   -38.1438 -37.9406 -37.8756 -37.8235  -2.3222   3.7661   5.4455   6.7335
     8.5049  12.1569  13.8699  14.3767

          k = 0.1071-0.2500 0.3060 (  2243 PWs)   bands (ev):

   -38.1350 -37.9116 -37.8820 -37.8258  -2.0135   4.4257   5.4849   6.7579
     8.4743  10.9618  12.7477  13.9173

          k =-0.0357-0.2500 0.6119 (  2256 PWs)   bands (ev):

   -38.0790 -37.8971 -37.8846 -37.8340  -1.0400   5.0418   5.6964   6.3730
     8.8633   9.6656  11.2119  12.4641

          k =-0.1786-0.2500 0.9179 (  2247 PWs)   bands (ev):

   -38.0000 -37.9059 -37.8902 -37.8476   0.5016   3.5996   5.4706   6.1163
     8.7736  10.6718  11.4184  11.8298

          k = 0.6786-0.2500-0.9179 (  2260 PWs)   bands (ev):

   -37.9577 -37.9351 -37.8963 -37.8563   0.7039   3.4322   4.8985   5.7281
     8.4838  11.1874  12.3095  13.5380

          k = 0.5357-0.2500-0.6119 (  2257 PWs)   bands (ev):

   -38.0225 -37.9553 -37.8685 -37.8485  -0.8847   3.9655   5.6256   6.2000
     8.3084  10.6900  12.4444  13.5662

          k = 0.3929-0.2500-0.3060 (  2243 PWs)   bands (ev):

   -38.0996 -37.9572 -37.8704 -37.8275  -1.9446   3.6159   5.3503   7.6667
     8.4341  10.8815  13.0048  13.6314

          k = 0.1071 0.0000 0.8414 (  2249 PWs)   bands (ev):

   -38.0317 -37.8892 -37.8885 -37.8433   0.0203   4.1953   6.1583   6.2052
     8.5052   9.9967  11.1228  11.4027

          k =-0.0357 0.0000 1.1474 (  2251 PWs)   bands (ev):

   -37.9565 -37.9071 -37.9069 -37.8681   1.0924   2.9636   5.5050   5.5116
     7.7354  11.6691  12.1496  12.1985

          k =-0.1786 0.0000 1.4533 (  2256 PWs)   bands (ev):

   -37.9616 -37.9346 -37.9000 -37.8828  -0.3677   4.5055   4.5836   5.3638
     6.9195  13.1624  13.8195  15.3449

          k = 0.6786 0.0000-0.3825 (  2243 PWs)   bands (ev):

   -38.0364 -37.9527 -37.9050 -37.8465  -1.6184   3.8937   4.0367   6.6190
     8.7711  12.8542  13.7683  15.6303

          k = 0.5357 0.0000-0.0765 (  2248 PWs)   bands (ev):

   -38.1002 -37.9498 -37.9024 -37.8283  -2.2087   3.7738   4.0065   6.7460
    10.3426  12.3121  13.6361  15.6612

          k = 0.3929 0.0000 0.2295 (  2241 PWs)   bands (ev):

   -38.1232 -37.9252 -37.8927 -37.8247  -2.1080   4.2097   4.4964   7.2688
     8.9667  11.3045  12.9985  15.2782

          k = 0.2500-0.7500-1.0709 (  2260 PWs)   bands (ev):

   -37.9683 -37.9092 -37.9075 -37.8531   1.1267   2.8638   5.5166   5.5950
     8.7902  11.0246  11.3537  12.9265

          k = 0.1071-0.7500-0.7649 (  2251 PWs)   bands (ev):

   -37.9639 -37.9334 -37.8962 -37.8709  -0.0296   4.5624   4.6560   5.0929
     7.5170  12.2944  12.5850  15.1771

          k =-0.0357-0.7500-0.4589 (  2250 PWs)   bands (ev):

   -38.0087 -37.9542 -37.9056 -37.8578  -1.3474   3.9403   4.1269   6.5249
     7.8607  13.6159  14.2246  15.7516

          k =-0.1786-0.7500-0.1530 (  2252 PWs)   bands (ev):

   -38.0380 -37.9937 -37.9031 -37.8413  -2.0620   3.3051   4.0404   6.1965
    11.1203  12.8011  14.9716  15.5617

          k = 0.6786-0.7500-1.9888 (  2245 PWs)   bands (ev):

   -38.0527 -38.0007 -37.8858 -37.8359  -2.1001   3.1932   4.4815   6.5007
    10.6373  12.4254  13.7073  15.5627

          k = 0.5357-0.7500-1.6828 (  2251 PWs)   bands (ev):

   -38.0490 -37.9672 -37.8711 -37.8393  -1.4684   3.6468   5.3230   7.1162
     8.4185  11.1637  12.4342  13.3724

          k = 0.3929-0.7500-1.3768 (  2249 PWs)   bands (ev):

   -38.0150 -37.9277 -37.8777 -37.8442  -0.2282   4.5181   4.8368   6.1631
     9.1963  10.6385  11.1861  12.2120

          k = 0.2500-0.5000-0.5354 (  2253 PWs)   bands (ev):

   -38.0432 -37.9565 -37.8702 -37.8407  -1.2113   3.8477   5.5094   6.8725
     8.2771  11.0948  12.1218  12.7527

          k = 0.1071-0.5000-0.2295 (  2244 PWs)   bands (ev):

   -38.0965 -37.9503 -37.8908 -37.8285  -2.0554   3.6682   4.5835   6.8555
    10.3355  10.9931  12.9304  15.0440

          k =-0.0357-0.5000 0.0765 (  2244 PWs)   bands (ev):

   -38.1088 -37.9461 -37.8989 -37.8263  -2.2263   3.8477   4.0748   6.9466
     9.7886  12.3603  13.7098  15.8408

          k =-0.1786-0.5000 0.3825 (  2247 PWs)   bands (ev):

   -38.0740 -37.9554 -37.8784 -37.8336  -1.7155   3.7171   4.9328   7.7916
     8.2179  10.9404  12.9054  14.3104

          k = 0.6786-0.5000-1.4533 (  2254 PWs)   bands (ev):

   -38.0080 -37.9561 -37.8656 -37.8493  -0.5527   4.0816   5.4245   6.1141
     8.6939  10.5123  12.2105  12.8782

          k = 0.5357-0.5000-1.1474 (  2271 PWs)   bands (ev):

   -37.9617 -37.9299 -37.9023 -37.8478   0.9961   3.0425   5.0244   5.6173
    10.2893  11.4849  11.6383  12.0753

          k = 0.3929-0.5000-0.8414 (  2257 PWs)   bands (ev):

   -37.9753 -37.9504 -37.8797 -37.8484   0.2304   4.0813   4.5146   6.0640
     9.4364  11.0606  11.5281  12.8001

          k =-0.5000 0.5000 0.0000 (  2254 PWs)   bands (ev):

   -38.0765 -38.0189 -37.8612 -37.8269  -2.2470   2.9941   5.3489   7.5988
     8.3426  12.6094  14.0447  15.3160

          k =-0.6429 0.5000 0.3060 (  2241 PWs)   bands (ev):

   -38.0666 -37.9934 -37.8630 -37.8317  -1.9050   3.2672   5.5216   7.1742
     9.1442  10.9722  12.5395  14.1018

          k =-0.7857 0.5000 0.6119 (  2256 PWs)   bands (ev):

   -38.0319 -37.9443 -37.8747 -37.8438  -0.9019   4.1150   5.3916   6.4048
     8.3191  11.2348  12.0565  12.4535

          k =-0.9286 0.5000 0.9179 (  2262 PWs)   bands (ev):

   -37.9813 -37.9091 -37.9030 -37.8523   0.6198   3.4904   5.3450   5.5888
     8.8085  10.5833  11.4262  13.3977

          k =-0.6429 0.7500 0.8414 (  2251 PWs)   bands (ev):

   -38.0032 -37.9216 -37.8822 -37.8462   0.1566   4.0846   4.9398   6.2228
     8.8863  11.0787  11.5579  11.9132

          k =-0.7857 0.7500 1.1474 (  2263 PWs)   bands (ev):

   -37.9590 -37.9196 -37.9045 -37.8572   1.0495   2.9816   5.2512   5.6520
     8.4254  11.1639  11.7371  13.0847

          k =-0.9286 0.7500 1.4533 (  2243 PWs)   bands (ev):

   -37.9744 -37.9365 -37.8931 -37.8731  -0.4050   4.3905   4.8033   5.4037
     7.2021  12.4335  13.8981  14.9519

          k =-0.0714 0.7500-0.3825 (  2251 PWs)   bands (ev):

   -38.0179 -37.9637 -37.9076 -37.8527  -1.5875   3.7235   4.0809   6.3483
     8.7866  13.5456  14.3087  15.6063

          k =-0.2143 0.7500-0.0765 (  2246 PWs)   bands (ev):

   -38.0422 -38.0002 -37.8993 -37.8391  -2.1356   3.2169   4.1242   6.1829
    11.4808  13.0849  14.1560  15.9174

          k =-0.3571 0.7500 0.2295 (  2253 PWs)   bands (ev):

   -38.0555 -37.9950 -37.8812 -37.8357  -2.0036   3.2693   4.5883   6.8685
     9.7096  12.0820  14.1922  14.6380

          k =-0.6429 0.0000-0.7649 (  2254 PWs)   bands (ev):

   -37.9846 -37.9193 -37.8997 -37.8612  -0.0854   4.5095   4.9434   5.0917
     7.8907  11.4634  12.6160  14.4590

          k =-0.7857 0.0000-0.4589 (  2251 PWs)   bands (ev):

   -37.9997 -37.9552 -37.9102 -37.8613  -1.3308   3.9646   4.0417   6.3816
     7.8565  14.0838  14.5545  15.6650

          k =-0.9286 0.0000-0.1530 (  2271 PWs)   bands (ev):

   -37.9930 -37.9830 -37.9490 -37.8533  -1.9937   3.5047   3.5145   5.5598
    11.6922  14.9841  15.2065  16.7074

          k = 0.2500-0.1429-0.8414 (  2252 PWs)   bands (ev):

   -38.0197 -37.9036 -37.8856 -37.8443   0.0833   4.1331   5.4703   6.2548
     8.7136  10.7709  11.0669  11.5281

          k = 0.2500-0.2857-1.1474 (  2261 PWs)   bands (ev):

   -37.9594 -37.9219 -37.9040 -37.8549   1.0387   2.9905   5.1999   5.6627
     8.6438  11.2197  11.6672  13.2146

          k = 0.2500-0.4286-1.4533 (  2251 PWs)   bands (ev):

   -38.0018 -37.9522 -37.8704 -37.8541  -0.5209   4.1312   5.4130   5.7692
     8.2812  10.8926  12.6513  13.7058

          k = 0.2500 0.4286 0.3825 (  2242 PWs)   bands (ev):

   -38.0820 -37.9584 -37.8693 -37.8312  -1.7423   3.6558   5.4007   7.6867
     8.4113  10.4741  12.7564  13.5040

          k = 0.2500 0.2857 0.0765 (  2258 PWs)   bands (ev):

   -38.1375 -37.9464 -37.8743 -37.8237  -2.2927   3.6819   5.3793   6.9585
     8.4845  12.0928  13.7266  14.3089

          k = 0.2500 0.1429-0.2295 (  2244 PWs)   bands (ev):

   -38.1423 -37.9192 -37.8798 -37.8250  -2.1541   4.2128   5.5469   6.5813
     8.5279  11.4249  13.0994  14.2040

          k =-0.5000-0.1429 0.7649 (  2252 PWs)   bands (ev):

   -38.0066 -37.9225 -37.8871 -37.8487  -0.1809   4.5865   4.8098   5.6742
     8.8406  10.7223  11.5595  13.1765

          k =-0.5000-0.2857 0.4589 (  2252 PWs)   bands (ev):

   -38.0527 -37.9696 -37.8668 -37.8377  -1.4826   3.6169   5.5600   7.0868
     8.5912  10.8001  12.2487  13.1935

          k =-0.5000-0.4286 0.1530 (  2255 PWs)   bands (ev):

   -38.0740 -38.0118 -37.8620 -37.8286  -2.1612   3.0619   5.4044   7.3925
     8.6777  12.3242  12.9638  14.8846

          k =-0.2500 0.1071-0.3060 (  2243 PWs)   bands (ev):

   -38.1351 -37.9123 -37.8815 -37.8257  -2.0135   4.4672   5.3135   7.1852
     8.0670  10.9819  12.9714  14.0454

          k =-0.2500-0.0357-0.6119 (  2256 PWs)   bands (ev):

   -38.0790 -37.8966 -37.8853 -37.8339  -1.0401   5.0900   5.5766   6.4714
     8.7019   9.9014  11.2009  12.2141

          k =-0.2500-0.1786-0.9179 (  2247 PWs)   bands (ev):

   -38.0001 -37.9047 -37.8914 -37.8475   0.5015   3.6011   5.5284   6.0098
     8.9891  10.4862  11.0700  12.2846

          k =-0.2500 0.6786 0.9179 (  2260 PWs)   bands (ev):

   -37.9585 -37.9334 -37.8977 -37.8558   0.7036   3.4339   4.9448   5.6338
     8.6360  11.2391  11.7139  14.1249

          k =-0.2500 0.5357 0.6119 (  2257 PWs)   bands (ev):

   -38.0225 -37.9543 -37.8712 -37.8468  -0.8849   4.0023   5.4447   6.3582
     8.2420  11.2866  12.1631  12.6835

          k =-0.2500 0.3929 0.3060 (  2243 PWs)   bands (ev):

   -38.0994 -37.9570 -37.8711 -37.8271  -1.9446   3.5980   5.5549   6.8757
     9.7838  10.2580  12.4443  13.9123

          k =-0.7500 0.1071 0.7649 (  2251 PWs)   bands (ev):

   -37.9629 -37.9354 -37.8935 -37.8725  -0.0294   4.4535   4.7710   5.1092
     7.4780  11.9074  13.5451  14.4783

          k =-0.7500-0.0357 0.4589 (  2250 PWs)   bands (ev):

   -38.0086 -37.9540 -37.9061 -37.8575  -1.3474   3.9371   4.1329   6.5094
     7.8761  13.7216  14.2749  15.2126

          k =-0.7500-0.1786 0.1530 (  2252 PWs)   bands (ev):

   -38.0378 -37.9938 -37.9030 -37.8415  -2.0620   3.2891   4.0781   6.1462
    11.3522  12.7332  14.2355  16.0499

          k =-0.7500 0.6786 1.9888 (  2245 PWs)   bands (ev):

   -38.0532 -38.0005 -37.8859 -37.8356  -2.1001   3.2069   4.4255   6.6186
    10.2777  12.6380  14.2802  15.1552

          k =-0.7500 0.5357 1.6828 (  2251 PWs)   bands (ev):

   -38.0487 -37.9679 -37.8697 -37.8402  -1.4683   3.6452   5.2752   7.5013
     8.0435  10.8007  12.8423  13.7263

          k =-0.7500 0.3929 1.3768 (  2249 PWs)   bands (ev):

   -38.0148 -37.9287 -37.8759 -37.8452  -0.2279   4.4180   4.9466   6.2383
     8.8085  10.6843  11.8508  12.1346

          k =-0.5000 0.2500 0.5354 (  2253 PWs)   bands (ev):

   -38.0428 -37.9576 -37.8682 -37.8419  -1.2112   3.8301   5.5548   6.8629
     8.3495  10.4656  12.4130  13.4871

          k =-0.5000 0.1071 0.2295 (  2244 PWs)   bands (ev):

   -38.0969 -37.9507 -37.8902 -37.8285  -2.0554   3.7362   4.4128   7.2971
     9.2013  11.7351  13.3532  15.2168

          k =-0.5000-0.0357-0.0765 (  2244 PWs)   bands (ev):

   -38.1086 -37.9458 -37.8992 -37.8265  -2.2263   3.7559   4.2085   6.7943
    10.1857  11.9954  13.6619  15.2858

          k =-0.5000-0.1786-0.3825 (  2247 PWs)   bands (ev):

   -38.0737 -37.9550 -37.8795 -37.8332  -1.7155   3.6984   5.0471   7.0819
     9.1051  11.0118  12.4070  13.9819

          k =-0.5000 0.6786 1.4533 (  2254 PWs)   bands (ev):

   -38.0078 -37.9555 -37.8678 -37.8479  -0.5529   4.1179   5.3123   6.1666
     8.7388  10.8758  11.7447  12.5479

          k =-0.5000 0.5357 1.1474 (  2271 PWs)   bands (ev):

   -37.9616 -37.9299 -37.9023 -37.8479   0.9961   3.0426   5.0274   5.6123
    10.3518  11.2721  11.7810  12.0599

          k =-0.5000 0.3929 0.8414 (  2257 PWs)   bands (ev):

   -37.9749 -37.9510 -37.8790 -37.8489   0.2306   4.0709   4.5145   6.1112
     9.2090  11.1585  11.9520  12.8467

          k = 0.5000-0.6429-0.3060 (  2241 PWs)   bands (ev):

   -38.0670 -37.9933 -37.8625 -37.8318  -1.9050   3.2735   5.4179   7.7388
     8.3957  11.1680  12.9267  13.8236

          k = 0.5000-0.7857-0.6119 (  2256 PWs)   bands (ev):

   -38.0318 -37.9456 -37.8720 -37.8452  -0.9017   4.0654   5.6069   6.2138
     8.4292  10.5244  12.2709  13.6268

          k = 0.5000-0.9286-0.9179 (  2262 PWs)   bands (ev):

   -37.9808 -37.9137 -37.8982 -37.8530   0.6202   3.4874   5.1800   5.8482
     8.4737  10.8148  11.8348  13.0201

          k = 0.7500-0.6429-0.8414 (  2251 PWs)   bands (ev):

   -38.0033 -37.9205 -37.8839 -37.8455   0.1563   4.0983   4.9619   6.0911
     9.4889  10.3716  11.1440  12.4265

          k = 0.7500-0.7857-1.1474 (  2263 PWs)   bands (ev):

   -37.9591 -37.9190 -37.9051 -37.8570   1.0494   2.9817   5.2900   5.5982
     8.4744  11.1336  11.6056  13.3770

          k = 0.7500-0.9286-1.4533 (  2243 PWs)   bands (ev):

   -37.9748 -37.9353 -37.8954 -37.8717  -0.4051   4.4630   4.6973   5.4282
     7.2165  12.8312  13.0923  15.0763

          k = 0.7500-0.0714 0.3825 (  2251 PWs)   bands (ev):

   -38.0177 -37.9642 -37.9073 -37.8526  -1.5875   3.7395   4.0550   6.3800
     8.7516  13.3636  14.4729  16.2100

          k = 0.7500-0.2143 0.0765 (  2246 PWs)   bands (ev):

   -38.0424 -38.0002 -37.8993 -37.8390  -2.1356   3.2253   4.1015   6.2161
    11.3070  13.1484  14.5928  15.6875

          k = 0.7500-0.3571-0.2295 (  2253 PWs)   bands (ev):

   -38.0548 -37.9951 -37.8815 -37.8360  -2.0036   3.2529   4.6683   6.6639
    10.1946  11.8525  13.4186  15.2626

     the Fermi energy is     7.4589 ev

!    total energy              =     -65.84991191 Ry
     estimated scf accuracy    <          8.0E-11 Ry
     smearing contrib. (-TS)   =       0.00029408 Ry
     internal energy E=F+TS    =     -65.85020599 Ry

     The total energy is F=E-TS. E is the sum of the following terms:
     one-electron contribution =     -22.05706575 Ry
     hartree contribution      =      11.73861492 Ry
     xc contribution           =     -17.37292782 Ry
     ewald contribution        =     -38.15882734 Ry

     convergence has been achieved in   7 iterations

     Forces acting on atoms (cartesian axes, Ry/au):

     atom    1 type  1   force =     0.02989854    0.07007373   -0.00000000
     atom    2 type  1   force =    -0.02989854   -0.07007373    0.00000000
     atom    3 type  1   force =    -0.07007373    0.02989854   -0.00000000
     atom    4 type  1   force =     0.07007373   -0.02989854   -0.00000000
     atom    5 type  2   force =     0.00000000   -0.00000000    0.00000000
     The non-local contrib.  to forces
     atom    1 type  1   force =     0.00080867    0.02310741    0.00000000
     atom    2 type  1   force =    -0.00080867   -0.02310741    0.00000000
     atom    3 type  1   force =    -0.02310741    0.00080867   -0.00000000
     atom    4 type  1   force =     0.02310741   -0.00080867    0.00000000
     atom    5 type  2   force =    -0.00000000    0.00000000    0.00000000
     The ionic contribution  to forces
     atom    1 type  1   force =     0.06898262    0.75324563    0.00000000
     atom    2 type  1   force =    -0.06898262   -0.75324563    0.00000000
     atom    3 type  1   force =    -0.75324563    0.06898262   -0.00000000
     atom    4 type  1   force =     0.75324563   -0.06898262    0.00000000
     atom    5 type  2   force =    -0.00000000   -0.00000000   -0.00000000
     The local contribution  to forces
     atom    1 type  1   force =    -0.03989217   -0.70627166    0.00000000
     atom    2 type  1   force =     0.03989217    0.70627166    0.00000000
     atom    3 type  1   force =     0.70627166   -0.03989217    0.00000000
     atom    4 type  1   force =    -0.70627166    0.03989217    0.00000000
     atom    5 type  2   force =     0.00000000    0.00000000   -0.00000000
     The core correction contribution to forces
     atom    1 type  1   force =     0.00000000    0.00000000    0.00000000
     atom    2 type  1   force =     0.00000000    0.00000000    0.00000000
     atom    3 type  1   force =     0.00000000    0.00000000    0.00000000
     atom    4 type  1   force =     0.00000000    0.00000000    0.00000000
     atom    5 type  2   force =    -0.00000000    0.00000000    0.00000000
     The Hubbard contrib.    to forces
     atom    1 type  1   force =     0.00000000    0.00000000    0.00000000
     atom    2 type  1   force =     0.00000000    0.00000000    0.00000000
     atom    3 type  1   force =     0.00000000    0.00000000    0.00000000
     atom    4 type  1   force =     0.00000000    0.00000000    0.00000000
     atom    5 type  2   force =     0.00000000    0.00000000    0.00000000
     The SCF correction term to forces
     atom    1 type  1   force =    -0.00000058   -0.00000765   -0.00000000
     atom    2 type  1   force =     0.00000058    0.00000765    0.00000000
     atom    3 type  1   force =     0.00000765   -0.00000058   -0.00000000
     atom    4 type  1   force =    -0.00000765    0.00000058   -0.00000000
     atom    5 type  2   force =    -0.00000000   -0.00000000    0.00000000

     Total force =     0.152371     Total SCF correction =     0.000015


     Computing stress (Cartesian axis) and pressure

          total   stress  (Ry/bohr**3)                   (kbar)     P=      552.26
   0.00370628   0.00000000   0.00000000          545.21        0.00        0.00
  -0.00000000   0.00370628  -0.00000000           -0.00      545.21       -0.00
   0.00000000  -0.00000000   0.00385004            0.00       -0.00      566.36


     BFGS Geometry Optimization
     Energy error            =      0.0E+00 Ry
     Gradient error          =      7.0E-02 Ry/Bohr
     Cell gradient error     =      6.6E+01 kbar

     number of scf cycles    =   1
     number of bfgs steps    =   0

     enthalpy           new  =     -64.8749501007 Ry

     new trust radius        =       0.0761856286 bohr
ibrav =      7
 celldm(1) =     10.79291675
 celldm(3) =      0.46857348
Input lattice vectors:
     0.50384184    -0.50384184     0.23608692
     0.50384184     0.50384184     0.23608692
    -0.50384184    -0.50384184     0.23608692
New lattice vectors in INITIAL alat:
     0.50384184    -0.50384184     0.23608692
     0.50384184     0.50384184     0.23608692
    -0.50384184    -0.50384184     0.23608692
New lattice vectors in NEW alat (for information only):
     0.50000000    -0.50000000     0.23428674
     0.50000000     0.50000000     0.23428674
    -0.50000000    -0.50000000     0.23428674
Discrepancy in bohr =     0.000000    0.000000    0.000000
     new conv_thr            =       0.0000000100 Ry

     new unit-cell volume =    294.55350 a.u.^3 (    43.64833 Ang^3 )
     density =      2.12472 g/cm^3

CELL_PARAMETERS (alat= 10.71061984)
   0.503841837  -0.503841837   0.236086924
   0.503841837   0.503841837   0.236086924
  -0.503841837  -0.503841837   0.236086924

ATOMIC_POSITIONS (crystal)
Li           -0.2015519682        0.7861999533        0.4153520149
Li            0.2015519682        1.2138000467       -0.4153520149
Li            0.6291520617        0.5846479851       -0.2138000467
Li           -0.6291520617        1.4153520149        0.2138000467
Si            0.0000000000       -0.0000000000       -0.0000000000



     Writing config-only to output data dir ./output/LiSi.save/
     NEW-OLD atomic charge density approx. for the potential
     extrapolated charge   16.41830, renormalised to   16.00000

     total cpu time spent up to now is        9.4 secs

     Self-consistent Calculation

     iteration #  1     ecut=    60.00 Ry     beta= 0.80
     Davidson diagonalization with overlap
     ethr =  1.00E-06,  avg # of iterations =  7.7

     total cpu time spent up to now is       11.2 secs

     total energy              =     -65.89198036 Ry
     estimated scf accuracy    <       0.00545191 Ry

     iteration #  2     ecut=    60.00 Ry     beta= 0.80
     Davidson diagonalization with overlap
     ethr =  3.41E-05,  avg # of iterations =  2.2

     total cpu time spent up to now is       12.2 secs

     total energy              =     -65.89502108 Ry
     estimated scf accuracy    <       0.00667294 Ry

     iteration #  3     ecut=    60.00 Ry     beta= 0.80
     Davidson diagonalization with overlap
     ethr =  3.41E-05,  avg # of iterations =  2.0

     total cpu time spent up to now is       12.9 secs

     total energy              =     -65.89612071 Ry
     estimated scf accuracy    <       0.00010786 Ry

     iteration #  4     ecut=    60.00 Ry     beta= 0.80
     Davidson diagonalization with overlap
     ethr =  6.74E-07,  avg # of iterations =  2.2

     total cpu time spent up to now is       13.7 secs

     total energy              =     -65.89609887 Ry
     estimated scf accuracy    <       0.00004298 Ry

     iteration #  5     ecut=    60.00 Ry     beta= 0.80
     Davidson diagonalization with overlap
     ethr =  2.69E-07,  avg # of iterations =  2.0

     total cpu time spent up to now is       14.4 secs

     total energy              =     -65.89610368 Ry
     estimated scf accuracy    <       0.00000162 Ry

     iteration #  6     ecut=    60.00 Ry     beta= 0.80
     Davidson diagonalization with overlap
     ethr =  1.01E-08,  avg # of iterations =  2.1

     total cpu time spent up to now is       15.2 secs

     total energy              =     -65.89610375 Ry
     estimated scf accuracy    <       0.00000019 Ry

     iteration #  7     ecut=    60.00 Ry     beta= 0.80
     Davidson diagonalization with overlap
     ethr =  1.20E-09,  avg # of iterations =  2.1

     total cpu time spent up to now is       16.0 secs

     End of self-consistent calculation

          k = 0.0000 0.0000 0.0000 (  2235 PWs)   bands (ev):

   -38.3810 -38.1004 -38.1004 -38.0534  -2.5392   5.3029   5.3029   5.8327
     6.5954  13.7122  14.5480  15.0131

          k =-0.1418-0.0000 0.3026 (  2240 PWs)   bands (ev):

   -38.3540 -38.1070 -38.1005 -38.0505  -2.1953   5.0096   5.2186   6.4983
     7.3202  11.2126  12.8740  13.8618

          k =-0.2835-0.0000 0.6051 (  2259 PWs)   bands (ev):

   -38.2823 -38.1160 -38.1034 -38.0594  -1.1683   4.8786   5.2829   6.2834
     8.7031   9.4530  10.8752  12.1503

          k =-0.4253-0.0000 0.9077 (  2260 PWs)   bands (ev):

   -38.1966 -38.1224 -38.1173 -38.0810   0.4400   3.4101   5.2131   5.6509
     8.3126  10.3369  11.0184  12.4534

          k = 0.0000 0.2481 0.5295 (  2252 PWs)   bands (ev):

   -38.3027 -38.1142 -38.1022 -38.0551  -1.4877   4.9084   5.2374   6.6802
     8.3408   9.5583  11.1638  12.5155

          k =-0.1418 0.2481 0.8320 (  2252 PWs)   bands (ev):

   -38.2266 -38.1189 -38.1046 -38.0736  -0.0580   4.0551   5.3277   5.9461
     8.7377   9.8975  10.6331  11.5638

          k =-0.2835 0.2481 1.1346 (  2261 PWs)   bands (ev):

   -38.1632 -38.1411 -38.1228 -38.0854   0.9149   2.8559   5.0564   5.4470
     8.3673  10.7638  11.2270  13.1785

          k =-0.4253 0.2481 1.4371 (  2251 PWs)   bands (ev):

   -38.2160 -38.1619 -38.0936 -38.0743  -0.6518   4.0046   5.0839   5.6803
     8.0586  11.1082  11.5968  12.8011

          k = 0.4253 0.2481-0.3782 (  2242 PWs)   bands (ev):

   -38.2927 -38.1686 -38.0916 -38.0474  -1.8795   3.4542   5.3255   6.8785
     9.1339  10.1331  11.8558  13.1379

          k = 0.2835 0.2481-0.0756 (  2258 PWs)   bands (ev):

   -38.3450 -38.1584 -38.0930 -38.0409  -2.4340   3.4763   5.2377   6.5813
     8.5825  11.7171  13.1919  14.0268

          k = 0.1418 0.2481 0.2269 (  2244 PWs)   bands (ev):

   -38.3482 -38.1335 -38.0966 -38.0445  -2.2979   4.0583   5.1023   6.9421
     7.9239  11.2308  13.1510  13.6194

          k =-0.0000-0.4962-1.0589 (  2252 PWs)   bands (ev):

   -38.1716 -38.1351 -38.1180 -38.0847   1.0002   2.7154   5.2023   5.7539
     8.0548  10.3758  11.7569  11.9286

          k =-0.1418-0.4962-0.7564 (  2252 PWs)   bands (ev):

   -38.2166 -38.1392 -38.1007 -38.0774  -0.3131   4.2851   4.8155   5.5765
     8.1871  10.3545  12.0371  12.8372

          k =-0.2835-0.4962-0.4538 (  2252 PWs)   bands (ev):

   -38.2664 -38.1786 -38.0893 -38.0541  -1.6171   3.4240   5.2995   7.2996
     8.0122  10.2478  12.3814  12.9679

          k =-0.4253-0.4962-0.1513 (  2255 PWs)   bands (ev):

   -38.2926 -38.2131 -38.0861 -38.0404  -2.2961   2.8665   5.1342   7.5966
     8.0823  12.2417  12.6139  14.4765

          k = 0.2481-0.2481-0.0000 (  2257 PWs)   bands (ev):

   -38.3508 -38.1531 -38.0936 -38.0412  -2.4644   3.5714   5.1964   6.6236
     8.3308  11.9125  13.4078  14.0848

          k = 0.1063-0.2481 0.3026 (  2243 PWs)   bands (ev):

   -38.3411 -38.1266 -38.0987 -38.0461  -2.1576   4.2370   5.2505   6.6319
     8.3292  10.6976  12.3664  13.5400

          k =-0.0354-0.2481 0.6051 (  2256 PWs)   bands (ev):

   -38.2857 -38.1140 -38.1018 -38.0593  -1.1837   4.9137   5.4940   6.2190
     8.6727   9.3149  10.8726  12.1494

          k =-0.1772-0.2481 0.9077 (  2247 PWs)   bands (ev):

   -38.2064 -38.1225 -38.1079 -38.0783   0.3622   3.5008   5.2899   5.9460
     8.4306  10.2887  11.0687  11.5305

          k = 0.6734-0.2481-0.9077 (  2260 PWs)   bands (ev):

   -38.1631 -38.1539 -38.1133 -38.0868   0.5801   3.2951   4.7146   5.5695
     8.1405  10.8362  11.9633  13.1882

          k = 0.5316-0.2481-0.6051 (  2257 PWs)   bands (ev):

   -38.2364 -38.1655 -38.0910 -38.0676  -1.0172   3.7799   5.4526   6.0491
     8.0081  10.4558  12.1091  13.2049

          k = 0.3899-0.2481-0.3026 (  2243 PWs)   bands (ev):

   -38.3098 -38.1678 -38.0911 -38.0439  -2.0829   3.4232   5.1335   7.5465
     8.2144  10.6496  12.6790  13.2071

          k = 0.1063-0.0000 0.8320 (  2249 PWs)   bands (ev):

   -38.2373 -38.1068 -38.1059 -38.0732  -0.1244   4.1300   5.9654   6.0184
     8.2026   9.6066  10.7971  11.0632

          k =-0.0354-0.0000 1.1346 (  2251 PWs)   bands (ev):

   -38.1606 -38.1244 -38.1240 -38.1015   0.9770   2.8294   5.3268   5.3336
     7.4052  11.2285  11.8004  11.8423

          k =-0.1772-0.0000 1.4371 (  2256 PWs)   bands (ev):

   -38.1780 -38.1502 -38.1242 -38.0939  -0.4839   4.3199   4.3887   5.1953
     6.6443  12.7924  13.4812  14.9485

          k = 0.6734 0.0000-0.3782 (  2243 PWs)   bands (ev):

   -38.2510 -38.1666 -38.1285 -38.0539  -1.7444   3.7007   3.8271   6.3920
     8.5876  12.6261  13.4640  15.2466

          k = 0.5316 0.0000-0.0756 (  2248 PWs)   bands (ev):

   -38.3109 -38.1634 -38.1220 -38.0392  -2.3423   3.5816   3.7907   6.5496
    10.1853  12.0854  13.3101  15.1925

          k = 0.3899 0.0000 0.2269 (  2241 PWs)   bands (ev):

   -38.3310 -38.1401 -38.1099 -38.0412  -2.2478   4.0259   4.2791   7.0818
     8.8316  11.0592  12.6235  14.8855

          k = 0.2481-0.7443-1.0589 (  2260 PWs)   bands (ev):

   -38.1728 -38.1286 -38.1251 -38.0842   0.9974   2.7391   5.3365   5.4339
     8.4449  10.6320  11.0171  12.5903

          k = 0.1063-0.7443-0.7564 (  2251 PWs)   bands (ev):

   -38.1785 -38.1478 -38.1118 -38.0952  -0.1487   4.3919   4.4991   4.8953
     7.2233  11.8867  12.2980  14.8304

          k =-0.0354-0.7443-0.4538 (  2250 PWs)   bands (ev):

   -38.2249 -38.1682 -38.1314 -38.0631  -1.4697   3.7424   3.9233   6.2873
     7.6773  13.3560  13.9345  15.3833

          k =-0.1772-0.7443-0.1513 (  2252 PWs)   bands (ev):

   -38.2571 -38.2013 -38.1286 -38.0446  -2.1874   3.0989   3.8300   5.9917
    10.9363  12.5336  14.7204  15.2391

          k = 0.6734-0.7443-1.9666 (  2245 PWs)   bands (ev):

   -38.2717 -38.2058 -38.1106 -38.0424  -2.2293   2.9911   4.2673   6.3072
    10.4567  12.1805  13.3958  15.1813

          k = 0.5316-0.7443-1.6640 (  2251 PWs)   bands (ev):

   -38.2631 -38.1766 -38.0943 -38.0542  -1.6017   3.4544   5.1220   6.9554
     8.1883  10.9393  12.1035  12.9880

          k = 0.3899-0.7443-1.3615 (  2249 PWs)   bands (ev):

   -38.2246 -38.1416 -38.0957 -38.0718  -0.3647   4.3900   4.6739   5.9669
     8.9018  10.3160  10.8522  11.9090

          k = 0.2481-0.4962-0.5295 (  2253 PWs)   bands (ev):

   -38.2563 -38.1670 -38.0923 -38.0586  -1.3455   3.6588   5.3225   6.7285
     8.0143  10.8640  11.8013  12.3633

          k = 0.1063-0.4962-0.2269 (  2244 PWs)   bands (ev):

   -38.3072 -38.1634 -38.1105 -38.0415  -2.1905   3.4735   4.3704   6.6714
    10.1834  10.7696  12.5634  14.6331

          k =-0.0354-0.4962 0.0756 (  2244 PWs)   bands (ev):

   -38.3187 -38.1598 -38.1178 -38.0386  -2.3616   3.6552   3.8616   6.7489
     9.6375  12.1192  13.3842  15.3573

          k =-0.1772-0.4962 0.3782 (  2247 PWs)   bands (ev):

   -38.2858 -38.1668 -38.1001 -38.0481  -1.8503   3.5245   4.7308   7.5603
     8.0804  10.6928  12.5699  13.9303

          k = 0.6734-0.4962-1.4371 (  2254 PWs)   bands (ev):

   -38.2218 -38.1656 -38.0856 -38.0734  -0.6861   3.8994   5.3060   5.9221
     8.3603  10.2995  11.8708  12.5053

          k = 0.5316-0.4962-1.1346 (  2271 PWs)   bands (ev):

   -38.1645 -38.1497 -38.1215 -38.0787   0.8655   2.9159   4.8444   5.4393
     9.9459  11.1535  11.3287  11.7469

          k = 0.3899-0.4962-0.8320 (  2257 PWs)   bands (ev):

   -38.1870 -38.1621 -38.0975 -38.0779   0.0983   3.9597   4.3316   5.8816
     9.1006  10.8024  11.1873  12.4705

          k =-0.4962 0.4962 0.0000 (  2254 PWs)   bands (ev):

   -38.2964 -38.2184 -38.0848 -38.0387  -2.3819   2.7954   5.1130   7.5699
     8.0259  12.3030  13.7523  15.0518

          k =-0.6380 0.4962 0.3026 (  2241 PWs)   bands (ev):

   -38.2827 -38.1981 -38.0868 -38.0447  -2.0398   3.0717   5.2910   7.0510
     8.9088  10.7668  12.1722  13.7444

          k =-0.7797 0.4962 0.6051 (  2256 PWs)   bands (ev):

   -38.2441 -38.1565 -38.0953 -38.0644  -1.0358   3.9299   5.2308   6.2338
     8.0517  10.9679  11.7253  12.1108

          k =-0.9215 0.4962 0.9077 (  2262 PWs)   bands (ev):

   -38.1890 -38.1253 -38.1205 -38.0827   0.4892   3.3653   5.1774   5.4124
     8.4663  10.2236  11.0962  13.0366

          k =-0.6380 0.7443 0.8320 (  2251 PWs)   bands (ev):

   -38.2116 -38.1363 -38.0998 -38.0759   0.0197   3.9822   4.7483   6.0539
     8.5392  10.7866  11.2475  11.5363

          k =-0.7797 0.7443 1.1346 (  2263 PWs)   bands (ev):

   -38.1627 -38.1395 -38.1222 -38.0883   0.9276   2.8459   5.0693   5.4941
     8.0815  10.7729  11.4044  12.7455

          k =-0.9215 0.7443 1.4371 (  2243 PWs)   bands (ev):

   -38.1902 -38.1508 -38.1149 -38.0882  -0.5248   4.2060   4.6154   5.2370
     6.9221  12.0865  13.5487  14.7027

          k =-0.0709 0.7443-0.3782 (  2251 PWs)   bands (ev):

   -38.2346 -38.1766 -38.1332 -38.0569  -1.7106   3.5217   3.8753   6.1233
     8.5933  13.3218  14.0325  15.2075

          k =-0.2127 0.7443-0.0756 (  2246 PWs)   bands (ev):

   -38.2623 -38.2061 -38.1243 -38.0428  -2.2619   3.0114   3.9109   5.9848
    11.3009  12.8019  13.9197  15.4445

          k =-0.3544 0.7443 0.2269 (  2253 PWs)   bands (ev):

   -38.2734 -38.2009 -38.1059 -38.0439  -2.1338   3.0685   4.3793   6.6628
     9.5450  11.8192  13.8398  14.3323

          k =-0.6380-0.0000-0.7564 (  2254 PWs)   bands (ev):

   -38.1968 -38.1357 -38.1151 -38.0864  -0.2097   4.3786   4.7420   4.9107
     7.5916  11.1195  12.2632  14.2088

          k =-0.7797-0.0000-0.4538 (  2251 PWs)   bands (ev):

   -38.2165 -38.1694 -38.1368 -38.0651  -1.4515   3.7671   3.8351   6.1455
     7.6697  13.8211  14.2806  15.2906

          k =-0.9215-0.0000-0.1513 (  2271 PWs)   bands (ev):

   -38.2106 -38.1949 -38.1785 -38.0503  -2.1121   3.2909   3.2997   5.3583
    11.4357  14.7838  15.0058  16.3983

          k = 0.2481-0.1418-0.8320 (  2252 PWs)   bands (ev):

   -38.2265 -38.1200 -38.1031 -38.0741  -0.0579   4.0489   5.2763   6.0831
     8.3752  10.3762  10.8039  11.1965

          k = 0.2481-0.2835-1.1346 (  2261 PWs)   bands (ev):

   -38.1629 -38.1418 -38.1221 -38.0857   0.9150   2.8557   5.0182   5.5043
     8.2981  10.8372  11.3328  12.8784

          k = 0.2481-0.4253-1.4371 (  2251 PWs)   bands (ev):

   -38.2161 -38.1624 -38.0908 -38.0765  -0.6515   3.9489   5.2938   5.5678
     7.9675  10.6334  12.3253  13.3506

          k = 0.2481 0.4253 0.3782 (  2242 PWs)   bands (ev):

   -38.2931 -38.1689 -38.0908 -38.0475  -1.8795   3.4644   5.1900   7.5802
     8.1604  10.2393  12.4279  13.1011

          k = 0.2481 0.2835 0.0756 (  2258 PWs)   bands (ev):

   -38.3450 -38.1585 -38.0928 -38.0410  -2.4340   3.4870   5.1409   6.8390
     8.3036  11.8557  13.2980  13.9778

          k = 0.2481 0.1418-0.2269 (  2244 PWs)   bands (ev):

   -38.3483 -38.1335 -38.0965 -38.0445  -2.2980   4.0213   5.2944   6.4730
     8.3742  11.1781  12.7063  13.8146

          k =-0.4962-0.1418 0.7564 (  2252 PWs)   bands (ev):

   -38.2169 -38.1375 -38.1041 -38.0754  -0.3135   4.4842   4.6152   5.4723
     8.5436  10.4060  11.1971  12.9138

          k =-0.4962-0.2835 0.4538 (  2252 PWs)   bands (ev):

   -38.2667 -38.1782 -38.0899 -38.0537  -1.6172   3.4252   5.3532   6.9519
     8.3413  10.5835  11.9096  12.8102

          k =-0.4962-0.4253 0.1513 (  2255 PWs)   bands (ev):

   -38.2924 -38.2133 -38.0860 -38.0404  -2.2961   2.8640   5.1685   7.2963
     8.4264  12.1116  12.5816  14.5692

          k =-0.2481 0.1063-0.3026 (  2243 PWs)   bands (ev):

   -38.3411 -38.1270 -38.0983 -38.0460  -2.1576   4.2778   5.0955   7.0321
     7.9316  10.7063  12.6054  13.6741

          k =-0.2481-0.0354-0.6051 (  2256 PWs)   bands (ev):

   -38.2857 -38.1136 -38.1021 -38.0593  -1.1838   4.9715   5.3688   6.3125
     8.4961   9.5581  10.8712  11.8932

          k =-0.2481-0.1772-0.9077 (  2247 PWs)   bands (ev):

   -38.2065 -38.1212 -38.1092 -38.0781   0.3620   3.5023   5.3523   5.8290
     8.6515  10.1385  10.6954  11.9528

          k =-0.2481 0.6734 0.9077 (  2260 PWs)   bands (ev):

   -38.1648 -38.1512 -38.1150 -38.0861   0.5798   3.2967   4.7645   5.4655
     8.3025  10.8555  11.4101  13.8084

          k =-0.2481 0.5316 0.6051 (  2257 PWs)   bands (ev):

   -38.2362 -38.1649 -38.0931 -38.0663  -1.0174   3.8146   5.2858   6.1860
     7.9691  11.0377  11.8092  12.3478

          k =-0.2481 0.3899 0.3026 (  2243 PWs)   bands (ev):

   -38.3096 -38.1679 -38.0914 -38.0436  -2.0829   3.4057   5.3168   6.7582
     9.5516  10.0808  12.0678  13.5173

          k =-0.7443 0.1063 0.7564 (  2251 PWs)   bands (ev):

   -38.1778 -38.1490 -38.1092 -38.0972  -0.1485   4.2921   4.5916   4.9282
     7.1800  11.5519  13.1992  14.0988

          k =-0.7443-0.0354 0.4538 (  2250 PWs)   bands (ev):

   -38.2248 -38.1679 -38.1317 -38.0631  -1.4697   3.7390   3.9295   6.2730
     7.6914  13.4672  13.9979  14.8296

          k =-0.7443-0.1772 0.1513 (  2252 PWs)   bands (ev):

   -38.2570 -38.2013 -38.1285 -38.0447  -2.1874   3.0836   3.8657   5.9445
    11.1559  12.4874  13.9859  15.5963

          k =-0.7443 0.6734 1.9666 (  2245 PWs)   bands (ev):

   -38.2720 -38.2055 -38.1107 -38.0422  -2.2293   3.0043   4.2146   6.4177
    10.1084  12.3647  13.9487  14.8694

          k =-0.7443 0.5316 1.6640 (  2251 PWs)   bands (ev):

   -38.2628 -38.1770 -38.0936 -38.0547  -1.6016   3.4532   5.0760   7.3750
     7.7760  10.5630  12.5116  13.3530

          k =-0.7443 0.3899 1.3615 (  2249 PWs)   bands (ev):

   -38.2246 -38.1422 -38.0939 -38.0730  -0.3644   4.2837   4.7834   6.0647
     8.4591  10.4617  11.4958  11.7685

          k =-0.4962 0.2481 0.5295 (  2253 PWs)   bands (ev):

   -38.2558 -38.1679 -38.0909 -38.0596  -1.3454   3.6422   5.3623   6.7338
     8.0617  10.2403  12.0757  13.1178

          k =-0.4962 0.1063 0.2269 (  2244 PWs)   bands (ev):

   -38.3074 -38.1635 -38.1103 -38.0414  -2.1905   3.5398   4.2079   7.0838
     9.0641  11.4894  13.0075  14.8202

          k =-0.4962-0.0354-0.0756 (  2244 PWs)   bands (ev):

   -38.3185 -38.1596 -38.1180 -38.0388  -2.3616   3.5618   3.9943   6.6059
    10.0258  11.7718  13.3293  14.8278

          k =-0.4962-0.1772-0.3782 (  2247 PWs)   bands (ev):

   -38.2853 -38.1669 -38.1005 -38.0482  -1.8503   3.5059   4.8393   6.9049
     8.9107  10.7975  12.0596  13.5892

          k =-0.4962 0.6734 1.4371 (  2254 PWs)   bands (ev):

   -38.2215 -38.1653 -38.0877 -38.0720  -0.6863   3.9331   5.1979   5.9631
     8.4411  10.6330  11.3916  12.2043

          k =-0.4962 0.5316 1.1346 (  2271 PWs)   bands (ev):

   -38.1644 -38.1497 -38.1215 -38.0789   0.8655   2.9160   4.8476   5.4340
    10.0072  10.9487  11.4632  11.7328

          k =-0.4962 0.3899 0.8320 (  2257 PWs)   bands (ev):

   -38.1867 -38.1624 -38.0966 -38.0787   0.0985   3.9491   4.3302   5.9350
     8.8642  10.9138  11.6260  12.4966

          k = 0.4962-0.6380-0.3026 (  2241 PWs)   bands (ev):

   -38.2830 -38.1981 -38.0865 -38.0448  -2.0399   3.0778   5.1975   7.6548
     8.1213  10.9368  12.5691  13.4694

          k = 0.4962-0.7797-0.6051 (  2256 PWs)   bands (ev):

   -38.2441 -38.1574 -38.0932 -38.0656  -1.0356   3.8831   5.4298   6.0667
     8.1272  10.2927  11.9334  13.2659

          k = 0.4962-0.9215-0.9077 (  2262 PWs)   bands (ev):

   -38.1885 -38.1300 -38.1154 -38.0837   0.4896   3.3624   4.9986   5.6989
     8.1132  10.4636  11.4943  12.6739

          k = 0.7443-0.6380-0.8320 (  2251 PWs)   bands (ev):

   -38.2118 -38.1353 -38.1017 -38.0748   0.0194   3.9965   4.7748   5.9039
     9.1773  10.0338  10.8015  12.1261

          k = 0.7443-0.7797-1.1346 (  2263 PWs)   bands (ev):

   -38.1629 -38.1388 -38.1230 -38.0880   0.9275   2.8460   5.1105   5.4355
     8.1345  10.7280  11.2936  13.0158

          k = 0.7443-0.9215-1.4371 (  2243 PWs)   bands (ev):

   -38.1902 -38.1502 -38.1163 -38.0875  -0.5249   4.2731   4.5193   5.2549
     6.9391  12.4578  12.7717  14.8269

          k = 0.7443-0.0709 0.3782 (  2251 PWs)   bands (ev):

   -38.2345 -38.1769 -38.1330 -38.0569  -1.7106   3.5374   3.8502   6.1528
     8.5610  13.1297  14.1761  15.9293

          k = 0.7443-0.2127 0.0756 (  2246 PWs)   bands (ev):

   -38.2624 -38.2061 -38.1243 -38.0427  -2.2619   3.0195   3.8895   6.0159
    11.1321  12.8533  14.3408  15.4087

          k = 0.7443-0.3544-0.2269 (  2253 PWs)   bands (ev):

   -38.2727 -38.2010 -38.1063 -38.0440  -2.1338   3.0527   4.4547   6.4713
    10.0123  11.6186  13.0889  14.9062

     the Fermi energy is     7.2779 ev

!    total energy              =     -65.89610377 Ry
     estimated scf accuracy    <          4.2E-09 Ry
     smearing contrib. (-TS)   =       0.00043205 Ry
     internal energy E=F+TS    =     -65.89653583 Ry

     The total energy is F=E-TS. E is the sum of the following terms:
     one-electron contribution =     -22.25543721 Ry
     hartree contribution      =      11.68571740 Ry
     xc contribution           =     -17.31248239 Ry
     ewald contribution        =     -38.01433364 Ry

     convergence has been achieved in   7 iterations

     Forces acting on atoms (cartesian axes, Ry/au):

     atom    1 type  1   force =     0.02583595    0.04412106   -0.00000000
     atom    2 type  1   force =    -0.02583595   -0.04412106   -0.00000000
     atom    3 type  1   force =    -0.04412106    0.02583595   -0.00000000
     atom    4 type  1   force =     0.04412106   -0.02583595    0.00000000
     atom    5 type  2   force =    -0.00000000   -0.00000000    0.00000000
     The non-local contrib.  to forces
     atom    1 type  1   force =     0.00245322    0.01897065    0.00000000
     atom    2 type  1   force =    -0.00245322   -0.01897065    0.00000000
     atom    3 type  1   force =    -0.01897065    0.00245322    0.00000000
     atom    4 type  1   force =     0.01897065   -0.00245322   -0.00000000
     atom    5 type  2   force =     0.00000000    0.00000000    0.00000000
     The ionic contribution  to forces
     atom    1 type  1   force =     0.05904049    0.54871932   -0.00000000
     atom    2 type  1   force =    -0.05904049   -0.54871932   -0.00000000
     atom    3 type  1   force =    -0.54871932    0.05904049   -0.00000000
     atom    4 type  1   force =     0.54871932   -0.05904049    0.00000000
     atom    5 type  2   force =     0.00000000   -0.00000000   -0.00000000
     The local contribution  to forces
     atom    1 type  1   force =    -0.03566004   -0.52356874    0.00000000
     atom    2 type  1   force =     0.03566004    0.52356874    0.00000000
     atom    3 type  1   force =     0.52356874   -0.03566004   -0.00000000
     atom    4 type  1   force =    -0.52356874    0.03566004    0.00000000
     atom    5 type  2   force =     0.00000000    0.00000000    0.00000000
     The core correction contribution to forces
     atom    1 type  1   force =     0.00000000    0.00000000    0.00000000
     atom    2 type  1   force =     0.00000000    0.00000000    0.00000000
     atom    3 type  1   force =     0.00000000    0.00000000    0.00000000
     atom    4 type  1   force =     0.00000000    0.00000000    0.00000000
     atom    5 type  2   force =     0.00000000    0.00000000    0.00000000
     The Hubbard contrib.    to forces
     atom    1 type  1   force =     0.00000000    0.00000000    0.00000000
     atom    2 type  1   force =     0.00000000    0.00000000    0.00000000
     atom    3 type  1   force =     0.00000000    0.00000000    0.00000000
     atom    4 type  1   force =     0.00000000    0.00000000    0.00000000
     atom    5 type  2   force =     0.00000000    0.00000000    0.00000000
     The SCF correction term to forces
     atom    1 type  1   force =     0.00000228   -0.00000017   -0.00000000
     atom    2 type  1   force =    -0.00000228    0.00000017    0.00000000
     atom    3 type  1   force =     0.00000017    0.00000228    0.00000000
     atom    4 type  1   force =    -0.00000017   -0.00000228   -0.00000000
     atom    5 type  2   force =     0.00000000    0.00000000   -0.00000000

     Total force =     0.102258     Total SCF correction =     0.000005


     Computing stress (Cartesian axis) and pressure

          total   stress  (Ry/bohr**3)                   (kbar)     P=      472.93
   0.00320250   0.00000000  -0.00000000          471.10        0.00       -0.00
  -0.00000000   0.00320250   0.00000000           -0.00      471.10        0.00
  -0.00000000  -0.00000000   0.00323968           -0.00       -0.00      476.57

     Energy error            =      2.0E-02 Ry
     Gradient error          =      4.4E-02 Ry/Bohr
     Cell gradient error     =      2.9E+01 kbar

     number of scf cycles    =   2
     number of bfgs steps    =   1

     enthalpy           old  =     -64.8749501007 Ry
     enthalpy           new  =     -64.8949367615 Ry

     CASE: enthalpy          _new < enthalpy          _old

     new trust radius        =       0.0844481156 bohr
ibrav =      7
 celldm(1) =     10.76142925
 celldm(3) =      0.46965550
Input lattice vectors:
     0.50237192    -0.50237192     0.23594174
     0.50237192     0.50237192     0.23594174
    -0.50237192    -0.50237192     0.23594174
New lattice vectors in INITIAL alat:
     0.50237192    -0.50237192     0.23594174
     0.50237192     0.50237192     0.23594174
    -0.50237192    -0.50237192     0.23594174
New lattice vectors in NEW alat (for information only):
     0.50000000    -0.50000000     0.23482775
     0.50000000     0.50000000     0.23482775
    -0.50000000    -0.50000000     0.23482775
Discrepancy in bohr =     0.000000    0.000000    0.000000
     new conv_thr            =       0.0000000004 Ry

     new unit-cell volume =    292.65725 a.u.^3 (    43.36733 Ang^3 )
     density =      2.13848 g/cm^3

CELL_PARAMETERS (alat= 10.71061984)
   0.502371917  -0.502371917   0.235941735
   0.502371917   0.502371917   0.235941735
  -0.502371917  -0.502371917   0.235941735

ATOMIC_POSITIONS (crystal)
Li           -0.2047722992        0.7931033217        0.4116689774
Li            0.2047722992        1.2068966783       -0.4116689774
Li            0.6185656557        0.5883310226       -0.2068966783
Li           -0.6185656557        1.4116689774        0.2068966783
Si           -0.0000000000        0.0000000000        0.0000000000



     Writing config-only to output data dir ./output/LiSi.save/
     NEW-OLD atomic charge density approx. for the potential
     extrapolated charge   15.89645, renormalised to   16.00000

     total cpu time spent up to now is       17.1 secs

     Self-consistent Calculation

     iteration #  1     ecut=    60.00 Ry     beta= 0.80
     Davidson diagonalization with overlap
     ethr =  1.00E-06,  avg # of iterations =  7.6

     total cpu time spent up to now is       18.9 secs

     total energy              =     -65.90259226 Ry
     estimated scf accuracy    <       0.00314972 Ry

     iteration #  2     ecut=    60.00 Ry     beta= 0.80
     Davidson diagonalization with overlap
     ethr =  1.97E-05,  avg # of iterations =  2.0

     total cpu time spent up to now is       19.7 secs

     total energy              =     -65.90343361 Ry
     estimated scf accuracy    <       0.00339598 Ry

     iteration #  3     ecut=    60.00 Ry     beta= 0.80
     Davidson diagonalization with overlap
     ethr =  1.97E-05,  avg # of iterations =  2.0

     total cpu time spent up to now is       20.5 secs

     total energy              =     -65.90407414 Ry
     estimated scf accuracy    <       0.00000666 Ry

     iteration #  4     ecut=    60.00 Ry     beta= 0.80
     Davidson diagonalization with overlap
     ethr =  4.16E-08,  avg # of iterations =  3.1

     total cpu time spent up to now is       21.5 secs

     total energy              =     -65.90407761 Ry
     estimated scf accuracy    <       0.00000058 Ry

     iteration #  5     ecut=    60.00 Ry     beta= 0.80
     Davidson diagonalization with overlap
     ethr =  3.64E-09,  avg # of iterations =  2.0

     total cpu time spent up to now is       22.2 secs

     total energy              =     -65.90407771 Ry
     estimated scf accuracy    <          5.0E-09 Ry

     iteration #  6     ecut=    60.00 Ry     beta= 0.80
     Davidson diagonalization with overlap
     ethr =  3.15E-11,  avg # of iterations =  2.8

     total cpu time spent up to now is       23.1 secs

     total energy              =     -65.90407771 Ry
     estimated scf accuracy    <          4.1E-10 Ry

     iteration #  7     ecut=    60.00 Ry     beta= 0.80
     Davidson diagonalization with overlap
     ethr =  2.59E-12,  avg # of iterations =  2.0

     total cpu time spent up to now is       23.8 secs

     End of self-consistent calculation

          k = 0.0000 0.0000 0.0000 (  2235 PWs)   bands (ev):

   -38.3192 -38.0147 -38.0147 -37.9708  -2.4719   5.2957   5.2957   6.0627
     6.7908  13.6965  14.8473  15.2769

          k =-0.1422-0.0000 0.3027 (  2240 PWs)   bands (ev):

   -38.2896 -38.0235 -38.0159 -37.9674  -2.1228   5.0849   5.2434   6.6582
     7.4823  11.3490  12.8966  14.0192

          k =-0.2844-0.0000 0.6055 (  2259 PWs)   bands (ev):

   -38.2116 -38.0348 -38.0208 -37.9783  -1.0793   5.0041   5.3394   6.4384
     8.7922   9.4766  10.9196  12.2455

          k =-0.4265 0.0000 0.9082 (  2260 PWs)   bands (ev):

   -38.1168 -38.0414 -38.0355 -38.0081   0.5649   3.5401   5.2982   5.7683
     8.2450  10.3282  11.1010  12.5069

          k =-0.0000 0.2488 0.5298 (  2252 PWs)   bands (ev):

   -38.2338 -38.0327 -38.0190 -37.9731  -1.4041   5.0210   5.2846   6.8497
     8.4524   9.6188  11.1868  12.6144

          k =-0.1422 0.2488 0.8325 (  2252 PWs)   bands (ev):

   -38.1495 -38.0371 -38.0224 -37.9992   0.0514   4.2241   5.4104   6.0330
     8.7039   9.9348  10.6480  11.6512

          k =-0.2844 0.2488 1.1353 (  2261 PWs)   bands (ev):

   -38.0753 -38.0656 -38.0434 -38.0126   1.0641   2.9555   5.1409   5.5479
     8.3141  10.7788  11.2782  13.2696

          k =-0.4265 0.2488 1.4380 (  2251 PWs)   bands (ev):

   -38.1463 -38.0787 -38.0155 -37.9897  -0.5507   4.0797   5.2213   5.7722
     8.0607  11.2491  11.5929  12.8960

          k = 0.4265 0.2488-0.3784 (  2242 PWs)   bands (ev):

   -38.2280 -38.0877 -38.0114 -37.9575  -1.8017   3.5264   5.3665   7.0238
     9.2544  10.2946  11.8868  13.1973

          k = 0.2844 0.2488-0.0757 (  2258 PWs)   bands (ev):

   -38.2824 -38.0776 -38.0103 -37.9512  -2.3652   3.5464   5.2437   6.7635
     8.7140  11.8733  13.1562  14.2458

          k = 0.1422 0.2488 0.2271 (  2244 PWs)   bands (ev):

   -38.2844 -38.0520 -38.0134 -37.9574  -2.2270   4.1295   5.1377   7.0951
     8.0743  11.3491  13.2909  13.5988

          k = 0.0000-0.4976-1.0596 (  2252 PWs)   bands (ev):

   -38.0856 -38.0590 -38.0368 -38.0125   1.1516   2.8121   5.2904   5.8914
     7.9684  10.3582  11.8925  11.9314

          k =-0.1422-0.4976-0.7568 (  2252 PWs)   bands (ev):

   -38.1430 -38.0576 -38.0196 -37.9982  -0.2056   4.3964   4.9228   5.6853
     8.1407  10.4255  12.0979  12.9512

          k =-0.2844-0.4976-0.4541 (  2252 PWs)   bands (ev):

   -38.2016 -38.0966 -38.0110 -37.9635  -1.5348   3.4953   5.3606   7.4876
     8.0315  10.4275  12.4420  12.9799

          k =-0.4265-0.4976-0.1514 (  2255 PWs)   bands (ev):

   -38.2338 -38.1297 -38.0064 -37.9465  -2.2254   2.9354   5.1574   7.8101
     8.1348  12.3955  12.7186  14.6165

          k = 0.2488-0.2488-0.0000 (  2257 PWs)   bands (ev):

   -38.2882 -38.0722 -38.0105 -37.9520  -2.3960   3.6412   5.2062   6.8030
     8.4653  12.0533  13.3471  14.3506

          k = 0.1066-0.2488 0.3027 (  2243 PWs)   bands (ev):

   -38.2764 -38.0453 -38.0151 -37.9600  -2.0845   4.3108   5.2817   6.7936
     8.4855  10.8284  12.3753  13.6424

          k =-0.0355-0.2488 0.6055 (  2256 PWs)   bands (ev):

   -38.2148 -38.0325 -38.0189 -37.9789  -1.0952   5.0328   5.5608   6.3720
     8.7662   9.3463  10.9132  12.2335

          k =-0.1777-0.2488 0.9082 (  2247 PWs)   bands (ev):

   -38.1268 -38.0408 -38.0265 -38.0055   0.4823   3.6481   5.3734   6.0541
     8.3689  10.3105  11.0931  11.5814

          k = 0.6754-0.2488-0.9082 (  2260 PWs)   bands (ev):

   -38.0854 -38.0705 -38.0320 -38.0137   0.7149   3.4069   4.7919   5.6813
     8.0829  10.8878  11.9903  13.2946

          k = 0.5332-0.2488-0.6055 (  2257 PWs)   bands (ev):

   -38.1682 -38.0831 -38.0134 -37.9801  -0.9237   3.8535   5.5431   6.2009
     7.9998  10.6037  12.1727  13.2354

          k = 0.3910-0.2488-0.3027 (  2243 PWs)   bands (ev):

   -38.2459 -38.0870 -38.0104 -37.9536  -2.0086   3.4945   5.1762   7.7064
     8.3157  10.8176  12.7866  13.1896

          k = 0.1066-0.0000 0.8325 (  2249 PWs)   bands (ev):

   -38.1597 -38.0248 -38.0234 -37.9998  -0.0170   4.3201   6.0451   6.1036
     8.1628   9.6560  10.8161  11.0817

          k =-0.0355 0.0000 1.1353 (  2251 PWs)   bands (ev):

   -38.0736 -38.0442 -38.0433 -38.0339   1.1385   2.9301   5.4095   5.4168
     7.3479  11.2447  11.8299  11.8710

          k =-0.1777-0.0000 1.4380 (  2256 PWs)   bands (ev):

   -38.1067 -38.0712 -38.0523 -38.0005  -0.3698   4.3906   4.4522   5.3235
     6.6478  12.8315  13.5810  15.0132

          k = 0.6754-0.0000-0.3784 (  2243 PWs)   bands (ev):

   -38.1854 -38.0884 -38.0543 -37.9563  -1.6604   3.7701   3.8737   6.4448
     8.7536  12.8037  13.5765  15.3730

          k = 0.5332 0.0000-0.0757 (  2248 PWs)   bands (ev):

   -38.2479 -38.0848 -38.0442 -37.9429  -2.2707   3.6523   3.8334   6.6302
    10.3731  12.2619  13.4803  15.1313

          k = 0.3910-0.0000 0.2271 (  2241 PWs)   bands (ev):

   -38.2670 -38.0602 -38.0287 -37.9506  -2.1757   4.1068   4.3208   7.1800
     9.0103  11.2061  12.6901  14.9381

          k = 0.2488-0.7465-1.0596 (  2260 PWs)   bands (ev):

   -38.0870 -38.0518 -38.0449 -38.0115   1.1479   2.8415   5.4216   5.5371
     8.3872  10.6446  11.0494  12.6787

          k = 0.1066-0.7465-0.7568 (  2251 PWs)   bands (ev):

   -38.1061 -38.0667 -38.0352 -38.0097  -0.0293   4.4758   4.6182   4.9681
     7.2097  11.9048  12.3975  14.9086

          k =-0.0355-0.7465-0.4541 (  2250 PWs)   bands (ev):

   -38.1581 -38.0899 -38.0590 -37.9648  -1.3791   3.8035   3.9780   6.3295
     7.8309  13.5104  14.0678  15.5207

          k =-0.1777-0.7465-0.1514 (  2252 PWs)   bands (ev):

   -38.1960 -38.1217 -38.0549 -37.9431  -2.1116   3.1549   3.8755   6.0647
    11.1278  12.7245  14.9029  15.3658

          k = 0.6754-0.7465-1.9678 (  2245 PWs)   bands (ev):

   -38.2117 -38.1248 -38.0350 -37.9432  -2.1555   3.0526   4.3100   6.3893
    10.6416  12.3698  13.5071  15.2846

          k = 0.5332-0.7465-1.6651 (  2251 PWs)   bands (ev):

   -38.1981 -38.0950 -38.0164 -37.9630  -1.5185   3.5251   5.1825   7.0706
     8.2981  11.1038  12.1474  13.0364

          k = 0.3910-0.7465-1.3623 (  2249 PWs)   bands (ev):

   -38.1509 -38.0593 -38.0138 -37.9941  -0.2606   4.5040   4.7948   6.0544
     8.9100  10.3153  10.9408  11.9899

          k = 0.2488-0.4976-0.5298 (  2253 PWs)   bands (ev):

   -38.1895 -38.0854 -38.0137 -37.9700  -1.2583   3.7323   5.3951   6.8832
     8.0646  11.0168  11.8418  12.3989

          k = 0.1066-0.4976-0.2271 (  2244 PWs)   bands (ev):

   -38.2438 -38.0842 -38.0314 -37.9474  -2.1169   3.5408   4.4188   6.7633
    10.3796  10.9259  12.6275  14.7165

          k =-0.0355-0.4976 0.0757 (  2244 PWs)   bands (ev):

   -38.2558 -38.0808 -38.0390 -37.9436  -2.2906   3.7287   3.9038   6.8300
     9.8230  12.2786  13.5613  15.2379

          k =-0.1777-0.4976 0.3784 (  2247 PWs)   bands (ev):

   -38.2209 -38.0865 -38.0216 -37.9563  -1.7713   3.5943   4.7894   7.6126
     8.2630  10.8578  12.6327  13.9557

          k = 0.6754-0.4976-1.4380 (  2254 PWs)   bands (ev):

   -38.1523 -38.0820 -38.0071 -37.9895  -0.5873   3.9759   5.4645   6.0149
     8.3192  10.4687  11.9160  12.5234

          k = 0.5332-0.4976-1.1353 (  2271 PWs)   bands (ev):

   -38.0775 -38.0727 -38.0435 -38.0052   1.0049   3.0233   4.9270   5.5298
     9.9289  11.1683  11.3668  11.8449

          k = 0.3910-0.4976-0.8325 (  2257 PWs)   bands (ev):

   -38.1142 -38.0763 -38.0154 -38.0029   0.2132   4.0961   4.4103   5.9757
     9.0686  10.9170  11.2254  12.5320

          k =-0.4976 0.4976 0.0000 (  2254 PWs)   bands (ev):

   -38.2384 -38.1345 -38.0049 -37.9448  -2.3126   2.8642   5.1302   7.8332
     8.0348  12.3800  14.0023  15.0152

          k =-0.6398 0.4976 0.3027 (  2241 PWs)   bands (ev):

   -38.2215 -38.1155 -38.0078 -37.9520  -1.9648   3.1414   5.3223   7.1966
     9.0166  10.9670  12.2055  13.8246

          k =-0.7820 0.4976 0.6055 (  2256 PWs)   bands (ev):

   -38.1752 -38.0750 -38.0163 -37.9783  -0.9428   4.0068   5.3228   6.3750
     8.0816  11.0608  11.7850  12.1787

          k =-0.9242 0.4976 0.9082 (  2262 PWs)   bands (ev):

   -38.1094 -38.0431 -38.0400 -38.0094   0.6175   3.4874   5.2787   5.5007
     8.4182  10.2066  11.1916  13.0902

          k =-0.6398 0.7465 0.8325 (  2251 PWs)   bands (ev):

   -38.1352 -38.0540 -38.0175 -38.0014   0.1317   4.1326   4.8231   6.1699
     8.4850  10.8582  11.3005  11.5698

          k =-0.7820 0.7465 1.1353 (  2263 PWs)   bands (ev):

   -38.0743 -38.0645 -38.0425 -38.0158   1.0793   2.9447   5.1500   5.6020
     8.0202  10.7989  11.4333  12.8488

          k =-0.9242 0.7465 1.4380 (  2243 PWs)   bands (ev):

   -38.1196 -38.0709 -38.0411 -37.9970  -0.4142   4.2764   4.6884   5.3679
     6.9217  12.1372  13.6429  14.8785

          k =-0.0711 0.7465-0.3784 (  2251 PWs)   bands (ev):

   -38.1696 -38.0984 -38.0606 -37.9571  -1.6249   3.5796   3.9273   6.1771
     8.7538  13.5117  14.1932  15.2934

          k =-0.2133 0.7465-0.0757 (  2246 PWs)   bands (ev):

   -38.2022 -38.1261 -38.0501 -37.9414  -2.1878   3.0683   3.9539   6.0634
    11.5001  12.9895  14.1135  15.4236

          k =-0.3555 0.7465 0.2271 (  2253 PWs)   bands (ev):

   -38.2123 -38.1197 -38.0297 -37.9467  -2.0586   3.1319   4.4269   6.7354
     9.7252  12.0062  13.8955  14.4556

          k =-0.6398 0.0000-0.7568 (  2254 PWs)   bands (ev):

   -38.1232 -38.0557 -38.0350 -38.0044  -0.0950   4.4995   4.8208   5.0012
     7.5759  11.1423  12.3528  14.3749

          k =-0.7820 0.0000-0.4541 (  2251 PWs)   bands (ev):

   -38.1498 -38.0913 -38.0652 -37.9657  -1.3598   3.8295   3.8848   6.1888
     7.8211  13.9701  14.4455  15.4130

          k =-0.9242 0.0000-0.1514 (  2271 PWs)   bands (ev):

   -38.1473 -38.1178 -38.1091 -37.9441  -2.0325   3.3340   3.3414   5.4369
    11.6027  15.0590  15.2958  16.5238

          k = 0.2488-0.1422-0.8325 (  2252 PWs)   bands (ev):

   -38.1495 -38.0381 -38.0207 -38.0000   0.0515   4.2172   5.3511   6.1945
     8.3202  10.4084  10.8710  11.2284

          k = 0.2488-0.2844-1.1353 (  2261 PWs)   bands (ev):

   -38.0743 -38.0672 -38.0427 -38.0128   1.0642   2.9553   5.0991   5.6123
     8.2403  10.8690  11.3583  12.9883

          k = 0.2488-0.4265-1.4380 (  2251 PWs)   bands (ev):

   -38.1463 -38.0794 -38.0137 -37.9908  -0.5504   4.0238   5.4528   5.6503
     7.9407  10.7543  12.4051  13.3898

          k = 0.2488 0.4265 0.3784 (  2242 PWs)   bands (ev):

   -38.2285 -38.0878 -38.0109 -37.9574  -1.8018   3.5362   5.2415   7.7573
     8.2234  10.4095  12.5070  13.0973

          k = 0.2488 0.2844 0.0757 (  2258 PWs)   bands (ev):

   -38.2822 -38.0777 -38.0102 -37.9513  -2.3652   3.5571   5.1593   7.0109
     8.4329  12.0010  13.2718  14.1977

          k = 0.2488 0.1422-0.2271 (  2244 PWs)   bands (ev):

   -38.2845 -38.0521 -38.0131 -37.9574  -2.2270   4.0926   5.3091   6.6482
     8.5259  11.3177  12.7167  13.9299

          k =-0.4976-0.1422 0.7568 (  2252 PWs)   bands (ev):

   -38.1430 -38.0561 -38.0230 -37.9962  -0.2061   4.6349   4.6936   5.5502
     8.5453  10.4100  11.2785  13.0448

          k =-0.4976-0.2844 0.4541 (  2252 PWs)   bands (ev):

   -38.2019 -38.0961 -38.0114 -37.9633  -1.5348   3.4969   5.4098   7.0933
     8.4301  10.7529  11.9439  12.8519

          k =-0.4976-0.4265 0.1514 (  2255 PWs)   bands (ev):

   -38.2336 -38.1300 -38.0064 -37.9464  -2.2254   2.9330   5.1884   7.4672
     8.5239  12.2687  12.6824  14.7211

          k =-0.2488 0.1066-0.3027 (  2243 PWs)   bands (ev):

   -38.2765 -38.0453 -38.0150 -37.9601  -2.0845   4.3514   5.1393   7.1798
     8.0855  10.8222  12.6791  13.6989

          k =-0.2488-0.0355-0.6055 (  2256 PWs)   bands (ev):

   -38.2150 -38.0319 -38.0191 -37.9790  -1.0952   5.1044   5.4246   6.4642
     8.5793   9.5989  10.9025  11.9803

          k =-0.2488-0.1777-0.9082 (  2247 PWs)   bands (ev):

   -38.1270 -38.0395 -38.0281 -38.0050   0.4821   3.6497   5.4435   5.9198
     8.5982  10.1730  10.7095  11.9868

          k =-0.2488 0.6754 0.9082 (  2260 PWs)   bands (ev):

   -38.0865 -38.0683 -38.0342 -38.0126   0.7146   3.4084   4.8473   5.5626
     8.2573  10.8865  11.4701  13.9246

          k =-0.2488 0.5332 0.6055 (  2257 PWs)   bands (ev):

   -38.1682 -38.0826 -38.0149 -37.9791  -0.9239   3.8889   5.3805   6.3238
     7.9916  11.1783  11.8306  12.4138

          k =-0.2488 0.3910 0.3027 (  2243 PWs)   bands (ev):

   -38.2458 -38.0871 -38.0104 -37.9535  -2.0086   3.4772   5.3436   6.9151
     9.6620  10.2675  12.0957  13.5947

          k =-0.7465 0.1066 0.7568 (  2251 PWs)   bands (ev):

   -38.1055 -38.0677 -38.0339 -38.0107  -0.0292   4.3821   4.6961   5.0139
     7.1605  11.5965  13.2774  14.1729

          k =-0.7465-0.0355 0.4541 (  2250 PWs)   bands (ev):

   -38.1582 -38.0895 -38.0591 -37.9651  -1.3791   3.8007   3.9834   6.3162
     7.8444  13.6127  14.1553  14.9345

          k =-0.7465-0.1777 0.1514 (  2252 PWs)   bands (ev):

   -38.1959 -38.1218 -38.0551 -37.9431  -2.1116   3.1397   3.9101   6.0197
    11.3476  12.6765  14.1795  15.6051

          k =-0.7465 0.6754 1.9678 (  2245 PWs)   bands (ev):

   -38.2117 -38.1246 -38.0350 -37.9435  -2.1555   3.0658   4.2594   6.4945
    10.2945  12.5541  14.0271  15.0367

          k =-0.7465 0.5332 1.6651 (  2251 PWs)   bands (ev):

   -38.1978 -38.0954 -38.0161 -37.9633  -1.5184   3.5233   5.1400   7.5325
     7.8256  10.7355  12.5704  13.3778

          k =-0.7465 0.3910 1.3623 (  2249 PWs)   bands (ev):

   -38.1509 -38.0598 -38.0120 -37.9953  -0.2603   4.3932   4.9045   6.1785
     8.4052  10.5927  11.5367  11.7906

          k =-0.4976 0.2488 0.5298 (  2253 PWs)   bands (ev):

   -38.1889 -38.0860 -38.0127 -37.9709  -1.2582   3.7152   5.4359   6.9046
     8.0707  10.4053  12.1302  13.1408

          k =-0.4976 0.1066 0.2271 (  2244 PWs)   bands (ev):

   -38.2436 -38.0842 -38.0315 -37.9476  -2.1169   3.6072   4.2604   7.1539
     9.2530  11.6625  13.1019  14.8203

          k =-0.4976-0.0355-0.0757 (  2244 PWs)   bands (ev):

   -38.2556 -38.0808 -38.0391 -37.9437  -2.2906   3.6288   4.0414   6.6938
    10.2062  11.9460  13.4872  14.7975

          k =-0.4976-0.1777-0.3784 (  2247 PWs)   bands (ev):

   -38.2204 -38.0867 -38.0216 -37.9565  -1.7713   3.5763   4.8929   7.0043
     9.0683  10.9476  12.1054  13.6666

          k =-0.4976 0.6754 1.4380 (  2254 PWs)   bands (ev):

   -38.1522 -38.0815 -38.0084 -37.9887  -0.5876   4.0095   5.3504   6.0504
     8.4382  10.7878  11.3960  12.2565

          k =-0.4976 0.5332 1.1353 (  2271 PWs)   bands (ev):

   -38.0779 -38.0722 -38.0434 -38.0053   1.0049   3.0234   4.9305   5.5238
     9.9907  10.9626  11.5064  11.8263

          k =-0.4976 0.3910 0.8325 (  2257 PWs)   bands (ev):

   -38.1140 -38.0766 -38.0142 -38.0040   0.2134   4.0842   4.4083   6.0379
     8.8201  11.0668  11.6493  12.5354

          k = 0.4976-0.6398-0.3027 (  2241 PWs)   bands (ev):

   -38.2215 -38.1155 -38.0077 -37.9521  -1.9648   3.1475   5.2365   7.8225
     8.1999  11.1348  12.6093  13.5306

          k = 0.4976-0.7820-0.6055 (  2256 PWs)   bands (ev):

   -38.1751 -38.0757 -38.0146 -37.9793  -0.9426   3.9588   5.5173   6.2223
     8.1195  10.4303  11.9984  13.3002

          k = 0.4976-0.9242-0.9082 (  2262 PWs)   bands (ev):

   -38.1091 -38.0486 -38.0335 -38.0108   0.6179   3.4844   5.0787   5.8292
     8.0378  10.4686  11.5769  12.7259

          k = 0.7465-0.6398-0.8325 (  2251 PWs)   bands (ev):

   -38.1354 -38.0531 -38.0196 -37.9999   0.1314   4.1483   4.8545   5.9935
     9.1666  10.0257  10.8799  12.2042

          k = 0.7465-0.7820-1.1353 (  2263 PWs)   bands (ev):

   -38.0749 -38.0634 -38.0434 -38.0155   1.0792   2.9448   5.1949   5.5362
     8.0776  10.7426  11.3435  13.0942

          k = 0.7465-0.9242-1.4380 (  2243 PWs)   bands (ev):

   -38.1194 -38.0704 -38.0419 -37.9970  -0.4143   4.3438   4.5943   5.3811
     6.9421  12.4779  12.8852  15.0006

          k = 0.7465-0.0711 0.3784 (  2251 PWs)   bands (ev):

   -38.1694 -38.0984 -38.0604 -37.9573  -1.6249   3.5947   3.9032   6.2050
     8.7219  13.3284  14.2963  16.0951

          k = 0.7465-0.2133 0.0757 (  2246 PWs)   bands (ev):

   -38.2022 -38.1261 -38.0502 -37.9414  -2.1878   3.0763   3.9332   6.0930
    11.3310  13.0406  14.5074  15.6000

[...]
     8.8320  12.5364  13.5263  15.3185

          k = 0.2501-0.2501 0.0000 (  2219 PWs)   bands (ev):

   -38.0365 -37.7926 -37.6540 -37.6173  -2.2119   3.8427   5.0453   7.4985
     8.9805  12.5959  13.0862  15.7078

          k = 0.1072-0.2501 0.3096 (  2215 PWs)   bands (ev):

   -38.0190 -37.7583 -37.6649 -37.6284  -1.8638   4.4755   5.2330   7.4579
     9.0676  11.4026  12.4597  14.3572

          k =-0.0357-0.2501 0.6193 (  2231 PWs)   bands (ev):

   -37.9361 -37.7366 -37.6792 -37.6542  -0.7942   5.3421   5.7352   7.0829
     9.1158   9.5706  11.2502  12.6116

          k =-0.1786-0.2501 0.9289 (  2224 PWs)   bands (ev):

   -37.8190 -37.7299 -37.7034 -37.6994   0.9394   4.1256   5.7519   6.5298
     8.3324  10.5062  11.3032  11.8237

          k = 0.6788-0.2501-0.9289 (  2233 PWs)   bands (ev):

   -37.7831 -37.7539 -37.7112 -37.7045   1.1811   3.7989   5.1908   6.1899
     8.0532  11.2488  12.1213  14.0130

          k = 0.5359-0.2501-0.6193 (  2221 PWs)   bands (ev):

   -37.8859 -37.7944 -37.6884 -37.6359  -0.6562   4.1866   5.8141   6.8420
     8.1688  11.1773  12.5317  13.4329

          k = 0.3930-0.2501-0.3096 (  2220 PWs)   bands (ev):

   -37.9843 -37.8098 -37.6655 -37.6115  -1.8148   3.7605   5.1885   8.2340
     8.8482  11.4982  13.1111  13.4704

          k = 0.1072-0.0000 0.8515 (  2223 PWs)   bands (ev):

   -37.8593 -37.7178 -37.6928 -37.6909   0.3931   4.9682   6.3416   6.4147
     8.2291  10.0560  10.9053  11.1807

          k =-0.0357 0.0000 1.1612 (  2230 PWs)   bands (ev):

   -37.7405 -37.7377 -37.7360 -37.7321   1.7440   3.2138   5.8288   5.8372
     7.3599  11.6862  11.9227  12.0513

          k =-0.1786-0.0000 1.4708 (  2227 PWs)   bands (ev):

   -37.8164 -37.7875 -37.7443 -37.6401  -0.0869   4.7641   4.8250   5.8909
     6.7565  13.2105  14.0625  15.5461

          k = 0.6788 0.0000-0.3871 (  2219 PWs)   bands (ev):

   -37.9141 -37.8210 -37.7352 -37.5852  -1.4972   4.0474   4.1792   6.6588
     9.5341  13.2154  14.0322  16.1251

          k = 0.5359 0.0000-0.0774 (  2211 PWs)   bands (ev):

   -37.9905 -37.8193 -37.7113 -37.5759  -2.1272   3.8458   4.0615   6.9235
    10.9445  12.8370  14.2515  15.1772

          k = 0.3930-0.0000 0.2322 (  2211 PWs)   bands (ev):

   -38.0104 -37.7845 -37.6856 -37.6018  -1.9869   4.2621   4.4851   7.5612
     9.6236  11.7809  13.0417  15.2127

          k = 0.2501-0.7503-1.0838 (  2232 PWs)   bands (ev):

   -37.7623 -37.7416 -37.7295 -37.7113   1.7567   3.1114   5.8498   6.0140
     8.3662  10.7944  11.2966  13.1917

          k = 0.1072-0.7503-0.7741 (  2220 PWs)   bands (ev):

   -37.8120 -37.7738 -37.7248 -37.6619   0.3088   4.8625   5.1041   5.3827
     7.3010  12.1964  12.8730  15.4480

          k =-0.0357-0.7503-0.4645 (  2218 PWs)   bands (ev):

   -37.8811 -37.8196 -37.7454 -37.5929  -1.2022   4.1245   4.2973   6.5093
     8.5586  13.8861  14.6295  16.2625

          k =-0.1786-0.7503-0.1548 (  2219 PWs)   bands (ev):

   -37.9274 -37.8630 -37.7390 -37.5628  -2.0000   3.4642   4.1040   6.3036
    11.8803  13.5387  15.1254  15.7935

          k = 0.6788-0.7503-2.0127 (  2217 PWs)   bands (ev):

   -37.9463 -37.8636 -37.7102 -37.5719  -2.0267   3.3552   4.4571   6.6924
    11.3138  13.2026  13.7245  15.7179

          k = 0.5359-0.7503-1.7030 (  2226 PWs)   bands (ev):

   -37.9260 -37.8169 -37.6853 -37.6122  -1.3063   3.8312   5.3481   7.5126
     8.8862  11.6353  12.4039  13.5395

          k = 0.3930-0.7503-1.3934 (  2232 PWs)   bands (ev):

   -37.8586 -37.7578 -37.6871 -37.6713   0.0900   4.8871   5.3118   6.4492
     9.0133  10.4463  11.4194  12.3876

          k = 0.2501-0.5002-0.5419 (  2225 PWs)   bands (ev):

   -37.9128 -37.8016 -37.6827 -37.6257  -1.0169   4.0449   5.6043   7.5003
     8.4081  11.4646  12.1963  12.8149

          k = 0.1072-0.5002-0.2322 (  2211 PWs)   bands (ev):

   -37.9836 -37.8131 -37.6969 -37.5886  -1.9503   3.7837   4.5663   7.1235
    11.0294  11.5765  12.8424  15.2989

          k =-0.0357-0.5002 0.0774 (  2205 PWs)   bands (ev):

   -37.9993 -37.8131 -37.7033 -37.5806  -2.1389   3.9153   4.1099   7.1285
    10.4143  12.7840  14.3742  15.1469

          k =-0.1786-0.5002 0.3871 (  2222 PWs)   bands (ev):

   -37.9538 -37.8099 -37.6888 -37.6038  -1.5749   3.8781   4.9462   7.8667
     9.0096  11.4825  13.0416  14.0526

          k = 0.6788-0.5002-1.4708 (  2223 PWs)   bands (ev):

   -37.8656 -37.7865 -37.6823 -37.6539  -0.2838   4.3238   6.0457   6.3652
     8.4079  11.0994  12.1672  12.7620

          k = 0.5359-0.5002-1.1612 (  2242 PWs)   bands (ev):

   -37.7704 -37.7474 -37.7271 -37.7032   1.5395   3.3456   5.3464   5.9938
     9.9442  11.2961  11.5155  12.3181

          k = 0.3930-0.5002-0.8515 (  2237 PWs)   bands (ev):

   -37.8173 -37.7664 -37.6927 -37.6863   0.6037   4.5778   4.7922   6.4331
     9.0545  11.1691  11.6896  13.0273

          k =-0.5002 0.5002-0.0000 (  2214 PWs)   bands (ev):

   -37.9758 -37.8728 -37.6530 -37.5979  -2.1645   3.1632   5.0237   8.2601
     8.7420  12.4841  14.8761  15.3086

          k =-0.6431 0.5002 0.3096 (  2218 PWs)   bands (ev):

   -37.9560 -37.8449 -37.6652 -37.6048  -1.7869   3.4414   5.3024   7.7322
     9.5781  11.7644  12.3203  14.4439

          k =-0.7860 0.5002 0.6193 (  2223 PWs)   bands (ev):

   -37.8936 -37.7860 -37.6885 -37.6368  -0.6715   4.3296   5.6260   6.9966
     8.3008  11.3043  12.3466  12.5573

          k =-0.9289 0.5002 0.9289 (  2230 PWs)   bands (ev):

   -37.8020 -37.7374 -37.7125 -37.7004   1.0792   3.9033   5.7247   5.9237
     8.4618  10.2127  11.7036  13.5917

          k =-0.6431 0.7503 0.8515 (  2224 PWs)   bands (ev):

   -37.8355 -37.7462 -37.6913 -37.6882   0.5293   4.6515   5.1781   6.6618
     8.4600  11.1144  11.5727  11.8575

          k =-0.7860 0.7503 1.1612 (  2233 PWs)   bands (ev):

   -37.7582 -37.7450 -37.7300 -37.7135   1.6512   3.2407   5.5656   6.0976
     7.9908  11.0808  11.5835  13.5000

          k =-0.9289 0.7503 1.4708 (  2220 PWs)   bands (ev):

   -37.8302 -37.7853 -37.7306 -37.6414  -0.1270   4.6400   5.0571   5.9396
     7.0403  12.5232  14.0649  15.2648

          k =-0.0715 0.7503-0.3871 (  2218 PWs)   bands (ev):

   -37.8954 -37.8314 -37.7470 -37.5816  -1.4727   3.8930   4.2289   6.3754
     9.5312  13.9015  14.7452  15.9585

          k =-0.2144 0.7503-0.0774 (  2220 PWs)   bands (ev):

   -37.9348 -37.8686 -37.7330 -37.5619  -2.0790   3.3751   4.1581   6.3224
    12.1509  13.9613  14.5302  15.4713

          k =-0.3573 0.7503 0.2322 (  2213 PWs)   bands (ev):

   -37.9450 -37.8552 -37.7025 -37.5796  -1.9145   3.4361   4.5727   7.0187
    10.4292  12.8114  14.0024  14.9618

          k =-0.6431 0.0000-0.7741 (  2222 PWs)   bands (ev):

   -37.8294 -37.7638 -37.7167 -37.6631   0.2467   4.9446   5.2008   5.4607
     7.6800  11.3866  12.8261  14.8618

          k =-0.7860 0.0000-0.4645 (  2216 PWs)   bands (ev):

   -37.8719 -37.8218 -37.7536 -37.5913  -1.1880   4.1497   4.2212   6.3603
     8.5463  14.3103  15.0568  16.1235

          k =-0.9289 0.0000-0.1548 (  2243 PWs)   bands (ev):

   -37.8739 -37.8636 -37.8053 -37.5521  -1.9527   3.6592   3.6699   5.6149
    12.5497  15.7422  16.1395  16.7848

          k = 0.2501-0.1429-0.8515 (  2226 PWs)   bands (ev):

   -37.8493 -37.7308 -37.6924 -37.6889   0.4558   4.7878   5.6808   6.6314
     8.3229  10.6773  11.1188  11.4213

          k = 0.2501-0.2858-1.1612 (  2233 PWs)   bands (ev):

   -37.7611 -37.7455 -37.7293 -37.7107   1.6280   3.2559   5.5155   6.1101
     8.2134  11.1483  11.5173  13.6816

          k = 0.2501-0.4287-1.4708 (  2224 PWs)   bands (ev):

   -37.8588 -37.7862 -37.6942 -37.6492  -0.2503   4.3741   5.9720   6.0680
     8.0490  11.2737  12.7223  13.6301

          k = 0.2501 0.4287 0.3871 (  2220 PWs)   bands (ev):

   -37.9626 -37.8090 -37.6707 -37.6139  -1.5965   3.8190   5.3086   8.3253
     8.6800  11.1011  12.9899  13.1596

          k = 0.2501 0.2858 0.0774 (  2216 PWs)   bands (ev):

   -38.0295 -37.7995 -37.6547 -37.6143  -2.1834   3.7737   5.0327   7.6662
     8.9478  12.5391  13.0898  15.4097

          k = 0.2501 0.1429-0.2322 (  2217 PWs)   bands (ev):

   -38.0303 -37.7667 -37.6609 -37.6253  -2.0194   4.2611   5.1846   7.3536
     9.0829  11.9190  12.7163  14.7290

          k =-0.5002-0.1429 0.7741 (  2236 PWs)   bands (ev):

   -37.8504 -37.7584 -37.6998 -37.6665   0.1417   5.0191   5.1890   5.9503
     8.6778  10.5201  11.7798  13.5286

          k =-0.5002-0.2858 0.4645 (  2232 PWs)   bands (ev):

   -37.9303 -37.8173 -37.6767 -37.6169  -1.3187   3.8028   5.5297   7.6277
     8.9495  11.3595  12.1438  13.3245

          k =-0.5002-0.4287 0.1548 (  2218 PWs)   bands (ev):

   -37.9712 -37.8654 -37.6564 -37.5994  -2.0699   3.2317   5.1006   7.9974
     9.1185  12.4425  13.4436  15.5049

          k =-0.2501 0.1072-0.3096 (  2215 PWs)   bands (ev):

   -38.0187 -37.7585 -37.6651 -37.6283  -1.8638   4.5146   5.1401   7.7697
     8.6861  11.3182  13.0758  13.9177

          k =-0.2501-0.0357-0.6193 (  2231 PWs)   bands (ev):

   -37.9363 -37.7367 -37.6792 -37.6540  -0.7943   5.4208   5.6205   7.1538
     8.9087   9.8257  11.2026  12.4651

          k =-0.2501-0.1786-0.9289 (  2224 PWs)   bands (ev):

   -37.8192 -37.7294 -37.7054 -37.6977   0.9393   4.1271   5.8373   6.3473
     8.5895  10.3719  10.9260  12.2134

          k =-0.2501 0.6788 0.9289 (  2233 PWs)   bands (ev):

   -37.7837 -37.7528 -37.7132 -37.7029   1.1808   3.8002   5.2543   6.0324
     8.2615  11.1031  11.8725  14.1898

          k =-0.2501 0.5359 0.6193 (  2221 PWs)   bands (ev):

   -37.8861 -37.7942 -37.6886 -37.6357  -0.6564   4.2179   5.6884   6.9291
     8.2029  11.5528  12.2833  12.7973

          k =-0.2501 0.3930 0.3096 (  2220 PWs)   bands (ev):

   -37.9843 -37.8099 -37.6653 -37.6116  -1.8148   3.7410   5.2977   7.5385
    10.1368  10.9987  12.1936  14.2306

          k =-0.7503 0.1072 0.7741 (  2220 PWs)   bands (ev):

   -37.8117 -37.7742 -37.7244 -37.6623   0.3089   4.7774   5.1823   5.4279
     7.2423  11.9730  13.5783  14.7983

          k =-0.7503-0.0357 0.4645 (  2218 PWs)   bands (ev):

   -37.8810 -37.8194 -37.7457 -37.5928  -1.2022   4.1185   4.3061   6.4989
     8.5706  13.9191  14.7402  15.6522

          k =-0.7503-0.1786 0.1548 (  2219 PWs)   bands (ev):

   -37.9274 -37.8628 -37.7390 -37.5630  -2.0000   3.4474   4.1385   6.2649
    12.1511  13.3730  14.6263  15.7683

          k =-0.7503 0.6788 2.0127 (  2217 PWs)   bands (ev):

   -37.9461 -37.8637 -37.7102 -37.5720  -2.0267   3.3699   4.4118   6.7776
    10.9653  13.4516  14.1463  15.5090

          k =-0.7503 0.5359 1.7030 (  2226 PWs)   bands (ev):

   -37.9259 -37.8167 -37.6856 -37.6122  -1.3063   3.8328   5.3091   7.9165
     8.4066  11.3900  12.9866  13.5188

          k =-0.7503 0.3930 1.3934 (  2232 PWs)   bands (ev):

   -37.8585 -37.7582 -37.6861 -37.6720   0.0902   4.7900   5.4082   6.6150
     8.4322  11.0548  11.8335  11.9500

          k =-0.5002 0.2501 0.5419 (  2225 PWs)   bands (ev):

   -37.9130 -37.8013 -37.6825 -37.6259  -1.0168   4.0314   5.6307   7.6026
     8.2804  11.0285  12.5131  13.2965

          k =-0.5002 0.1072 0.2322 (  2211 PWs)   bands (ev):

   -37.9836 -37.8130 -37.6971 -37.5883  -1.9503   3.8528   4.4236   7.4316
     9.9309  12.3268  13.5766  14.7832

          k =-0.5002-0.0357-0.0774 (  2205 PWs)   bands (ev):

   -37.9992 -37.8133 -37.7034 -37.5804  -2.1389   3.8307   4.2244   7.0201
    10.7522  12.5327  14.0385  15.1508

          k =-0.5002-0.1786-0.3871 (  2222 PWs)   bands (ev):

   -37.9537 -37.8101 -37.6887 -37.6038  -1.5749   3.8556   5.0383   7.4089
     9.7898  11.4158  12.3115  14.3103

          k =-0.5002 0.6788 1.4708 (  2223 PWs)   bands (ev):

   -37.8657 -37.7861 -37.6828 -37.6538  -0.2840   4.3543   5.8829   6.4430
     8.5702  11.2780  11.6977  12.6365

          k =-0.5002 0.5359 1.1612 (  2242 PWs)   bands (ev):

   -37.7703 -37.7473 -37.7273 -37.7032   1.5395   3.3456   5.3505   5.9864
    10.0034  11.0845  11.6660  12.3093

          k =-0.5002 0.3930 0.8515 (  2237 PWs)   bands (ev):

   -37.8171 -37.7667 -37.6917 -37.6871   0.6039   4.5641   4.7893   6.5178
     8.7921  11.6376  11.8201  12.7262

          k = 0.5002-0.6431-0.3096 (  2218 PWs)   bands (ev):

   -37.9559 -37.8450 -37.6653 -37.6047  -1.7869   3.4487   5.2453   8.1991
     8.8777  11.9559  12.7311  14.0447

          k = 0.5002-0.7860-0.6193 (  2223 PWs)   bands (ev):

   -37.8935 -37.7862 -37.6882 -37.6370  -0.6713   4.2873   5.7755   6.8835
     8.2859  10.9527  12.3766  13.4657

          k = 0.5002-0.9289-0.9289 (  2230 PWs)   bands (ev):

   -37.8018 -37.7390 -37.7086 -37.7029   1.0796   3.9007   5.4795   6.3679
     7.9906  10.5616  11.9613  13.2393

          k = 0.7503-0.6431-0.8515 (  2224 PWs)   bands (ev):

   -37.8358 -37.7456 -37.6939 -37.6859   0.5290   4.6688   5.2173   6.4180
     9.1947  10.1599  11.2899  12.5532

          k = 0.7503-0.7860-1.1612 (  2233 PWs)   bands (ev):

   -37.7588 -37.7431 -37.7318 -37.7129   1.6510   3.2409   5.6169   6.0135
     8.0615  10.9462  11.6369  13.5959

          k = 0.7503-0.9289-1.4708 (  2220 PWs)   bands (ev):

   -37.8302 -37.7850 -37.7308 -37.6415  -0.1270   4.7043   4.9670   5.9500
     7.0634  12.7686  13.4196  15.4812

          k = 0.7503-0.0715 0.3871 (  2218 PWs)   bands (ev):

   -37.8951 -37.8317 -37.7471 -37.5815  -1.4727   3.9114   4.2013   6.3994
     9.4984  13.8295  14.7894  16.2558

          k = 0.7503-0.2144 0.0774 (  2220 PWs)   bands (ev):

   -37.9348 -37.8685 -37.7331 -37.5619  -2.0790   3.3840   4.1381   6.3474
    11.9810  14.0614  14.7670  15.6756

          k = 0.7503-0.3573-0.2322 (  2213 PWs)   bands (ev):

   -37.9452 -37.8550 -37.7026 -37.5795  -1.9145   3.4181   4.6364   6.8733
    10.9142  12.5110  13.3741  15.7054

     the Fermi energy is     7.7777 ev

!    total energy              =     -65.89139737 Ry
     estimated scf accuracy    <          1.9E-11 Ry
     smearing contrib. (-TS)   =       0.00019694 Ry
     internal energy E=F+TS    =     -65.89159431 Ry

     The total energy is F=E-TS. E is the sum of the following terms:
     one-electron contribution =     -21.13803229 Ry
     hartree contribution      =      11.38129325 Ry
     xc contribution           =     -17.34013339 Ry
     ewald contribution        =     -38.79472188 Ry

     convergence has been achieved in   7 iterations

     Forces acting on atoms (cartesian axes, Ry/au):

     atom    1 type  1   force =    -0.00009192    0.00035760    0.00000000
     atom    2 type  1   force =     0.00009192   -0.00035760    0.00000000
     atom    3 type  1   force =    -0.00035760   -0.00009192    0.00000000
     atom    4 type  1   force =     0.00035760    0.00009192    0.00000000
     atom    5 type  2   force =     0.00000000    0.00000000    0.00000000
     The non-local contrib.  to forces
     atom    1 type  1   force =     0.01370779   -0.00868393   -0.00000000
     atom    2 type  1   force =    -0.01370779    0.00868393    0.00000000
     atom    3 type  1   force =     0.00868393    0.01370779   -0.00000000
     atom    4 type  1   force =    -0.00868393   -0.01370779   -0.00000000
     atom    5 type  2   force =     0.00000000    0.00000000    0.00000000
     The ionic contribution  to forces
     atom    1 type  1   force =    -0.09879588    0.19207265   -0.00000000
     atom    2 type  1   force =     0.09879588   -0.19207265   -0.00000000
     atom    3 type  1   force =    -0.19207265   -0.09879588   -0.00000000
     atom    4 type  1   force =     0.19207265    0.09879588    0.00000000
     atom    5 type  2   force =    -0.00000000   -0.00000000    0.00000000
     The local contribution  to forces
     atom    1 type  1   force =     0.08499692   -0.18303158   -0.00000000
     atom    2 type  1   force =    -0.08499692    0.18303158    0.00000000
     atom    3 type  1   force =     0.18303158    0.08499692   -0.00000000
     atom    4 type  1   force =    -0.18303158   -0.08499692   -0.00000000
     atom    5 type  2   force =     0.00000000    0.00000000   -0.00000000
     The core correction contribution to forces
     atom    1 type  1   force =     0.00000000    0.00000000    0.00000000
     atom    2 type  1   force =     0.00000000    0.00000000    0.00000000
     atom    3 type  1   force =     0.00000000    0.00000000    0.00000000
     atom    4 type  1   force =     0.00000000    0.00000000    0.00000000
     atom    5 type  2   force =    -0.00000000    0.00000000    0.00000000
     The Hubbard contrib.    to forces
     atom    1 type  1   force =     0.00000000    0.00000000    0.00000000
     atom    2 type  1   force =     0.00000000    0.00000000    0.00000000
     atom    3 type  1   force =     0.00000000    0.00000000    0.00000000
     atom    4 type  1   force =     0.00000000    0.00000000    0.00000000
     atom    5 type  2   force =     0.00000000    0.00000000    0.00000000
     The SCF correction term to forces
     atom    1 type  1   force =    -0.00000074    0.00000046    0.00000000
     atom    2 type  1   force =     0.00000074   -0.00000046   -0.00000000
     atom    3 type  1   force =    -0.00000046   -0.00000074   -0.00000000
     atom    4 type  1   force =     0.00000046    0.00000074   -0.00000000
     atom    5 type  2   force =     0.00000000    0.00000000   -0.00000000

     Total force =     0.000738     Total SCF correction =     0.000002


     Computing stress (Cartesian axis) and pressure

          total   stress  (Ry/bohr**3)                   (kbar)     P=      497.66
   0.00339602   0.00000000  -0.00000000          499.57        0.00       -0.00
  -0.00000000   0.00339602  -0.00000000           -0.00      499.57       -0.00
   0.00000000  -0.00000000   0.00335710            0.00       -0.00      493.85


     Writing all to output data dir ./output/LiSi.save/

     init_run     :      1.07s CPU      1.38s WALL (       2 calls)
     electrons    :     65.96s CPU     71.51s WALL (      12 calls)
     update_pot   :      2.00s CPU      2.04s WALL (      10 calls)
     forces       :      1.94s CPU      2.02s WALL (      12 calls)
     stress       :      8.91s CPU      9.22s WALL (      12 calls)

     Called by init_run:
     wfcinit      :      0.49s CPU      0.51s WALL (       2 calls)
     potinit      :      0.20s CPU      0.39s WALL (       2 calls)
     hinit0       :      0.36s CPU      0.46s WALL (       2 calls)

     Called by electrons:
     c_bands      :     57.09s CPU     61.86s WALL (      80 calls)
     sum_band     :      8.25s CPU      8.59s WALL (      80 calls)
     v_of_rho     :      0.61s CPU      1.07s WALL (      89 calls)
     mix_rho      :      0.07s CPU      0.14s WALL (      80 calls)

     Called by c_bands:
     init_us_2    :      1.46s CPU      1.59s WALL (   17112 calls)
     init_us_2:cp :      1.44s CPU      1.58s WALL (   17112 calls)
     cegterg      :     54.14s CPU     56.37s WALL (    7360 calls)

     Called by *egterg:
     cdiaghg      :      4.55s CPU      4.73s WALL (   27690 calls)
     h_psi        :     45.36s CPU     47.25s WALL (   29070 calls)
     g_psi        :      0.18s CPU      0.18s WALL (   21526 calls)

     Called by h_psi:
     h_psi:calbec :      2.48s CPU      2.58s WALL (   29070 calls)
     vloc_psi     :     41.01s CPU     42.73s WALL (   29070 calls)
     add_vuspsi   :      1.68s CPU      1.74s WALL (   29070 calls)

     General routines
     calbec       :      3.08s CPU      3.22s WALL (   34590 calls)
     fft          :      0.79s CPU      1.51s WALL (    1191 calls)
     ffts         :      0.05s CPU      0.09s WALL (      80 calls)
     fftw         :     42.72s CPU     44.43s WALL (  588824 calls)

     Parallel routines

     PWSCF        :   1m20.31s CPU   1m27.13s WALL


   This run was terminated on:   0:42:37  22Jan2025            

=------------------------------------------------------------------------------=
   JOB DONE.
=------------------------------------------------------------------------------=
