
     Program PWSCF v.7.2 starts on 22Jan2025 at 13:58: 2 

     This program is part of the open-source Quantum ESPRESSO suite
     for quantum simulation of materials; please cite
         "P. Giannozzi et al., J. Phys.:Condens. Matter 21 395502 (2009);
         "P. Giannozzi et al., J. Phys.:Condens. Matter 29 465901 (2017);
         "P. Giannozzi et al., J. Chem. Phys. 152 154105 (2020);
          URL http://www.quantum-espresso.org", 
     in publications or presentations arising from this work. More details at
     http://www.quantum-espresso.org/quote

     Parallel version (MPI & OpenMP), running on       8 processor cores
     Number of MPI processes:                 8
     Threads/MPI process:                     1

     MPI processes distributed on     1 nodes
     479922 MiB available memory on the printing compute node when the environment starts

     Waiting for input...
     Reading input from standard input

     Current dimensions of program PWSCF are:
     Max number of different atomic species (ntypx) = 10
     Max number of k-points (npk) =  40000
     Max angular momentum in pseudopotentials (lmaxx) =  4

     R & G space division:  proc/nbgrp/npool/nimage =       8
     Subspace diagonalization in iterative solution of the eigenvalue problem:
     a serial algorithm will be used


     Parallelization info
     --------------------
     sticks:   dense  smooth     PW     G-vecs:    dense   smooth      PW
     Min         155     155     52                 2999     2999     583
     Max         156     156     53                 3001     3001     585
     Sum        1243    1243    423                23999    23999    4677

     Using Slab Decomposition



     bravais-lattice index     =            7
     lattice parameter (alat)  =       6.0439  a.u.
     unit-cell volume          =     383.1565 (a.u.)^3
     number of atoms/cell      =            5
     number of atomic types    =            2
     number of electrons       =        19.00
     number of Kohn-Sham states=           14
     kinetic-energy cutoff     =      60.0000  Ry
     charge density cutoff     =     240.0000  Ry
     scf convergence threshold =      1.0E-08
     mixing beta               =       0.8000
     number of iterations used =            8  plain     mixing
     energy convergence thresh.=      5.0E-03
     force convergence thresh. =      1.0E-02
     press convergence thresh. =      2.0E+00
     Exchange-correlation= PBE
                           (   1   4   3   4   0   0   0)
     nstep                     =           50


     celldm(1)=   6.043872  celldm(2)=   0.000000  celldm(3)=   3.471046
     celldm(4)=   0.000000  celldm(5)=   0.000000  celldm(6)=   0.000000

     crystal axes: (cart. coord. in units of alat)
               a(1) = (   0.500000  -0.500000   1.735523 )  
               a(2) = (   0.500000   0.500000   1.735523 )  
               a(3) = (  -0.500000  -0.500000   1.735523 )  

     reciprocal axes: (cart. coord. in units 2 pi/alat)
               b(1) = (  1.000000 -1.000000  0.000000 )  
               b(2) = (  0.000000  1.000000  0.288098 )  
               b(3) = ( -1.000000  0.000000  0.288098 )  


     PseudoPot. # 1 for Li read from file:
     ../pseudo/Li_ONCV_PBE_sr.upf
     MD5 check sum: 50ff420e78310ffa21704f3361e624a4
     Pseudo is Norm-conserving, Zval =  3.0
     Generated using ONCVPSP code by D. R. Hamann
     Using radial grid of 1944 points,  4 beta functions with: 
                l(1) =   0
                l(2) =   0
                l(3) =   1
                l(4) =   1

     PseudoPot. # 2 for Si read from file:
     ../pseudo/Si_ONCV_PBE_sr.upf
     MD5 check sum: e543d271109d17c80368dfa7c482276d
     Pseudo is Norm-conserving + core correction, Zval =  4.0
     Generated using ONCVPSP code by D. R. Hamann
     Using radial grid of 1510 points,  6 beta functions with: 
                l(1) =   0
                l(2) =   0
                l(3) =   1
                l(4) =   1
                l(5) =   2
                l(6) =   2

     atomic species   valence    mass     pseudopotential
        Li             3.00     6.94100     Li( 1.00)
        Si             4.00    28.08550     Si( 1.00)

     16 Sym. Ops., with inversion, found



   Cartesian axes

     site n.     atom                  positions (alat units)
         1           Li  tau(   1) = (   0.0000000   0.0000000   0.0000000  )
         2           Si  tau(   2) = (   0.0000000   0.0000000   1.3296727  )
         3           Si  tau(   3) = (   0.0000000   0.0000000   2.1413734  )
         4           Si  tau(   4) = (   0.0000000   0.5000000   0.8677615  )
         5           Si  tau(   5) = (   0.0000000   0.5000000   2.6032846  )

     number of k points=    65  Marzari-Vanderbilt smearing, width (Ry)=  0.0200
                       cart. coord. in units 2pi/alat
        k(    1) = (   0.0000000   0.0000000   0.0000000), wk =   0.0136054
        k(    2) = (  -0.3333333   0.0000000   0.0960325), wk =   0.0272109
        k(    3) = (   0.0000000   0.1428571   0.0411568), wk =   0.0544218
        k(    4) = (  -0.3333333   0.1428571   0.1371893), wk =   0.0272109
        k(    5) = (   0.3333333   0.1428571  -0.0548757), wk =   0.0272109
        k(    6) = (   0.0000000   0.2857143   0.0823136), wk =   0.0544218
        k(    7) = (  -0.3333333   0.2857143   0.1783461), wk =   0.0272109
        k(    8) = (   0.3333333   0.2857143  -0.0137189), wk =   0.0272109
        k(    9) = (   0.0000000   0.4285714   0.1234704), wk =   0.0544218
        k(   10) = (  -0.3333333   0.4285714   0.2195029), wk =   0.0272109
        k(   11) = (   0.3333333   0.4285714   0.0274379), wk =   0.0272109
        k(   12) = (   0.1428571  -0.1428571   0.0000000), wk =   0.0272109
        k(   13) = (  -0.1904762  -0.1428571   0.0960325), wk =   0.0272109
        k(   14) = (   0.4761905  -0.1428571  -0.0960325), wk =   0.0272109
        k(   15) = (  -0.1904762   0.0000000   0.1371893), wk =   0.0272109
        k(   16) = (   0.4761905   0.0000000  -0.0548757), wk =   0.0272109
        k(   17) = (   0.1428571   0.1428571   0.0823136), wk =   0.0272109
        k(   18) = (  -0.1904762   0.1428571   0.1783461), wk =   0.0272109
        k(   19) = (   0.4761905   0.1428571  -0.0137189), wk =   0.0272109
        k(   20) = (   0.1428571   0.2857143   0.1234704), wk =   0.0544218
        k(   21) = (  -0.1904762   0.2857143   0.2195029), wk =   0.0272109
        k(   22) = (   0.4761905   0.2857143   0.0274379), wk =   0.0272109
        k(   23) = (   0.1428571  -0.5714286  -0.1234704), wk =   0.0544218
        k(   24) = (  -0.1904762  -0.5714286  -0.0274379), wk =   0.0272109
        k(   25) = (   0.4761905  -0.5714286  -0.2195029), wk =   0.0272109
        k(   26) = (   0.1428571  -0.4285714  -0.0823136), wk =   0.0544218
        k(   27) = (  -0.1904762  -0.4285714   0.0137189), wk =   0.0272109
        k(   28) = (   0.4761905  -0.4285714  -0.1783461), wk =   0.0272109
        k(   29) = (   0.1428571  -0.2857143  -0.0411568), wk =   0.0544218
        k(   30) = (  -0.1904762  -0.2857143   0.0548757), wk =   0.0272109
        k(   31) = (   0.4761905  -0.2857143  -0.1371893), wk =   0.0272109
        k(   32) = (   0.2857143  -0.2857143   0.0000000), wk =   0.0272109
        k(   33) = (  -0.0476190  -0.2857143   0.0960325), wk =   0.0272109
        k(   34) = (   0.6190476  -0.2857143  -0.0960325), wk =   0.0272109
        k(   35) = (  -0.0476190  -0.1428571   0.1371893), wk =   0.0272109
        k(   36) = (   0.6190476  -0.1428571  -0.0548757), wk =   0.0272109
        k(   37) = (  -0.0476190   0.0000000   0.1783461), wk =   0.0272109
        k(   38) = (   0.6190476   0.0000000  -0.0137189), wk =   0.0272109
        k(   39) = (  -0.0476190   0.1428571   0.2195029), wk =   0.0272109
        k(   40) = (   0.6190476   0.1428571   0.0274379), wk =   0.0272109
        k(   41) = (   0.2857143  -0.7142857  -0.1234704), wk =   0.0272109
        k(   42) = (  -0.0476190  -0.7142857  -0.0274379), wk =   0.0272109
        k(   43) = (   0.6190476  -0.7142857  -0.2195029), wk =   0.0272109
        k(   44) = (   0.2857143  -0.5714286  -0.0823136), wk =   0.0544218
        k(   45) = (  -0.0476190  -0.5714286   0.0137189), wk =   0.0272109
        k(   46) = (   0.6190476  -0.5714286  -0.1783461), wk =   0.0272109
        k(   47) = (   0.2857143  -0.4285714  -0.0411568), wk =   0.0544218
        k(   48) = (  -0.0476190  -0.4285714   0.0548757), wk =   0.0272109
        k(   49) = (   0.6190476  -0.4285714  -0.1371893), wk =   0.0272109
        k(   50) = (   0.4285714  -0.4285714   0.0000000), wk =   0.0272109
        k(   51) = (   0.0952381  -0.4285714   0.0960325), wk =   0.0272109
        k(   52) = (   0.7619048  -0.4285714  -0.0960325), wk =   0.0272109
        k(   53) = (   0.0952381  -0.2857143   0.1371893), wk =   0.0272109
        k(   54) = (   0.7619048  -0.2857143  -0.0548757), wk =   0.0272109
        k(   55) = (   0.0952381  -0.1428571   0.1783461), wk =   0.0272109
        k(   56) = (   0.7619048  -0.1428571  -0.0137189), wk =   0.0272109
        k(   57) = (   0.0952381   0.0000000   0.2195029), wk =   0.0272109
        k(   58) = (   0.7619048   0.0000000   0.0274379), wk =   0.0272109
        k(   59) = (   0.0952381  -0.8571429  -0.0274379), wk =   0.0272109
        k(   60) = (   0.7619048  -0.8571429  -0.2195029), wk =   0.0272109
        k(   61) = (   0.0952381  -0.7142857   0.0137189), wk =   0.0272109
        k(   62) = (   0.7619048  -0.7142857  -0.1783461), wk =   0.0272109
        k(   63) = (   0.4285714  -0.5714286  -0.0411568), wk =   0.0272109
        k(   64) = (   0.0952381  -0.5714286   0.0548757), wk =   0.0272109
        k(   65) = (   0.7619048  -0.5714286  -0.1371893), wk =   0.0272109

     Dense  grid:    23999 G-vectors     FFT dimensions: (  60,  60,  60)

     Estimated max dynamical RAM per process >      19.39 MB

     Estimated total dynamical RAM >     155.10 MB

     Initial potential from superposition of free atoms

     starting charge      18.9930, renormalised to      19.0000
     Starting wfcs are   18 randomized atomic wfcs

     total cpu time spent up to now is        2.2 secs

     Self-consistent Calculation

     iteration #  1     ecut=    60.00 Ry     beta= 0.80
     Davidson diagonalization with overlap
     ethr =  1.00E-02,  avg # of iterations =  5.6

     Threshold (ethr) on eigenvalues was too large:
     Diagonalizing with lowered threshold

     Davidson diagonalization with overlap
     ethr =  8.97E-04,  avg # of iterations =  2.8

     total cpu time spent up to now is        6.0 secs

     total energy              =     -47.74131339 Ry
     estimated scf accuracy    <       0.19078211 Ry

     iteration #  2     ecut=    60.00 Ry     beta= 0.80
     Davidson diagonalization with overlap
     ethr =  1.00E-03,  avg # of iterations =  3.5

     total cpu time spent up to now is        7.8 secs

     total energy              =     -47.68402767 Ry
     estimated scf accuracy    <       0.83652427 Ry

     iteration #  3     ecut=    60.00 Ry     beta= 0.80
     Davidson diagonalization with overlap
     ethr =  1.00E-03,  avg # of iterations =  2.1

     total cpu time spent up to now is        9.5 secs

     total energy              =     -47.83436569 Ry
     estimated scf accuracy    <       0.00460303 Ry

     iteration #  4     ecut=    60.00 Ry     beta= 0.80
     Davidson diagonalization with overlap
     c_bands:  1 eigenvalues not converged
     ethr =  2.42E-05,  avg # of iterations =  6.0

     total cpu time spent up to now is       11.5 secs

     total energy              =     -47.83560776 Ry
     estimated scf accuracy    <       0.00032615 Ry

     iteration #  5     ecut=    60.00 Ry     beta= 0.80
     Davidson diagonalization with overlap
     ethr =  1.72E-06,  avg # of iterations =  4.8

     total cpu time spent up to now is       13.3 secs

     total energy              =     -47.83567173 Ry
     estimated scf accuracy    <       0.00000379 Ry

     iteration #  6     ecut=    60.00 Ry     beta= 0.80
     Davidson diagonalization with overlap
     ethr =  2.00E-08,  avg # of iterations =  3.8

     total cpu time spent up to now is       15.1 secs

     total energy              =     -47.83567438 Ry
     estimated scf accuracy    <       0.00000008 Ry

     iteration #  7     ecut=    60.00 Ry     beta= 0.80
     Davidson diagonalization with overlap
     ethr =  4.33E-10,  avg # of iterations =  3.2

     total cpu time spent up to now is       16.7 secs

     End of self-consistent calculation

          k = 0.0000 0.0000 0.0000 (  3049 PWs)   bands (ev):

   -34.3409  -5.0932   0.5693   3.3756   7.0577   7.0577   9.6964  10.9358
    11.6628  11.6628  13.0761  14.4716  14.8663  18.4636

          k =-0.3333 0.0000 0.0960 (  3003 PWs)   bands (ev):

   -34.3362  -3.5732   0.4105   2.5232   4.6800   6.6563   8.3475  10.6572
    11.6542  12.7035  13.7368  14.6216  15.6957  15.9942

          k = 0.0000 0.1429 0.0412 (  3012 PWs)   bands (ev):

   -34.3391  -4.8114   0.7032   3.6802   5.0043   7.2959   9.4905  10.3993
    11.8452  12.7273  13.8873  14.7354  15.9925  16.4272

          k =-0.3333 0.1429 0.1372 (  3009 PWs)   bands (ev):

   -34.3354  -3.2741   0.5526   2.6003   5.3212   6.3836   6.9334   9.7447
    10.8986  12.9080  13.2243  14.4177  15.5783  17.1446

          k = 0.3333 0.1429-0.0549 (  3000 PWs)   bands (ev):

   -34.3352  -3.3167   0.7417   2.9186   4.5282   6.3640   6.6145   9.6471
    12.1812  12.7416  13.9447  14.8556  15.9081  16.5149

          k = 0.0000 0.2857 0.0823 (  3009 PWs)   bands (ev):

   -34.3370  -3.9728   0.7540   2.7403   4.4866   7.1648   8.0074  10.7771
    11.9304  12.8843  14.0208  14.6987  15.6205  16.3442

          k =-0.3333 0.2857 0.1783 (  3008 PWs)   bands (ev):

   -34.3335  -2.4291   1.0785   2.9445   3.9158   6.5915   7.0076   7.5381
    10.6323  11.1804  11.9774  13.3304  15.3866  17.3596

          k = 0.3333 0.2857-0.0137 (  3005 PWs)   bands (ev):

   -34.3334  -2.5104   1.4159   3.1854   4.4318   5.0069   6.5214   7.0540
    10.7503  13.2298  13.7680  14.6454  15.0695  15.7492

          k = 0.0000 0.4286 0.1235 (  2988 PWs)   bands (ev):

   -34.3348  -2.6045  -0.7882   2.8454   4.3682   6.5697   9.1727   9.8843
    10.6964  12.8928  13.4724  15.1534  15.1769  15.7514

          k =-0.3333 0.4286 0.2195 (  2999 PWs)   bands (ev):

   -34.3317  -1.0695   0.5069   2.9626   4.3849   4.8909   6.6416   7.7327
     9.8431  10.9847  11.1424  12.6871  14.5451  16.9508

          k = 0.3333 0.4286 0.0274 (  2995 PWs)   bands (ev):

   -34.3316  -1.1851   0.6852   3.2352   4.5590   5.2210   5.5831   6.6764
    10.2967  11.3609  12.3831  13.7708  14.4315  16.0461

          k = 0.1429-0.1429 0.0000 (  3021 PWs)   bands (ev):

   -34.3384  -4.5396   0.9797   3.7488   5.1955   5.3290   9.1701  10.2436
    12.3627  13.3704  14.6890  15.1693  15.2562  16.2894

          k =-0.1905-0.1429 0.0960 (  3015 PWs)   bands (ev):

   -34.3376  -4.3000   0.8012   4.1899   4.6501   5.4635   8.7518  10.1345
    11.9238  13.5397  14.0164  14.3305  15.4653  16.1891

          k = 0.4762-0.1429-0.0960 (  3000 PWs)   bands (ev):

   -34.3341  -1.8031  -1.1188   3.4315   4.1669   6.5839   7.7202   8.3599
    10.2827  13.3458  13.5437  14.5608  15.0167  16.2859

          k =-0.1905 0.0000 0.1372 (  3020 PWs)   bands (ev):

   -34.3386  -4.5550   0.3760   3.9920   4.9335   7.4476   8.8865  10.2011
    11.7091  12.2008  13.8927  14.8720  15.3662  15.7041

          k = 0.4762 0.0000-0.0549 (  2989 PWs)   bands (ev):

   -34.3346  -2.0947  -1.3633   3.2328   3.9696   6.3683   9.6869  10.1272
    10.3126  12.2927  13.7746  14.5329  15.3475  16.5030

          k = 0.1429 0.1429 0.0823 (  3018 PWs)   bands (ev):

   -34.3383  -4.5210   0.7337   4.1786   5.2254   5.3028   9.3084  10.3114
    11.9044  13.2842  13.7481  14.7365  15.7894  16.3863

          k =-0.1905 0.1429 0.1783 (  3020 PWs)   bands (ev):

   -34.3377  -4.2543   0.3949   4.2247   5.2418   5.9014   9.1030  10.0117
    10.6642  12.9820  13.9240  14.1148  14.9149  15.3298

          k = 0.4762 0.1429-0.0137 (  2998 PWs)   bands (ev):

   -34.3341  -1.8332  -1.0820   3.4863   4.1925   6.3005   7.7015   8.3347
    11.3907  11.9947  13.2959  14.8094  15.8813  16.2924

          k = 0.1429 0.2857 0.1235 (  3009 PWs)   bands (ev):

   -34.3361  -3.6755   0.8213   2.8885   5.1361   6.0416   7.3990  10.0012
    11.3889  13.0240  13.4207  14.2530  15.8323  17.3017

          k =-0.1905 0.2857 0.2195 (  3013 PWs)   bands (ev):

   -34.3356  -3.4064   0.6476   2.9406   4.9230   6.8852   7.8262   9.2560
     9.9949  12.0324  12.5298  14.0855  15.4348  17.0033

          k = 0.4762 0.2857 0.0274 (  3001 PWs)   bands (ev):

   -34.3322  -1.0276  -0.2890   4.0407   4.2258   5.3831   5.7975   7.0985
    10.9534  11.2567  12.0604  13.1445  14.8837  16.8687

          k = 0.1429-0.5714-0.1235 (  3010 PWs)   bands (ev):

   -34.3345  -2.3023  -0.5692   2.8901   4.8431   6.6646   7.4196   8.8288
    10.0338  13.1953  13.3294  14.7017  14.8346  16.5805

          k =-0.1905-0.5714-0.0274 (  3015 PWs)   bands (ev):

   -34.3341  -2.0385  -0.4439   2.8093   5.5072   5.9550   7.4971   7.9536
    10.4706  11.5094  12.9095  13.2699  15.9933  16.5966

          k = 0.4762-0.5714-0.2195 (  2995 PWs)   bands (ev):

   -34.3305   0.2628   0.9017   2.4822   2.8588   5.6826   6.1804   6.8101
     9.5073  10.2541  11.4501  12.7824  14.5676  15.8534

          k = 0.1429-0.4286-0.0823 (  2991 PWs)   bands (ev):

   -34.3341  -2.3572  -0.4805   3.2930   4.3176   6.3926   7.2280   8.8222
    10.8343  13.0506  13.6789  14.8023  15.2896  16.0863

          k =-0.1905-0.4286 0.0137 (  2991 PWs)   bands (ev):

   -34.3335  -2.1685  -0.2381   3.7928   4.1323   6.1684   6.3834   7.9732
    12.0654  12.1400  12.5878  14.5521  16.2162  16.5754

          k = 0.4762-0.4286-0.1783 (  3001 PWs)   bands (ev):

   -34.3307   0.3422   0.8108   2.3888   2.9573   5.4218   6.3836   7.0789
     9.2780  10.6162  11.1743  12.3388  14.5327  16.4872

          k = 0.1429-0.2857-0.0412 (  3005 PWs)   bands (ev):

   -34.3360  -3.7123   1.1054   3.0848   4.3451   6.0099   7.1618   9.8807
    12.6726  12.9268  14.1439  14.8742  16.0959  16.6434

          k =-0.1905-0.2857 0.0549 (  3010 PWs)   bands (ev):

   -34.3355  -3.4951   1.2345   3.2271   4.5736   5.1867   7.2280   8.9965
    12.2002  12.8661  14.5650  14.7915  16.0309  16.5551

          k = 0.4762-0.2857-0.1372 (  2999 PWs)   bands (ev):

   -34.3321  -0.9701  -0.3575   3.8291   4.3963   5.1747   5.9896   7.6078
    10.1094  11.1170  12.1588  14.0165  14.6329  15.9365

          k = 0.2857-0.2857 0.0000 (  3010 PWs)   bands (ev):

   -34.3342  -2.8999   1.5814   3.3541   4.2068   4.8002   7.0861   7.3242
    11.0451  13.8232  14.2327  14.8044  15.3013  15.7024

          k =-0.0476-0.2857 0.0960 (  3014 PWs)   bands (ev):

   -34.3370  -3.9356   0.7286   2.7341   4.6634   7.2177   7.6443  10.9604
    11.6091  12.8683  13.8683  14.4278  15.9914  16.6454

          k = 0.6190-0.2857-0.0960 (  3004 PWs)   bands (ev):

   -34.3328  -1.9727   0.7154   2.9239   4.2482   5.9840   6.9274   7.6304
    10.2488  11.1356  11.8626  12.9973  15.1330  17.1096

          k =-0.0476-0.1429 0.1372 (  3027 PWs)   bands (ev):

   -34.3393  -4.7397   0.2622   4.6089   5.1167   6.8990   9.7298  10.3354
    11.6128  11.9174  13.0953  15.0378  15.3840  16.0202

          k = 0.6190-0.1429-0.0549 (  3016 PWs)   bands (ev):

   -34.3350  -2.7671  -0.0719   2.4115   5.8826   6.4593   7.4950   9.1572
    10.1076  11.7109  13.3812  14.5104  14.8806  17.0167

          k =-0.0476 0.0000 0.1783 (  3039 PWs)   bands (ev):

   -34.3406  -4.9957  -0.1385   5.1668   6.6384   7.0242   9.2177  10.8376
    11.1127  11.7633  12.2435  13.9041  15.7766  15.9936

          k = 0.6190 0.0000-0.0137 (  3011 PWs)   bands (ev):

   -34.3357  -3.0310  -0.3580   2.1468   5.9413   6.9284   8.6786   9.4894
    11.1657  11.3255  12.6901  15.6783  15.6842  16.3765

          k =-0.0476 0.1429 0.2195 (  3026 PWs)   bands (ev):

   -34.3393  -4.6977  -0.0796   4.8681   6.0966   6.8894   8.9179  10.1615
    11.1990  12.1765  12.9304  14.3247  15.4548  15.5984

          k = 0.6190 0.1429 0.0274 (  3009 PWs)   bands (ev):

   -34.3349  -2.7584  -0.0920   2.3773   6.0589   6.3844   7.5773   9.0925
    10.1966  11.3819  13.4796  14.3766  14.8925  16.9579

          k = 0.2857-0.7143-0.1235 (  3001 PWs)   bands (ev):

   -34.3339  -2.8291   1.1517   3.2609   3.7198   6.4651   7.5108   7.6066
    10.9936  11.3900  12.2737  13.7551  15.7797  17.5054

          k =-0.0476-0.7143-0.0274 (  3021 PWs)   bands (ev):

   -34.3371  -3.8537   0.2048   2.5254   6.8598   7.5706   7.7325   8.8794
    11.3739  11.9754  12.6583  15.0159  15.8842  16.4893

          k = 0.6190-0.7143-0.2195 (  3003 PWs)   bands (ev):

   -34.3328  -1.9569   0.6791   2.8712   4.2213   6.0661   7.1035   7.7731
    10.0734  11.2388  11.5789  12.6486  15.0864  17.5596

          k = 0.2857-0.5714-0.0823 (  3000 PWs)   bands (ev):

   -34.3324  -1.4630   0.1660   3.1848   4.6126   5.3475   6.6041   7.7339
    10.0707  11.2772  11.7460  12.8695  14.9922  16.8676

          k =-0.0476-0.5714 0.0137 (  3005 PWs)   bands (ev):

   -34.3351  -2.4907  -0.8900   2.4402   5.2532   6.7312   8.8332   9.8056
    10.6315  11.3021  13.3565  15.5155  15.5878  15.7965

          k = 0.6190-0.5714-0.1783 (  2996 PWs)   bands (ev):

   -34.3311  -0.6584   0.9045   2.5299   4.2077   4.6788   6.5665   7.3951
     9.7142  10.5730  11.2402  12.7956  14.5239  16.4721

          k = 0.2857-0.4286-0.0412 (  3004 PWs)   bands (ev):

   -34.3325  -1.5653   0.3259   3.6913   4.5881   5.2275   5.8269   6.9274
    10.7681  11.6273  12.7203  13.7557  14.8649  16.3482

          k =-0.0476-0.4286 0.0549 (  2993 PWs)   bands (ev):

   -34.3349  -2.6118  -0.6959   3.2466   3.9553   6.2162   8.8296  10.3416
    10.8269  12.6726  14.3857  14.6226  14.6608  16.1489

          k = 0.6190-0.4286-0.1372 (  2996 PWs)   bands (ev):

   -34.3311  -0.6795   0.9362   2.5569   4.1750   4.7845   6.4141   7.2262
     9.8914  10.4245  11.5688  12.7997  14.6297  16.5042

          k = 0.4286-0.4286 0.0000 (  2986 PWs)   bands (ev):

   -34.3305  -0.2687   1.2322   2.2961   3.4316   6.0177   6.0308   6.1075
     9.9771  10.1743  11.7225  13.7709  14.7218  14.7692

          k = 0.0952-0.4286 0.0960 (  2997 PWs)   bands (ev):

   -34.3347  -2.5008  -0.6407   3.0921   4.2858   6.4491   8.0585   9.6441
    10.5129  13.4847  13.9493  14.3837  15.4035  15.9871

          k = 0.7619-0.4286-0.0960 (  3007 PWs)   bands (ev):

   -34.3332  -1.8008  -0.1328   3.1272   5.0731   5.5347   6.9455   7.7402
    10.1031  11.8088  12.4549  13.1885  15.5527  16.5089

          k = 0.0952-0.2857 0.1372 (  3018 PWs)   bands (ev):

   -34.3368  -3.8204   0.6388   2.7295   5.2399   6.8689   7.4051  10.6921
    11.0938  12.9478  13.5153  13.8483  16.3874  16.9666

          k = 0.7619-0.2857-0.0549 (  3015 PWs)   bands (ev):

   -34.3350  -3.1260   0.8056   3.1474   4.1281   7.2592   7.8766   8.5194
     9.8459  11.7751  11.9438  13.4023  16.2106  16.8390

          k = 0.0952-0.1429 0.1783 (  3022 PWs)   bands (ev):

   -34.3389  -4.6243   0.1383   4.8958   5.5274   6.1525   9.7590  10.0268
    11.3390  12.1453  13.0468  14.7054  15.2930  15.9829

          k = 0.7619-0.1429-0.0137 (  3021 PWs)   bands (ev):

   -34.3370  -3.9427   0.3065   3.4006   5.5028   7.3945   8.5306   8.7347
    10.6172  12.1059  13.7601  14.0334  14.3989  16.1559

          k = 0.0952 0.0000 0.2195 (  3029 PWs)   bands (ev):

   -34.3400  -4.8837  -0.2150   5.6161   6.1253   7.0897   8.7218  10.7135
    11.0790  11.8712  12.4813  14.5940  14.9173  15.6212

          k = 0.7619 0.0000 0.0274 (  3027 PWs)   bands (ev):

   -34.3381  -4.2223   0.0993   3.1582   6.8848   7.6457   8.3789   8.6358
    11.0652  12.5310  12.7707  15.6065  15.7300  15.9605

          k = 0.0952-0.8571-0.0274 (  3020 PWs)   bands (ev):

   -34.3388  -4.5927  -0.0916   4.9472   5.9726   6.9531   8.3052  10.2501
    11.5606  11.9670  12.9038  14.2136  14.9315  15.8443

          k = 0.7619-0.8571-0.2195 (  3011 PWs)   bands (ev):

   -34.3368  -3.9574   0.3983   3.4145   5.4904   6.6605   8.4997   9.4588
    10.5565  12.3870  13.6391  14.0578  14.7188  16.1717

          k = 0.0952-0.7143 0.0137 (  3013 PWs)   bands (ev):

   -34.3366  -3.7593   0.2721   2.6025   6.5467   7.4338   7.6735   8.8595
    11.2894  11.6108  13.2578  14.2622  15.2068  17.3073

          k = 0.7619-0.7143-0.1783 (  3005 PWs)   bands (ev):

   -34.3347  -3.1539   0.9570   3.1952   4.1554   6.4619   7.6899   8.3902
    10.7627  11.7865  12.3606  13.9371  16.1986  16.8323

          k = 0.4286-0.5714-0.0412 (  2998 PWs)   bands (ev):

   -34.3308  -0.1295   1.0334   2.1511   3.6150   4.8552   6.9518   7.3594
     9.2069  10.4411  10.9194  12.8931  14.0713  16.3812

          k = 0.0952-0.5714 0.0549 (  3005 PWs)   bands (ev):

   -34.3348  -2.4114  -0.7828   2.5640   5.1716   6.7768   8.1923   9.3770
    10.2350  11.8577  14.1410  14.5543  15.1851  16.2563

          k = 0.7619-0.5714-0.1372 (  3009 PWs)   bands (ev):

   -34.3333  -1.8404  -0.0716   3.3384   4.8476   5.5285   6.6859   7.5936
    10.3870  11.6019  13.0445  14.0359  15.0841  16.1033

     the Fermi energy is    11.9544 ev

!    total energy              =     -47.83567442 Ry
     estimated scf accuracy    <          1.1E-09 Ry
     smearing contrib. (-TS)   =      -0.00015113 Ry
     internal energy E=F+TS    =     -47.83552329 Ry

     The total energy is F=E-TS. E is the sum of the following terms:
     one-electron contribution =      10.64216321 Ry
     hartree contribution      =       4.85954811 Ry
     xc contribution           =     -16.93169450 Ry
     ewald contribution        =     -46.40554010 Ry

     convergence has been achieved in   7 iterations

     Forces acting on atoms (cartesian axes, Ry/au):

     atom    1 type  1   force =    -0.00000000   -0.00000000   -0.00000000
     atom    2 type  2   force =     0.00000000    0.00000000    0.24091169
     atom    3 type  2   force =     0.00000000    0.00000000   -0.24091169
     atom    4 type  2   force =    -0.00000000   -0.00000000    0.00000000
     atom    5 type  2   force =     0.00000000   -0.00000000   -0.00000000
     The non-local contrib.  to forces
     atom    1 type  1   force =    -0.00000000    0.00000000    0.00000000
     atom    2 type  2   force =     0.00000000    0.00000000    0.22652597
     atom    3 type  2   force =     0.00000000   -0.00000000   -0.22652597
     atom    4 type  2   force =    -0.00000000    0.00000000   -0.00000000
     atom    5 type  2   force =    -0.00000000    0.00000000    0.00000000
     The ionic contribution  to forces
     atom    1 type  1   force =    -0.00000000   -0.00000000   -0.00000000
     atom    2 type  2   force =    -0.00000000    0.00000000    2.63640390
     atom    3 type  2   force =     0.00000000   -0.00000000   -2.63640390
     atom    4 type  2   force =    -0.00000000   -0.00000000   -0.00000000
     atom    5 type  2   force =    -0.00000000   -0.00000000   -0.00000000
     The local contribution  to forces
     atom    1 type  1   force =     0.00000000   -0.00000000    0.00000000
     atom    2 type  2   force =     0.00000000   -0.00000000   -2.60013873
     atom    3 type  2   force =    -0.00000000    0.00000000    2.60013873
     atom    4 type  2   force =    -0.00000000    0.00000000    0.00000000
     atom    5 type  2   force =     0.00000000    0.00000000    0.00000000
     The core correction contribution to forces
     atom    1 type  1   force =     0.00000000    0.00000000    0.00000000
     atom    2 type  2   force =     0.00000000    0.00000000   -0.02189762
     atom    3 type  2   force =    -0.00000000   -0.00000000    0.02189762
     atom    4 type  2   force =    -0.00000000    0.00000000   -0.00000000
     atom    5 type  2   force =     0.00000000    0.00000000    0.00000000
     The Hubbard contrib.    to forces
     atom    1 type  1   force =     0.00000000    0.00000000    0.00000000
     atom    2 type  2   force =     0.00000000    0.00000000    0.00000000
     atom    3 type  2   force =     0.00000000    0.00000000    0.00000000
     atom    4 type  2   force =     0.00000000    0.00000000    0.00000000
     atom    5 type  2   force =     0.00000000    0.00000000    0.00000000
     The SCF correction term to forces
     atom    1 type  1   force =    -0.00000000    0.00000000    0.00000000
     atom    2 type  2   force =     0.00000000   -0.00000000    0.00001817
     atom    3 type  2   force =    -0.00000000   -0.00000000   -0.00001817
     atom    4 type  2   force =     0.00000000    0.00000000    0.00000000
     atom    5 type  2   force =    -0.00000000   -0.00000000    0.00000000

     Total force =     0.340701     Total SCF correction =     0.000026


     Computing stress (Cartesian axis) and pressure

          total   stress  (Ry/bohr**3)                   (kbar)     P=      641.44
   0.00452294  -0.00000000  -0.00000000          665.35       -0.00       -0.00
   0.00000000   0.00452294   0.00000000            0.00      665.35        0.00
   0.00000000   0.00000000   0.00403548            0.00        0.00      593.64


     BFGS Geometry Optimization
     Energy error            =      0.0E+00 Ry
     Gradient error          =      2.4E-01 Ry/Bohr
     Cell gradient error     =      1.7E+02 kbar

     number of scf cycles    =   1
     number of bfgs steps    =   0

     enthalpy           new  =     -46.5333520738 Ry

     new trust radius        =       0.2409116934 bohr
ibrav =      7
 celldm(1) =      6.21370561
 celldm(3) =      3.42990262
Input lattice vectors:
     0.51405007    -0.51405007     1.76314168
     0.51405007     0.51405007     1.76314168
    -0.51405007    -0.51405007     1.76314168
New lattice vectors in INITIAL alat:
     0.51405007    -0.51405007     1.76314168
     0.51405007     0.51405007     1.76314168
    -0.51405007    -0.51405007     1.76314168
New lattice vectors in NEW alat (for information only):
     0.50000000    -0.50000000     1.71495131
     0.50000000     0.50000000     1.71495131
    -0.50000000    -0.50000000     1.71495131
Discrepancy in bohr =     0.000000    0.000000    0.000000
     new conv_thr            =       0.0000000100 Ry

     new unit-cell volume =    411.43745 a.u.^3 (    60.96874 Ang^3 )
     density =      3.24878 g/cm^3

CELL_PARAMETERS (alat=  6.04387197)
   0.514050069  -0.514050069   1.763141680
   0.514050069   0.514050069   1.763141680
  -0.514050069  -0.514050069   1.763141680

ATOMIC_POSITIONS (crystal)
Li            0.0000000000       -0.0000000000        0.0000000000
Si            0.0000000000        0.3945592107        0.3945592107
Si           -0.0000000000        0.6054407893        0.6054407893
Si           -0.5000000000        0.7500000000        0.2500000000
Si           -0.5000000000        1.2500000000        0.7500000000



     Writing config-only to output data dir ./output/LiSi.save/
     NEW-OLD atomic charge density approx. for the potential
     extrapolated charge   20.30552, renormalised to   19.00000

     total cpu time spent up to now is       18.6 secs

     Self-consistent Calculation

     iteration #  1     ecut=    60.00 Ry     beta= 0.80
     Davidson diagonalization with overlap
     c_bands:  1 eigenvalues not converged
     c_bands:  2 eigenvalues not converged
     c_bands:  1 eigenvalues not converged
     c_bands:  1 eigenvalues not converged
     c_bands:  1 eigenvalues not converged
     c_bands:  1 eigenvalues not converged
     c_bands:  1 eigenvalues not converged
     c_bands:  1 eigenvalues not converged
     ethr =  1.00E-06,  avg # of iterations = 13.8

     total cpu time spent up to now is       23.8 secs

     total energy              =     -47.77412673 Ry
     estimated scf accuracy    <       0.27280251 Ry

     iteration #  2     ecut=    60.00 Ry     beta= 0.80
     Davidson diagonalization with overlap
     ethr =  1.44E-03,  avg # of iterations =  3.7

     total cpu time spent up to now is       25.8 secs

     total energy              =     -47.69585459 Ry
     estimated scf accuracy    <       2.59150856 Ry

     iteration #  3     ecut=    60.00 Ry     beta= 0.80
     Davidson diagonalization with overlap
     ethr =  1.44E-03,  avg # of iterations =  3.0

     total cpu time spent up to now is       27.5 secs

     total energy              =     -48.00456576 Ry
     estimated scf accuracy    <       0.04163418 Ry

     iteration #  4     ecut=    60.00 Ry     beta= 0.80
     Davidson diagonalization with overlap
     ethr =  2.19E-04,  avg # of iterations =  3.1

     total cpu time spent up to now is       29.1 secs

     total energy              =     -48.00958514 Ry
     estimated scf accuracy    <       0.00393177 Ry

     iteration #  5     ecut=    60.00 Ry     beta= 0.80
     Davidson diagonalization with overlap
     ethr =  2.07E-05,  avg # of iterations =  4.7

     total cpu time spent up to now is       31.0 secs

     total energy              =     -48.01069877 Ry
     estimated scf accuracy    <       0.00000237 Ry

     iteration #  6     ecut=    60.00 Ry     beta= 0.80
     Davidson diagonalization with overlap
     ethr =  1.25E-08,  avg # of iterations =  5.9

     total cpu time spent up to now is       33.5 secs

     total energy              =     -48.01072412 Ry
     estimated scf accuracy    <       0.00000262 Ry

     iteration #  7     ecut=    60.00 Ry     beta= 0.80
     Davidson diagonalization with overlap
     ethr =  1.25E-08,  avg # of iterations =  2.1

     total cpu time spent up to now is       35.1 secs

     total energy              =     -48.01072489 Ry
     estimated scf accuracy    <       0.00000192 Ry

     iteration #  8     ecut=    60.00 Ry     beta= 0.80
     Davidson diagonalization with overlap
     ethr =  1.01E-08,  avg # of iterations =  1.2

     total cpu time spent up to now is       36.4 secs

     total energy              =     -48.01072512 Ry
     estimated scf accuracy    <       0.00000003 Ry

     iteration #  9     ecut=    60.00 Ry     beta= 0.80
     Davidson diagonalization with overlap
     ethr =  1.65E-10,  avg # of iterations =  3.9

     total cpu time spent up to now is       38.1 secs

     End of self-consistent calculation

          k = 0.0000 0.0000 0.0000 (  3049 PWs)   bands (ev):

   -35.1568  -4.9380   0.3361   2.0534   6.8017   6.8017   9.6546  10.0495
    10.6292  10.6292  12.2600  13.4061  13.7137  16.6010

          k =-0.3242 0.0000 0.0945 (  3003 PWs)   bands (ev):

   -35.1519  -3.4899   0.1800   2.0715   3.5969   6.0349   8.0325   9.9490
    11.0286  11.5932  12.7850  13.5375  14.5765  14.7513

          k =-0.0000 0.1390 0.0405 (  3012 PWs)   bands (ev):

   -35.1544  -4.6693   0.4038   2.3943   4.8045   7.0290   8.6630  10.0360
    10.8381  12.0258  12.8183  13.7401  14.7334  15.3807

          k =-0.3242 0.1390 0.1350 (  3009 PWs)   bands (ev):

   -35.1516  -3.1918   0.2290   2.1585   4.2774   6.0758   6.3409   9.1772
     9.7715  11.9715  12.1500  13.6130  14.2356  15.8441

          k = 0.3242 0.1390-0.0540 (  3000 PWs)   bands (ev):

   -35.1512  -3.2568   0.5754   2.4706   3.3424   5.9669   6.1093   8.9973
    11.1101  11.8304  12.9932  13.8566  14.6569  15.3662

          k =-0.0000 0.2779 0.0810 (  3009 PWs)   bands (ev):

   -35.1527  -3.8702   0.4245   2.4015   3.3646   6.5188   7.7081  10.2717
    11.1541  11.6287  13.0159  13.7645  14.5609  15.0455

          k =-0.3242 0.2779 0.1756 (  3008 PWs)   bands (ev):

   -35.1501  -2.3724   0.6586   2.5674   3.5624   5.5390   6.5265   6.9728
     9.5609  10.2266  10.7173  12.2949  14.4184  16.1485

          k = 0.3242 0.2779-0.0135 (  3005 PWs)   bands (ev):

   -35.1500  -2.4983   1.2894   2.8981   3.4680   4.2583   5.9424   6.4622
     9.8967  11.9648  12.5171  13.3746  14.1606  15.0454

          k =-0.0000 0.4169 0.1215 (  2988 PWs)   bands (ev):

   -35.1505  -2.5713  -0.8543   2.0935   3.6768   5.7810   8.8176   8.9037
    10.2498  12.0402  12.5912  13.8560  13.9370  14.6011

          k =-0.3242 0.4169 0.2161 (  2999 PWs)   bands (ev):

   -35.1486  -1.0626   0.3039   2.4587   3.8138   4.5506   6.0440   6.6641
     8.8504   9.8389  10.0945  11.8292  13.5023  15.6894

          k = 0.3242 0.4169 0.0270 (  2995 PWs)   bands (ev):

   -35.1485  -1.2487   0.6316   2.9636   3.5798   4.7200   5.1052   5.7662
     9.2944  10.4189  11.1164  12.7095  13.4551  15.1273

          k = 0.1390-0.1390-0.0000 (  3021 PWs)   bands (ev):

   -35.1541  -4.4151   0.7316   2.3851   5.0111   5.0922   8.3570   9.3499
    12.1494  12.5812  13.4710  13.9799  14.4554  14.8828

          k =-0.1853-0.1390 0.0945 (  3015 PWs)   bands (ev):

   -35.1533  -4.1748   0.3539   3.2431   4.2049   5.2236   8.0149   9.3364
    11.1124  12.7462  13.2251  13.4512  14.2216  14.7661

          k = 0.4632-0.1390-0.0945 (  3000 PWs)   bands (ev):

   -35.1504  -1.8353  -1.1228   2.4785   3.6967   5.7707   7.3828   7.8634
     9.1295  12.1203  12.4915  13.6414  14.1137  15.3488

          k =-0.1853-0.0000 0.1350 (  3020 PWs)   bands (ev):

   -35.1542  -4.4034  -0.1425   3.5229   4.0877   7.1534   8.2005   9.6517
    10.7840  11.3263  12.8024  13.8206  14.3803  14.7088

          k = 0.4632-0.0000-0.0540 (  2989 PWs)   bands (ev):

   -35.1504  -2.1227  -1.3428   2.2645   3.5701   5.4442   9.3312   9.4281
     9.6943  11.2589  12.9434  13.4002  13.9318  15.4863

          k = 0.1390 0.1390 0.0810 (  3018 PWs)   bands (ev):

   -35.1540  -4.3872   0.3209   2.9889   4.9748   5.0903   8.5270   9.4639
    11.2820  12.5020  12.9610  13.9064  14.2554  15.0415

          k =-0.1853 0.1390 0.1756 (  3020 PWs)   bands (ev):

   -35.1535  -4.1042  -0.1926   3.9274   4.5793   5.2777   8.4739   9.2455
     9.8281  11.9887  13.0309  13.0881  13.9266  14.0629

          k = 0.4632 0.1390-0.0135 (  2998 PWs)   bands (ev):

   -35.1503  -1.8781  -1.0663   2.4893   3.8162   5.3703   7.4124   7.8121
    10.3123  10.8816  12.0755  13.9847  15.0447  15.3607

          k = 0.1390 0.2779 0.1215 (  3009 PWs)   bands (ev):

   -35.1521  -3.5760   0.3863   2.5736   4.0504   5.7474   6.7886   9.3401
    10.3387  12.1545  12.3720  13.3923  14.4430  16.0869

          k =-0.1853 0.2779 0.2161 (  3013 PWs)   bands (ev):

   -35.1517  -3.2859   0.0608   2.6626   4.6000   5.7902   7.3167   8.7803
     9.0056  10.7316  11.7095  12.6280  14.6375  15.9743

          k = 0.4632 0.2779 0.0270 (  3001 PWs)   bands (ev):

   -35.1490  -1.1103  -0.3047   3.0685   3.8792   4.9101   5.5080   6.0478
     9.7803  10.2537  10.9348  12.3745  13.6749  15.8409

          k = 0.1390-0.5558-0.1215 (  3010 PWs)   bands (ev):

   -35.1509  -2.2652  -0.6806   2.1449   4.1543   6.0118   6.9418   8.3747
     8.8707  12.0975  12.2223  13.6337  14.0215  15.4929

          k =-0.1853-0.5558-0.0270 (  3015 PWs)   bands (ev):

   -35.1507  -1.9756  -0.6268   2.0709   5.0093   5.4873   6.4858   7.6311
     9.4454  10.3026  11.7389  12.3557  14.9438  15.6116

          k = 0.4632-0.5558-0.2161 (  2995 PWs)   bands (ev):

   -35.1476   0.1228   0.8567   2.2492   2.5310   4.5723   5.4945   6.0424
     8.6407   9.2217  10.3566  11.6367  13.7698  14.7384

          k = 0.1390-0.4169-0.0810 (  2991 PWs)   bands (ev):

   -35.1501  -2.3506  -0.5274   2.5019   3.6089   5.6128   6.9199   8.3087
     9.6865  11.9207  12.6761  13.8095  14.3088  15.1094

          k =-0.1853-0.4169 0.0135 (  2991 PWs)   bands (ev):

   -35.1497  -2.1834  -0.2654   2.9199   3.4711   5.3729   6.1300   7.4110
    10.7804  11.1202  11.5550  13.7376  14.9004  15.6996

          k = 0.4632-0.4169-0.1756 (  3001 PWs)   bands (ev):

   -35.1479   0.2460   0.6996   2.1070   2.7025   4.4166   5.7269   6.1326
     8.4541   9.6145  10.0532  11.2261  13.6846  15.2794

          k = 0.1390-0.2779-0.0405 (  3005 PWs)   bands (ev):

   -35.1519  -3.6316   0.8646   2.6981   3.1514   5.7709   6.4849   9.1384
    11.8008  12.1212  13.0152  13.9585  14.7699  15.3829

          k =-0.1853-0.2779 0.0540 (  3010 PWs)   bands (ev):

   -35.1516  -3.4238   0.9609   2.8328   3.3982   4.9533   6.5545   8.3114
    11.3864  11.7665  13.5337  13.7648  14.7686  15.3399

          k = 0.4632-0.2779-0.1350 (  2999 PWs)   bands (ev):

   -35.1489  -1.0261  -0.4129   2.9908   3.8660   4.7995   5.6479   6.5994
     8.9211  10.0733  11.3070  12.7048  13.7851  14.8726

          k = 0.2779-0.2779-0.0000 (  3010 PWs)   bands (ev):

   -35.1507  -2.8663   1.4100   3.0780   3.3021   4.0472   6.3722   6.7884
    10.2349  12.4965  12.9665  13.5487  14.3353  15.0399

          k =-0.0463-0.2779 0.0945 (  3014 PWs)   bands (ev):

   -35.1529  -3.8312   0.3647   2.4072   3.5500   6.5830   7.3477  10.3238
    10.8579  11.7427  12.8137  13.5146  14.9201  15.3530

          k = 0.6021-0.2779-0.0945 (  3004 PWs)   bands (ev):

   -35.1495  -1.9337   0.4328   2.3844   3.8679   5.3487   6.2969   6.8663
     9.1225  10.2010  10.6140  12.0691  14.1172  15.8922

          k =-0.0463-0.1390 0.1350 (  3027 PWs)   bands (ev):

   -35.1548  -4.5781  -0.2535   3.5947   4.8051   6.6169   9.0055   9.7432
    10.8032  10.9886  12.4636  13.5366  14.3415  14.8643

          k = 0.6021-0.1390-0.0540 (  3016 PWs)   bands (ev):

   -35.1514  -2.6753  -0.3588   1.8331   5.1667   6.0182   6.6918   8.6707
     9.1911  10.5257  12.4004  13.1809  14.0782  15.8536

          k =-0.0463-0.0000 0.1756 (  3039 PWs)   bands (ev):

   -35.1561  -4.8071  -0.6980   4.1193   6.3551   6.7344   8.6734  10.0148
    10.5324  10.9572  11.3886  13.0913  14.2250  14.4223

          k = 0.6021-0.0000-0.0135 (  3011 PWs)   bands (ev):

   -35.1517  -2.9191  -0.6505   1.5884   5.4361   5.8145   8.3113   8.8622
     9.8793  10.9159  11.8066  14.4391  14.6674  14.9039

          k =-0.0463 0.1390 0.2161 (  3026 PWs)   bands (ev):

   -35.1548  -4.5123  -0.6896   4.5333   5.1299   6.5749   8.1612   9.5335
    10.5734  11.4595  12.2892  12.6988  13.7989  14.7201

          k = 0.6021 0.1390 0.0270 (  3009 PWs)   bands (ev):

   -35.1511  -2.6608  -0.3944   1.8037   5.4336   5.8754   6.6960   8.6977
     9.3483  10.1031  12.5671  12.9640  14.0906  15.7873

          k = 0.2779-0.6948-0.1215 (  3001 PWs)   bands (ev):

   -35.1502  -2.7576   0.6582   2.9572   3.3922   5.3174   7.0094   7.0990
     9.9435  10.4560  11.0189  12.6070  14.8426  16.3645

          k =-0.0463-0.6948-0.0270 (  3021 PWs)   bands (ev):

   -35.1530  -3.7025  -0.3879   2.2795   5.7530   7.0491   7.2942   8.2598
    10.2813  11.4604  11.5869  13.8775  14.4119  15.4934

          k = 0.6021-0.6948-0.2161 (  3003 PWs)   bands (ev):

   -35.1495  -1.9073   0.3659   2.3305   3.8673   5.5237   6.4008   6.9707
     9.0052  10.2350  10.3624  11.7193  14.0599  16.3322

          k = 0.2779-0.5558-0.0810 (  3000 PWs)   bands (ev):

   -35.1491  -1.4450  -0.0120   2.4982   4.1812   4.8985   6.1029   6.7480
     8.9375  10.2506  10.6325  11.9858  13.9285  15.6714

          k =-0.0463-0.5558 0.0135 (  3005 PWs)   bands (ev):

   -35.1511  -2.4055  -1.0555   1.7235   4.8143   5.6343   8.4188   9.2317
     9.9413  10.1832  12.5326  14.0936  14.5361  14.7710

          k = 0.6021-0.5558-0.1756 (  2996 PWs)   bands (ev):

   -35.1481  -0.6915   0.7285   2.2170   3.7688   4.0092   5.9116   6.3749
     8.7710   9.6169  10.0587  11.7918  13.6124  15.2093

          k = 0.2779-0.4169-0.0405 (  3004 PWs)   bands (ev):

   -35.1493  -1.6077   0.2742   3.2008   3.5821   4.9179   5.3352   6.0878
     9.7510  10.4834  11.6379  12.7737  13.7675  15.3526

          k =-0.0463-0.4169 0.0540 (  2993 PWs)   bands (ev):

   -35.1507  -2.5995  -0.7188   2.4197   3.3079   5.3955   8.5027   9.8376
     9.9214  11.6755  13.3278  13.4530  13.6166  15.1478

          k = 0.6021-0.4169-0.1350 (  2996 PWs)   bands (ev):

   -35.1481  -0.7268   0.7893   2.2585   3.7156   4.0747   5.7696   6.2366
     8.8979   9.5046  10.4107  11.7350  13.7430  15.2796

          k = 0.4169-0.4169-0.0000 (  2986 PWs)   bands (ev):

   -35.1473  -0.3836   1.2148   2.0562   3.0119   4.6650   5.3627   5.6440
     8.8759   9.4159  10.4938  12.5817  13.6514  14.1113

          k = 0.0926-0.4169 0.0945 (  2997 PWs)   bands (ev):

   -35.1507  -2.4828  -0.6910   2.3159   3.5867   5.6569   7.7319   9.1479
     9.4261  12.5690  12.7892  13.4508  14.2680  14.9175

          k = 0.7411-0.4169-0.0945 (  3007 PWs)   bands (ev):

   -35.1499  -1.7739  -0.2868   2.3858   4.4815   5.1772   6.3598   6.9911
     8.9143  10.7709  11.3123  12.2851  14.4632  15.4417

          k = 0.0926-0.2779 0.1350 (  3018 PWs)   bands (ev):

   -35.1527  -3.7085   0.1817   2.4348   4.1463   6.5695   6.8151   9.8696
    10.2977  12.0237  12.4544  12.9527  14.9458  15.9354

          k = 0.7411-0.2779-0.0540 (  3015 PWs)   bands (ev):

   -35.1513  -3.0152   0.2046   2.8524   3.8693   6.0647   7.3974   8.0790
     8.8913  10.4273  11.1610  11.9857  15.2953  15.9054

          k = 0.0926-0.1390 0.1756 (  3022 PWs)   bands (ev):

   -35.1544  -4.4550  -0.4385   4.2246   4.9122   5.8500   9.0233   9.2981
    10.5462  11.4720  12.4631  13.0984  13.7786  15.1686

          k = 0.7411-0.1390-0.0135 (  3021 PWs)   bands (ev):

   -35.1530  -3.7855  -0.3407   3.1722   5.1585   6.2208   7.7893   8.3020
    10.0415  10.7593  12.6543  13.1189  13.1977  15.3008

          k = 0.0926 0.0000 0.2161 (  3029 PWs)   bands (ev):

   -35.1555  -4.6888  -0.8166   4.7969   5.6209   6.7892   8.0071  10.0507
    10.4384  11.2892  11.7456  13.0915  13.9299  13.9323

          k = 0.7411 0.0000 0.0270 (  3027 PWs)   bands (ev):

   -35.1539  -4.0528  -0.5321   2.9457   5.7266   7.3200   7.6345   8.1832
    10.3076  11.3421  11.9966  13.9665  14.9452  15.0094

          k = 0.0926-0.8337-0.0270 (  3020 PWs)   bands (ev):

   -35.1543  -4.4047  -0.7266   4.6719   5.4753   6.0354   7.5816   9.7081
    10.9329  11.2744  12.2179  12.6184  13.1648  15.1702

          k = 0.7411-0.8337-0.2161 (  3011 PWs)   bands (ev):

   -35.1526  -3.8094  -0.2235   3.1818   5.0295   5.7216   7.9646   8.6480
     9.8899  11.1370  12.6717  13.1860  13.3846  15.3045

          k = 0.0926-0.6948 0.0135 (  3013 PWs)   bands (ev):

   -35.1524  -3.6113  -0.3290   2.3524   5.7904   6.6725   7.0833   8.2847
    10.3098  10.7549  12.3734  13.3569  13.6027  16.3446

          k = 0.7411-0.6948-0.1756 (  3005 PWs)   bands (ev):

   -35.1509  -3.0604   0.4169   2.8889   3.8608   5.3550   7.1551   7.8820
     9.6750  10.9586  11.1091  12.6385  15.3373  15.8675

          k = 0.4169-0.5558-0.0405 (  2998 PWs)   bands (ev):

   -35.1478  -0.1500   0.8088   1.8728   3.3723   4.0165   6.0676   6.5306
     8.4356   9.1030   9.9693  11.9802  13.0601  15.2876

          k = 0.0926-0.5558 0.0540 (  3005 PWs)   bands (ev):

   -35.1510  -2.3392  -0.9378   1.8394   4.6190   5.8609   7.7304   8.8019
     9.4367  10.7405  13.2103  13.4285  14.0811  15.3020

          k = 0.7411-0.5558-0.1350 (  3009 PWs)   bands (ev):

   -35.1500  -1.8381  -0.1783   2.5943   4.1287   5.2117   6.1320   6.8742
     9.1694  10.5834  12.0152  12.9735  14.0388  15.0753

     the Fermi energy is    10.9927 ev

!    total energy              =     -48.01072514 Ry
     estimated scf accuracy    <          1.7E-09 Ry
     smearing contrib. (-TS)   =       0.00021659 Ry
     internal energy E=F+TS    =     -48.01094173 Ry

     The total energy is F=E-TS. E is the sum of the following terms:
     one-electron contribution =      10.75769644 Ry
     hartree contribution      =       4.17738097 Ry
     xc contribution           =     -16.59015098 Ry
     ewald contribution        =     -46.35586815 Ry

     convergence has been achieved in   9 iterations

     Forces acting on atoms (cartesian axes, Ry/au):

     atom    1 type  1   force =     0.00000000    0.00000000    0.00000000
     atom    2 type  2   force =     0.00000000    0.00000000    0.09552941
     atom    3 type  2   force =    -0.00000000   -0.00000000   -0.09552941
     atom    4 type  2   force =     0.00000000   -0.00000000   -0.00000000
     atom    5 type  2   force =     0.00000000   -0.00000000    0.00000000
     The non-local contrib.  to forces
     atom    1 type  1   force =    -0.00000000    0.00000000    0.00000000
     atom    2 type  2   force =     0.00000000    0.00000000    0.07834333
     atom    3 type  2   force =    -0.00000000    0.00000000   -0.07834333
     atom    4 type  2   force =     0.00000000    0.00000000    0.00000000
     atom    5 type  2   force =    -0.00000000   -0.00000000   -0.00000000
     The ionic contribution  to forces
     atom    1 type  1   force =    -0.00000000   -0.00000000   -0.00000000
     atom    2 type  2   force =     0.00000000    0.00000000    1.58803179
     atom    3 type  2   force =     0.00000000    0.00000000   -1.58803179
     atom    4 type  2   force =     0.00000000   -0.00000000   -0.00000000
     atom    5 type  2   force =    -0.00000000   -0.00000000   -0.00000000
     The local contribution  to forces
     atom    1 type  1   force =     0.00000000    0.00000000    0.00000000
     atom    2 type  2   force =    -0.00000000    0.00000000   -1.56174182
     atom    3 type  2   force =    -0.00000000   -0.00000000    1.56174182
     atom    4 type  2   force =    -0.00000000    0.00000000    0.00000000
     atom    5 type  2   force =     0.00000000    0.00000000    0.00000000
     The core correction contribution to forces
     atom    1 type  1   force =     0.00000000    0.00000000    0.00000000
     atom    2 type  2   force =     0.00000000   -0.00000000   -0.00905652
     atom    3 type  2   force =    -0.00000000   -0.00000000    0.00905652
     atom    4 type  2   force =     0.00000000    0.00000000    0.00000000
     atom    5 type  2   force =     0.00000000    0.00000000   -0.00000000
     The Hubbard contrib.    to forces
     atom    1 type  1   force =     0.00000000    0.00000000    0.00000000
     atom    2 type  2   force =     0.00000000    0.00000000    0.00000000
     atom    3 type  2   force =     0.00000000    0.00000000    0.00000000
     atom    4 type  2   force =     0.00000000    0.00000000    0.00000000
     atom    5 type  2   force =     0.00000000    0.00000000    0.00000000
     The SCF correction term to forces
     atom    1 type  1   force =     0.00000000   -0.00000000   -0.00000000
     atom    2 type  2   force =     0.00000000    0.00000000   -0.00004738
     atom    3 type  2   force =     0.00000000   -0.00000000    0.00004738
     atom    4 type  2   force =     0.00000000    0.00000000   -0.00000000
     atom    5 type  2   force =     0.00000000   -0.00000000   -0.00000000

     Total force =     0.135099     Total SCF correction =     0.000067


     Computing stress (Cartesian axis) and pressure

          total   stress  (Ry/bohr**3)                   (kbar)     P=      358.39
   0.00251891  -0.00000000  -0.00000000          370.54       -0.00       -0.00
  -0.00000000   0.00251891   0.00000000           -0.00      370.54        0.00
   0.00000000  -0.00000000   0.00227097            0.00       -0.00      334.07

     Energy error            =      7.9E-02 Ry
     Gradient error          =      9.6E-02 Ry/Bohr
     Cell gradient error     =      1.7E+02 kbar

     number of scf cycles    =   2
     number of bfgs steps    =   1

     enthalpy           old  =     -46.5333520738 Ry
     enthalpy           new  =     -46.6122776833 Ry

     CASE: enthalpy          _new < enthalpy          _old

     new trust radius        =       0.2188476543 bohr
ibrav =      7
 celldm(1) =      6.12546299
 celldm(3) =      3.38438117
Input lattice vectors:
     0.50674990    -0.50674990     1.71503481
     0.50674990     0.50674990     1.71503481
    -0.50674990    -0.50674990     1.71503481
New lattice vectors in INITIAL alat:
     0.50674990    -0.50674990     1.71503481
     0.50674990     0.50674990     1.71503481
    -0.50674990    -0.50674990     1.71503481
New lattice vectors in NEW alat (for information only):
     0.50000000    -0.50000000     1.69219059
     0.50000000     0.50000000     1.69219059
    -0.50000000    -0.50000000     1.69219059
Discrepancy in bohr =     0.000000    0.000000    0.000000
     new conv_thr            =       0.0000000010 Ry

     new unit-cell volume =    388.92516 a.u.^3 (    57.63276 Ang^3 )
     density =      3.43683 g/cm^3

CELL_PARAMETERS (alat=  6.04387197)
   0.506749897  -0.506749897   1.715034811
   0.506749897   0.506749897   1.715034811
  -0.506749897  -0.506749897   1.715034811

ATOMIC_POSITIONS (crystal)
Li            0.0000000000       -0.0000000000        0.0000000000
Si            0.0000000000        0.4048277680        0.4048277680
Si            0.0000000000        0.5951722320        0.5951722320
Si           -0.5000000000        0.7500000000        0.2500000000
Si           -0.5000000000        1.2500000000        0.7500000000



     Writing config-only to output data dir ./output/LiSi.save/
     NEW-OLD atomic charge density approx. for the potential
     extrapolated charge   17.90062, renormalised to   19.00000

     total cpu time spent up to now is       39.9 secs

     Self-consistent Calculation

     iteration #  1     ecut=    60.00 Ry     beta= 0.80
     Davidson diagonalization with overlap
     c_bands:  1 eigenvalues not converged
     c_bands:  1 eigenvalues not converged
     c_bands:  1 eigenvalues not converged
     ethr =  1.00E-06,  avg # of iterations = 12.0

     total cpu time spent up to now is       44.4 secs

     total energy              =     -47.95849403 Ry
     estimated scf accuracy    <       0.00687486 Ry

     iteration #  2     ecut=    60.00 Ry     beta= 0.80
     Davidson diagonalization with overlap
     ethr =  3.62E-05,  avg # of iterations =  3.6

     total cpu time spent up to now is       46.3 secs

     total energy              =     -47.96146646 Ry
     estimated scf accuracy    <       0.03476685 Ry

     iteration #  3     ecut=    60.00 Ry     beta= 0.80
     Davidson diagonalization with overlap
     ethr =  3.62E-05,  avg # of iterations =  2.2

     total cpu time spent up to now is       47.8 secs

     total energy              =     -47.96560123 Ry
     estimated scf accuracy    <       0.00125868 Ry

     iteration #  4     ecut=    60.00 Ry     beta= 0.80
     Davidson diagonalization with overlap
     ethr =  6.62E-06,  avg # of iterations =  1.8

     total cpu time spent up to now is       49.1 secs

     total energy              =     -47.96543050 Ry
     estimated scf accuracy    <       0.00068226 Ry

     iteration #  5     ecut=    60.00 Ry     beta= 0.80
     Davidson diagonalization with overlap
     ethr =  3.59E-06,  avg # of iterations =  2.5

     total cpu time spent up to now is       50.6 secs

     total energy              =     -47.96558943 Ry
     estimated scf accuracy    <       0.00001260 Ry

     iteration #  6     ecut=    60.00 Ry     beta= 0.80
     Davidson diagonalization with overlap
     ethr =  6.63E-08,  avg # of iterations =  3.9

     total cpu time spent up to now is       52.3 secs

     total energy              =     -47.96559402 Ry
     estimated scf accuracy    <       0.00000341 Ry

     iteration #  7     ecut=    60.00 Ry     beta= 0.80
     Davidson diagonalization with overlap
     ethr =  1.79E-08,  avg # of iterations =  1.6

     total cpu time spent up to now is       53.6 secs

     total energy              =     -47.96559421 Ry
     estimated scf accuracy    <       0.00000029 Ry

     iteration #  8     ecut=    60.00 Ry     beta= 0.80
     Davidson diagonalization with overlap
     ethr =  1.53E-09,  avg # of iterations =  3.0

     total cpu time spent up to now is       55.1 secs

     total energy              =     -47.96559433 Ry
     estimated scf accuracy    <       0.00000009 Ry

     iteration #  9     ecut=    60.00 Ry     beta= 0.80
     Davidson diagonalization with overlap
     ethr =  4.80E-10,  avg # of iterations =  1.7

     total cpu time spent up to now is       56.4 secs

     total energy              =     -47.96559434 Ry
     estimated scf accuracy    <          2.6E-09 Ry

     iteration # 10     ecut=    60.00 Ry     beta= 0.80
     Davidson diagonalization with overlap
     ethr =  1.36E-11,  avg # of iterations =  4.0

     total cpu time spent up to now is       58.1 secs

     total energy              =     -47.96559434 Ry
     estimated scf accuracy    <          4.9E-09 Ry

     iteration # 11     ecut=    60.00 Ry     beta= 0.80
     Davidson diagonalization with overlap
     ethr =  1.36E-11,  avg # of iterations =  2.0

     total cpu time spent up to now is       59.5 secs

     End of self-consistent calculation

          k = 0.0000 0.0000 0.0000 (  3049 PWs)   bands (ev):

   -34.3530  -4.3010   1.0854   1.8808   7.8595   7.8595  10.6794  11.0750
    11.0750  11.2773  13.0020  13.6486  15.1952  17.4000

          k =-0.3289 0.0000 0.0972 (  3003 PWs)   bands (ev):

   -34.3479  -2.8064   0.8174   2.5186   3.9605   6.5741   9.1022  10.6477
    11.9174  12.4691  13.5814  14.1675  15.5719  15.9606

          k =-0.0000 0.1410 0.0416 (  3012 PWs)   bands (ev):

   -34.3509  -4.0233   1.0121   2.3744   5.7680   8.0885   9.1572  11.1634
    11.3251  12.9902  13.6013  14.5814  15.6939  16.2143

          k =-0.3289 0.1410 0.1388 (  3009 PWs)   bands (ev):

   -34.3472  -2.4811   0.7457   2.7172   4.6395   6.9366   7.0442  10.0312
    10.3650  12.6281  12.9105  14.6458  14.9523  16.9860

          k = 0.3289 0.1410-0.0555 (  3000 PWs)   bands (ev):

   -34.3469  -2.5816   1.3569   2.7478   3.7868   6.4524   7.1100   9.7639
    11.6536  12.5386  13.9465  14.7969  15.7564  16.3264

          k =-0.0000 0.2819 0.0833 (  3009 PWs)   bands (ev):

   -34.3487  -3.1982   0.9755   2.8999   3.7790   7.0469   8.7741  11.1939
    11.8740  12.3413  13.7958  14.5699  15.5381  16.2124

          k =-0.3289 0.2819 0.1805 (  3008 PWs)   bands (ev):

   -34.3453  -1.6164   1.0918   3.3012   4.2507   5.9445   7.3253   7.7655
    10.1602  10.8059  11.1976  13.0411  15.2864  16.9927

          k = 0.3289 0.2819-0.0139 (  3005 PWs)   bands (ev):

   -34.3452  -1.8141   2.1967   3.2931   3.8578   5.0538   6.4124   7.1788
    10.5132  12.2781  13.6345  13.9069  15.1522  16.4488

          k =-0.0000 0.4229 0.1249 (  2988 PWs)   bands (ev):

   -34.3464  -1.8667  -0.0944   2.2724   4.2191   6.3052   9.4069   9.8946
    11.3325  12.9098  13.5130  14.2510  15.0114  15.8802

          k =-0.3289 0.4229 0.2221 (  2999 PWs)   bands (ev):

   -34.3435  -0.2501   0.9455   2.9882   4.3733   5.4718   6.5428   7.2841
     9.3619  10.2372  10.6847  12.6991  14.2882  16.5057

          k = 0.3289 0.4229 0.0278 (  2995 PWs)   bands (ev):

   -34.3434  -0.5498   1.5280   3.5800   3.9716   5.3943   5.8954   6.1570
     9.6632  11.0589  11.8149  13.3508  14.4008  16.2462

          k = 0.1410-0.1410-0.0000 (  3021 PWs)   bands (ev):

   -34.3503  -3.7672   1.5146   2.2045   6.0164   6.0430   8.8147   9.8937
    13.4454  13.7685  13.8079  14.9846  15.4261  15.8812

          k =-0.1879-0.1410 0.0972 (  3015 PWs)   bands (ev):

   -34.3494  -3.5030   0.7764   3.4481   5.1063   6.1707   8.5481   9.9495
    12.0163  13.6894  14.1396  14.2652  15.2047  15.4822

          k = 0.4698-0.1410-0.0972 (  3000 PWs)   bands (ev):

   -34.3458  -1.1507  -0.3045   2.5620   4.3652   6.2700   8.3619   8.8088
     9.6203  12.5130  13.3199  14.5812  15.0817  16.5749

          k =-0.1879 0.0000 0.1388 (  3020 PWs)   bands (ev):

   -34.3504  -3.7192   0.1802   3.9015   4.8549   8.1794   8.8007  10.6416
    11.6550  11.9610  13.3716  14.8484  15.3831  15.5039

          k = 0.4698-0.0000-0.0555 (  2989 PWs)   bands (ev):

   -34.3462  -1.4551  -0.5117   2.3179   4.3015   5.8228   9.9713  10.4496
    10.7495  12.0366  13.9175  14.2824  14.5990  16.8020

          k = 0.1410 0.1410 0.0833 (  3018 PWs)   bands (ev):

   -34.3501  -3.7249   0.7744   3.1347   5.9800   5.9991   9.0400  10.0397
    12.2621  13.6636  13.8664  14.8038  14.8320  15.8580

          k =-0.1879 0.1410 0.1805 (  3020 PWs)   bands (ev):

   -34.3494  -3.3915   0.0661   4.5911   5.1743   6.1236   9.1693  10.0085
    10.7263  12.5066  13.5708  14.0986  14.8304  15.1386

          k = 0.4698 0.1410-0.0139 (  2998 PWs)   bands (ev):

   -34.3458  -1.2090  -0.2174   2.5386   4.6298   5.6822   8.4633   8.7186
    10.6508  11.8969  12.4721  14.9996  15.9600  16.4734

          k = 0.1410 0.2819 0.1249 (  3009 PWs)   bands (ev):

   -34.3478  -2.8798   0.8167   3.2490   4.4067   6.6871   7.3868  10.0930
    11.0271  12.9365  13.0870  14.4608  15.0979  17.2597

          k =-0.1879 0.2819 0.2221 (  3013 PWs)   bands (ev):

   -34.3473  -2.5294   0.3251   3.4286   5.3572   6.2082   8.1454   9.6416
     9.8896  11.1400  12.2720  13.2332  15.7682  16.7624

          k = 0.4698 0.2819 0.0278 (  3001 PWs)   bands (ev):

   -34.3440  -0.4238   0.5650   3.1768   4.8027   5.5456   6.3802   6.4799
    10.0533  10.8023  11.7890  13.3061  14.3077  16.7077

          k = 0.1410-0.5638-0.1249 (  3010 PWs)   bands (ev):

   -34.3463  -1.5262   0.0257   2.3820   4.6782   6.6391   7.8451   9.1927
     9.5178  12.5492  13.0119  14.4313  15.0676  16.6950

          k =-0.1879-0.5638-0.0278 (  3015 PWs)   bands (ev):

   -34.3459  -1.1632  -0.0310   2.3575   5.6565   6.1925   7.1041   8.6735
     9.8996  11.1098  12.0269  13.2623  15.6447  16.6123

          k = 0.4698-0.5638-0.2221 (  2995 PWs)   bands (ev):

   -34.3422   0.8220   1.7442   3.1519   3.3050   4.6522   5.8870   6.7659
     9.1278   9.8355  10.8693  12.2106  14.8932  15.6877

          k = 0.1410-0.4229-0.0833 (  2991 PWs)   bands (ev):

   -34.3457  -1.6599   0.2922   2.6132   4.2264   6.0841   7.9205   9.2315
    10.1844  12.3896  13.5261  14.8080  15.1977  16.3356

          k =-0.1879-0.4229 0.0139 (  2991 PWs)   bands (ev):

   -34.3452  -1.5040   0.6097   2.8795   4.2861   5.7560   7.1227   8.2481
    11.0856  11.6174  12.6353  14.7241  15.4522  16.8634

          k = 0.4698-0.4229-0.1805 (  3001 PWs)   bands (ev):

   -34.3425   0.9840   1.5144   2.9290   3.5970   4.5368   6.1838   6.6822
     9.1927  10.0477  10.5565  11.8136  14.7709  16.1484

          k = 0.1410-0.2819-0.0416 (  3005 PWs)   bands (ev):

   -34.3478  -2.9651   1.5934   2.8234   3.8094   6.7554   6.9751   9.8054
    12.4001  12.9524  14.0138  14.8570  15.9387  16.3475

          k =-0.1879-0.2819 0.0555 (  3010 PWs)   bands (ev):

   -34.3473  -2.7500   1.6302   3.0897   4.0114   5.8872   7.0405   8.9990
    12.1370  12.3893  14.2152  14.9223  15.6262  16.4812

          k = 0.4698-0.2819-0.1388 (  2999 PWs)   bands (ev):

   -34.3439  -0.3078   0.3989   3.1803   4.5687   5.6152   6.5170   7.0776
     9.3621  10.4597  12.1450  13.3072  14.8771  15.7207

          k = 0.2819-0.2819-0.0000 (  3010 PWs)   bands (ev):

   -34.3460  -2.1884   2.3115   3.1149   4.0602   4.8308   6.7737   7.5434
    10.9350  12.7218  14.0748  14.2546  15.3422  16.5094

          k =-0.0470-0.2819 0.0972 (  3014 PWs)   bands (ev):

   -34.3487  -3.1532   0.8698   2.9828   3.9257   7.1273   8.3924  11.1164
    11.6088  12.5997  13.5935  14.3183  15.8655  16.5040

          k = 0.6108-0.2819-0.0972 (  3004 PWs)   bands (ev):

   -34.3446  -1.1592   0.9856   2.9238   4.5678   5.9483   7.0281   7.6044
     9.6383  10.6583  11.2094  12.8713  14.9413  16.7345

          k =-0.0470-0.1410 0.1388 (  3027 PWs)   bands (ev):

   -34.3511  -3.8981   0.0621   3.8626   5.7221   7.6194   9.6065  10.6874
    11.5767  11.8150  13.4930  14.0697  15.1158  15.7399

          k = 0.6108-0.1410-0.0555 (  3016 PWs)   bands (ev):

   -34.3467  -1.8954   0.1312   2.2765   5.6217   6.8210   7.4515   9.3977
    10.0674  11.2273  12.8026  13.9314  15.1765  16.5332

          k =-0.0470 0.0000 0.1805 (  3039 PWs)   bands (ev):

   -34.3524  -4.1131  -0.4537   4.4198   7.3349   7.7319   9.5811  11.0299
    11.4298  11.6663  12.0258  13.9524  14.8610  14.9950

          k = 0.6108 0.0000-0.0139 (  3011 PWs)   bands (ev):

   -34.3473  -2.1325  -0.1930   2.0296   5.9067   6.4141   9.3296   9.7434
    10.2002  12.1237  12.8293  14.5754  15.9473  15.9513

          k =-0.0470 0.1410 0.2221 (  3026 PWs)   bands (ev):

   -34.3510  -3.7915  -0.4894   5.1362   5.7440   7.5431   9.0206  10.3654
    11.5426  12.2939  12.8436  13.5411  14.1800  15.8439

          k = 0.6108 0.1410 0.0278 (  3009 PWs)   bands (ev):

   -34.3465  -1.8692   0.0708   2.2547   5.8825   6.6725   7.4512   9.6013
    10.0870  10.7979  12.8730  13.7962  15.1881  16.4534

          k = 0.2819-0.7048-0.1249 (  3001 PWs)   bands (ev):

   -34.3456  -2.0191   1.0409   3.8586   4.0014   5.6988   7.6216   8.0375
    10.6052  11.1529  11.4433  13.3062  15.7561  17.2195

          k =-0.0470-0.7048-0.0278 (  3021 PWs)   bands (ev):

   -34.3488  -2.9436  -0.1615   3.0335   6.0012   7.9642   8.2507   9.1728
    10.5368  12.5759  12.6543  14.0336  15.3742  16.7142

          k = 0.6108-0.7048-0.2221 (  3003 PWs)   bands (ev):

   -34.3446  -1.1133   0.8727   2.8793   4.5864   6.1725   7.0587   7.7690
     9.5336  10.6881  10.9108  12.5211  14.8419  17.1448

          k = 0.2819-0.5638-0.0833 (  3000 PWs)   bands (ev):

   -34.3441  -0.6532   0.6475   2.8586   4.8592   5.7047   6.7876   7.3977
     9.3931  10.6076  11.3626  12.8289  14.7122  16.5197

          k =-0.0470-0.5638 0.0139 (  3005 PWs)   bands (ev):

   -34.3467  -1.6023  -0.4730   1.9917   5.5899   5.9197   9.4083   9.9839
    10.4696  11.3321  13.5613  14.3184  15.7703  15.8739

          k = 0.6108-0.5638-0.1805 (  2996 PWs)   bands (ev):

   -34.3429   0.0917   1.4294   3.0053   4.1263   4.8329   6.4131   6.9001
     9.4130  10.0645  10.5502  12.5055  14.6065  16.0292

          k = 0.2819-0.4229-0.0416 (  3004 PWs)   bands (ev):

   -34.3443  -0.9127   1.1528   3.3280   4.3580   5.6511   6.0146   6.6781
    10.1433  11.0078  12.5184  13.5156  14.5792  16.3260

          k =-0.0470-0.4229 0.0555 (  2993 PWs)   bands (ev):

   -34.3465  -1.9234   0.1216   2.4552   3.9914   5.8089   9.5884  10.4512
    10.8604  12.5191  13.7731  14.4919  14.6735  16.4643

          k = 0.6108-0.4229-0.1388 (  2996 PWs)   bands (ev):

   -34.3429   0.0333   1.5357   3.0701   4.0972   4.7983   6.3347   6.7194
     9.4569  10.0480  10.9174  12.3974  14.7915  16.1180

          k = 0.4229-0.4229-0.0000 (  2986 PWs)   bands (ev):

   -34.3422   0.3192   2.1325   3.0091   3.6040   4.7769   5.7324   6.4822
     9.1104  10.3394  10.9166  13.1009  14.6451  15.4286

          k = 0.0940-0.4229 0.0972 (  2997 PWs)   bands (ev):

   -34.3463  -1.7897   0.1084   2.4510   4.1709   6.1421   8.7555   9.8855
    10.1886  13.1648  13.4820  14.4646  15.4426  15.7722

          k = 0.7518-0.4229-0.0972 (  3007 PWs)   bands (ev):

   -34.3450  -1.0015   0.3883   2.6783   5.0549   6.0616   6.9782   7.8488
     9.3534  11.1439  12.1041  13.0966  15.2653  16.3374

          k = 0.0940-0.2819 0.1388 (  3018 PWs)   bands (ev):

   -34.3485  -3.0086   0.5774   3.1343   4.4799   7.3872   7.6010  10.5578
    11.1026  12.7427  13.4745  13.7114  15.6001  16.9451

          k = 0.7518-0.2819-0.0555 (  3015 PWs)   bands (ev):

   -34.3467  -2.2444   0.4633   3.6415   4.6696   6.3560   8.2807   9.0646
     9.7405  10.7073  11.7069  12.5800  16.1080  17.0331

          k = 0.0940-0.1410 0.1805 (  3022 PWs)   bands (ev):

   -34.3506  -3.7516  -0.1892   4.5858   5.7807   6.7916   9.7847  10.0724
    11.3299  12.4773  13.3162  13.7503  14.2551  16.2465

          k = 0.7518-0.1410-0.0139 (  3021 PWs)   bands (ev):

   -34.3487  -3.0271  -0.1511   3.9966   5.8887   6.6030   8.7703   9.2531
    10.9000  11.1623  12.7910  14.1118  14.2726  16.4385

          k = 0.0940-0.0000 0.2221 (  3029 PWs)   bands (ev):

   -34.3518  -3.9733  -0.6188   5.1414   6.5262   7.7756   8.8779  10.9477
    11.3621  12.3046  12.5151  13.4021  14.3798  15.0151

          k = 0.7518-0.0000 0.0278 (  3027 PWs)   bands (ev):

   -34.3498  -3.3050  -0.3414   3.7656   5.9695   8.3138   8.5893   9.0831
    10.7583  12.0731  13.1521  14.1095  16.0384  16.1027

          k = 0.0940-0.8457-0.0278 (  3020 PWs)   bands (ev):

   -34.3506  -3.6680  -0.5529   5.4718   5.9994   6.7951   8.5051  10.6852
    11.9080  11.9848  12.8594  13.1481  13.7533  16.2797

          k = 0.7518-0.8457-0.2221 (  3011 PWs)   bands (ev):

   -34.3485  -3.0680   0.0001   4.0026   5.5545   6.4103   8.7995   9.4812
    10.8182  11.5142  13.0846  14.1779  14.3106  16.4433

          k = 0.0940-0.7048 0.0139 (  3013 PWs)   bands (ev):

   -34.3482  -2.8472  -0.1067   3.1091   6.0949   7.5194   8.0116   9.2426
    10.4979  11.9326  13.4127  13.5072  14.5583  17.6014

          k = 0.7518-0.7048-0.1805 (  3005 PWs)   bands (ev):

   -34.3464  -2.3208   0.7478   3.6659   4.6248   5.7503   7.8582   8.7749
    10.3939  11.5552  11.6561  13.2534  16.2688  16.9111

          k = 0.4229-0.5638-0.0416 (  2998 PWs)   bands (ev):

   -34.3425   0.7041   1.4197   2.7116   4.2226   4.3655   6.2680   7.3628
     9.2613   9.2627  10.4552  12.7845  13.9138  16.2391

          k = 0.0940-0.5638 0.0555 (  3005 PWs)   bands (ev):

   -34.3465  -1.5521  -0.3253   2.1042   5.2186   6.3577   8.6682   9.4465
    10.4003  11.5142  13.5608  14.4457  15.0150  16.5922

          k = 0.7518-0.5638-0.1388 (  3009 PWs)   bands (ev):

   -34.3451  -1.1075   0.5788   2.8453   4.6839   6.0890   6.7702   7.6803
     9.6185  11.0260  12.7923  13.7322  15.0567  15.9117

     the Fermi energy is    11.7146 ev

!    total energy              =     -47.96559434 Ry
     estimated scf accuracy    <          2.2E-10 Ry
     smearing contrib. (-TS)   =       0.00056437 Ry
     internal energy E=F+TS    =     -47.96615871 Ry

     The total energy is F=E-TS. E is the sum of the following terms:
     one-electron contribution =      12.80487253 Ry
     hartree contribution      =       3.69998363 Ry
     xc contribution           =     -16.72254897 Ry
     ewald contribution        =     -47.74846590 Ry

     convergence has been achieved in  11 iterations

     Forces acting on atoms (cartesian axes, Ry/au):

     atom    1 type  1   force =     0.00000000   -0.00000000   -0.00000000
     atom    2 type  2   force =    -0.00000000   -0.00000000   -0.04559056
     atom    3 type  2   force =     0.00000000    0.00000000    0.04559056
     atom    4 type  2   force =     0.00000000   -0.00000000   -0.00000000
     atom    5 type  2   force =    -0.00000000    0.00000000    0.00000000
     The non-local contrib.  to forces
     atom    1 type  1   force =     0.00000000    0.00000000    0.00000000
     atom    2 type  2   force =    -0.00000000   -0.00000000   -0.06795595
     atom    3 type  2   force =    -0.00000000    0.00000000    0.06795595
     atom    4 type  2   force =    -0.00000000    0.00000000    0.00000000
     atom    5 type  2   force =    -0.00000000    0.00000000   -0.00000000
     The ionic contribution  to forces
     atom    1 type  1   force =     0.00000000   -0.00000000   -0.00000000
     atom    2 type  2   force =     0.00000000    0.00000000    0.70895191
     atom    3 type  2   force =     0.00000000    0.00000000   -0.70895191
     atom    4 type  2   force =     0.00000000   -0.00000000   -0.00000000
     atom    5 type  2   force =     0.00000000   -0.00000000   -0.00000000
     The local contribution  to forces
     atom    1 type  1   force =     0.00000000    0.00000000    0.00000000
     atom    2 type  2   force =     0.00000000    0.00000000   -0.68952746
     atom    3 type  2   force =    -0.00000000   -0.00000000    0.68952746
     atom    4 type  2   force =     0.00000000    0.00000000    0.00000000
     atom    5 type  2   force =     0.00000000    0.00000000    0.00000000
     The core correction contribution to forces
     atom    1 type  1   force =     0.00000000    0.00000000    0.00000000
     atom    2 type  2   force =    -0.00000000    0.00000000    0.00292489
     atom    3 type  2   force =    -0.00000000   -0.00000000   -0.00292489
     atom    4 type  2   force =     0.00000000    0.00000000    0.00000000
     atom    5 type  2   force =     0.00000000    0.00000000   -0.00000000
     The Hubbard contrib.    to forces
     atom    1 type  1   force =     0.00000000    0.00000000    0.00000000
     atom    2 type  2   force =     0.00000000    0.00000000    0.00000000
     atom    3 type  2   force =     0.00000000    0.00000000    0.00000000
     atom    4 type  2   force =     0.00000000    0.00000000    0.00000000
     atom    5 type  2   force =     0.00000000    0.00000000    0.00000000
     The SCF correction term to forces
     atom    1 type  1   force =     0.00000000    0.00000000    0.00000000
     atom    2 type  2   force =    -0.00000000   -0.00000000    0.00001606
     atom    3 type  2   force =     0.00000000    0.00000000   -0.00001606
     atom    4 type  2   force =    -0.00000000   -0.00000000    0.00000000
     atom    5 type  2   force =     0.00000000    0.00000000    0.00000000

     Total force =     0.064475     Total SCF correction =     0.000023


     Computing stress (Cartesian axis) and pressure

          total   stress  (Ry/bohr**3)                   (kbar)     P=      461.19
   0.00294558   0.00000000   0.00000000          433.31        0.00        0.00
   0.00000000   0.00294558  -0.00000000            0.00      433.31       -0.00
   0.00000000  -0.00000000   0.00351423            0.00       -0.00      516.96

     Energy error            =      3.1E-02 Ry
     Gradient error          =      4.6E-02 Ry/Bohr
     Cell gradient error     =      6.7E+01 kbar

     number of scf cycles    =   3
     number of bfgs steps    =   2

     enthalpy           old  =     -46.6122776833 Ry
     enthalpy           new  =     -46.6436645940 Ry

     CASE: enthalpy          _new < enthalpy          _old

     new trust radius        =       0.0538844113 bohr
ibrav =      7
 celldm(1) =      6.08128382
 celldm(3) =      3.42748881
Input lattice vectors:
     0.50309502    -0.50309502     1.72435256
     0.50309502     0.50309502     1.72435256
    -0.50309502    -0.50309502     1.72435256
New lattice vectors in INITIAL alat:
     0.50309502    -0.50309502     1.72435256
     0.50309502     0.50309502     1.72435256
    -0.50309502    -0.50309502     1.72435256
New lattice vectors in NEW alat (for information only):
     0.50000000    -0.50000000     1.71374441
     0.50000000     0.50000000     1.71374441
    -0.50000000    -0.50000000     1.71374441
Discrepancy in bohr =     0.000000    0.000000    0.000000
     new conv_thr            =       0.0000000005 Ry

     new unit-cell volume =    385.41789 a.u.^3 (    57.11304 Ang^3 )
     density =      3.46811 g/cm^3

CELL_PARAMETERS (alat=  6.04387197)
   0.503095024  -0.503095024   1.724352565
   0.503095024   0.503095024   1.724352565
  -0.503095024  -0.503095024   1.724352565

ATOMIC_POSITIONS (crystal)
Li            0.0000000000       -0.0000000000       -0.0000000000
Si            0.0000000000        0.4022285366        0.4022285366
Si            0.0000000000        0.5977714634        0.5977714634
Si           -0.5000000000        0.7500000000        0.2500000000
Si           -0.5000000000        1.2500000000        0.7500000000



     Writing config-only to output data dir ./output/LiSi.save/
     NEW-OLD atomic charge density approx. for the potential
     extrapolated charge   18.82717, renormalised to   19.00000

     total cpu time spent up to now is       61.2 secs

     Self-consistent Calculation

     iteration #  1     ecut=    60.00 Ry     beta= 0.80
     Davidson diagonalization with overlap
     c_bands:  1 eigenvalues not converged
     ethr =  1.00E-06,  avg # of iterations =  8.9

     total cpu time spent up to now is       64.6 secs

     total energy              =     -47.95343288 Ry
     estimated scf accuracy    <       0.00483480 Ry

     iteration #  2     ecut=    60.00 Ry     beta= 0.80
     Davidson diagonalization with overlap
     ethr =  2.54E-05,  avg # of iterations =  3.4

     total cpu time spent up to now is       66.3 secs

     total energy              =     -47.95206445 Ry
     estimated scf accuracy    <       0.03598131 Ry

     iteration #  3     ecut=    60.00 Ry     beta= 0.80
     Davidson diagonalization with overlap
     ethr =  2.54E-05,  avg # of iterations =  2.6

     total cpu time spent up to now is       67.9 secs

     total energy              =     -47.95700198 Ry
     estimated scf accuracy    <       0.00025938 Ry

     iteration #  4     ecut=    60.00 Ry     beta= 0.80
     Davidson diagonalization with overlap
     ethr =  1.37E-06,  avg # of iterations =  4.3

     total cpu time spent up to now is       69.7 secs

     total energy              =     -47.95710302 Ry
     estimated scf accuracy    <       0.00000588 Ry

     iteration #  5     ecut=    60.00 Ry     beta= 0.80
     Davidson diagonalization with overlap
     ethr =  3.09E-08,  avg # of iterations =  2.6

     total cpu time spent up to now is       71.1 secs

     total energy              =     -47.95710517 Ry
     estimated scf accuracy    <       0.00000006 Ry

     iteration #  6     ecut=    60.00 Ry     beta= 0.80
     Davidson diagonalization with overlap
     ethr =  2.91E-10,  avg # of iterations =  4.4

     total cpu time spent up to now is       73.0 secs

     total energy              =     -47.95710522 Ry
     estimated scf accuracy    <       0.00000001 Ry

     iteration #  7     ecut=    60.00 Ry     beta= 0.80
     Davidson diagonalization with overlap
     ethr =  6.04E-11,  avg # of iterations =  2.3

     total cpu time spent up to now is       74.3 secs

     End of self-consistent calculation

          k = 0.0000 0.0000 0.0000 (  3049 PWs)   bands (ev):

   -34.2220  -4.3555   1.0260   2.1141   7.9192   7.9192  10.6624  11.3522
    11.3522  11.4682  13.1845  13.7961  15.0143  17.6927

          k =-0.3313 0.0000 0.0967 (  3003 PWs)   bands (ev):

   -34.2168  -2.8407   0.8724   2.6118   4.0455   6.6665   9.1850  10.7331
    12.1295  12.6266  13.6048  14.3966  15.7332  16.0740

          k = 0.0000 0.1420 0.0414 (  3012 PWs)   bands (ev):

   -34.2200  -4.0743   1.0225   2.5496   5.8017   8.1525   9.3531  11.2243
    11.6012  13.0830  13.7423  14.7773  15.7278  16.2886

          k =-0.3313 0.1420 0.1381 (  3009 PWs)   bands (ev):

   -34.2160  -2.5183   0.8381   2.7821   4.7514   7.0142   7.1058  10.1717
    10.5042  12.8239  12.9482  14.7829  15.1294  17.0984

          k = 0.3313 0.1420-0.0552 (  3000 PWs)   bands (ev):

   -34.2158  -2.6065   1.3745   2.9167   3.8367   6.5689   7.1600   9.9506
    11.7996  12.7145  14.0089  14.8187  15.9244  16.4656

          k = 0.0000 0.2840 0.0828 (  3009 PWs)   bands (ev):

   -34.2176  -3.2382   1.0413   3.0030   3.8359   7.1664   8.8509  11.2497
    12.1237  12.5167  13.8272  14.7605  15.7442  16.2782

          k =-0.3313 0.2840 0.1795 (  3008 PWs)   bands (ev):

   -34.2140  -1.6501   1.2226   3.3653   4.3059   6.0910   7.3907   7.8525
    10.3148  10.9534  11.3333  13.0891  15.3978  17.1429

          k = 0.3313 0.2840-0.0138 (  3005 PWs)   bands (ev):

   -34.2140  -1.8226   2.1775   3.5768   3.8961   5.0433   6.5555   7.3093
    10.6731  12.4818  13.7339  14.0419  15.1791  16.3870

          k = 0.0000 0.4259 0.1243 (  2988 PWs)   bands (ev):

   -34.2153  -1.8845  -0.0915   2.4382   4.2836   6.3585   9.5197   9.9938
    11.4651  13.0329  13.5465  14.5755  15.1364  16.0236

          k =-0.3313 0.4259 0.2209 (  2999 PWs)   bands (ev):

   -34.2121  -0.2722   1.0219   3.1292   4.4475   5.5444   6.6767   7.3662
     9.5122  10.4045  10.7791  12.7302  14.3655  16.6539

          k = 0.3313 0.4259 0.0276 (  2995 PWs)   bands (ev):

   -34.2121  -0.5311   1.5101   3.8317   4.0415   5.4651   5.8975   6.3134
     9.8602  11.1954  11.9180  13.4619  14.4135  16.3106

[...]

     total energy              =     -47.94812607 Ry
     estimated scf accuracy    <       0.00000028 Ry

     iteration #  8     ecut=    60.00 Ry     beta= 0.80
     Davidson diagonalization with overlap
     ethr =  1.46E-09,  avg # of iterations =  2.1

     total cpu time spent up to now is      134.3 secs

     total energy              =     -47.94812613 Ry
     estimated scf accuracy    <          2.3E-09 Ry

     iteration #  9     ecut=    60.00 Ry     beta= 0.80
     Davidson diagonalization with overlap
     ethr =  1.22E-11,  avg # of iterations =  4.1

     total cpu time spent up to now is      136.1 secs

     total energy              =     -47.94812613 Ry
     estimated scf accuracy    <          2.2E-10 Ry

     iteration # 10     ecut=    60.00 Ry     beta= 0.80
     Davidson diagonalization with overlap
     ethr =  1.15E-12,  avg # of iterations =  1.9

     total cpu time spent up to now is      137.3 secs

     End of self-consistent calculation

          k = 0.0000 0.0000 0.0000 (  3049 PWs)   bands (ev):

   -34.1239  -4.2957   1.0761   2.1065   8.0873   8.0873  10.7922  11.4820
    11.4820  11.6955  13.3335  13.7640  15.0013  17.8320

          k =-0.3328 0.0000 0.0965 (  3002 PWs)   bands (ev):

   -34.1186  -2.7670   0.9513   2.6760   4.0859   6.7400   9.3637  10.7791
    12.3127  12.7721  13.6292  14.5413  15.8543  16.2003

          k = 0.0000 0.1426 0.0413 (  3009 PWs)   bands (ev):

   -34.1219  -4.0118   1.0687   2.5530   5.9420   8.3225   9.4619  11.3892
    11.7365  13.1188  13.9035  14.9180  15.7583  16.3451

          k =-0.3328 0.1426 0.1378 (  3003 PWs)   bands (ev):

   -34.1176  -2.4417   0.9108   2.8621   4.7950   7.0916   7.2559  10.3011
    10.5712  12.9480  12.9680  14.9316  15.2508  17.1973

          k = 0.3328 0.1426-0.0551 (  2995 PWs)   bands (ev):

   -34.1174  -2.5305   1.4673   2.9612   3.8930   6.6453   7.3130  10.1050
    11.8347  12.8483  14.0934  14.8605  16.0482  16.5968

          k = 0.0000 0.2853 0.0827 (  3009 PWs)   bands (ev):

   -34.1195  -3.1681   1.1026   3.0706   3.8876   7.2502   9.0266  11.3276
    12.2873  12.6340  13.8509  14.9271  15.9065  16.3534

          k =-0.3328 0.2853 0.1791 (  3005 PWs)   bands (ev):

   -34.1155  -1.5655   1.2980   3.4718   4.4131   6.1507   7.4949   7.9842
    10.3657  11.0373  11.3866  13.1294  15.5097  17.2180

          k = 0.3328 0.2853-0.0138 (  3001 PWs)   bands (ev):

   -34.1155  -1.7393   2.2857   3.6010   4.0223   5.1304   6.6400   7.4436
    10.7772  12.5185  13.8643  14.0860  15.2436  16.4589

          k = 0.0000 0.4279 0.1240 (  2987 PWs)   bands (ev):

   -34.1171  -1.8022   0.0041   2.4766   4.3480   6.4093   9.5436  10.1796
    11.6631  13.1260  13.6319  14.6985  15.2599  16.1753

          k =-0.3328 0.4279 0.2205 (  2998 PWs)   bands (ev):

   -34.1136  -0.1749   1.1229   3.2207   4.5414   5.6829   6.7596   7.4587
     9.5545  10.4557  10.8482  12.7847  14.4338  16.7121

          k = 0.3328 0.4279 0.0276 (  2988 PWs)   bands (ev):

   -34.1134  -0.4363   1.6224   3.9048   4.1573   5.5693   5.9826   6.3995
     9.9240  11.2534  12.0184  13.5123  14.4638  16.3774

          k = 0.1426-0.1426 0.0000 (  3025 PWs)   bands (ev):

   -34.1212  -3.7472   1.5236   2.4472   6.1505   6.2688   9.1171  10.2382
    13.5764  13.9197  14.1900  15.3395  15.7921  15.7959

          k =-0.1902-0.1426 0.0965 (  3011 PWs)   bands (ev):

   -34.1202  -3.4839   0.9028   3.5950   5.2711   6.3602   8.8152  10.2612
    12.0713  13.9189  14.4742  14.5576  15.6019  15.6830

          k = 0.4755-0.1426-0.0965 (  2993 PWs)   bands (ev):

   -34.1161  -1.0526  -0.2345   2.8070   4.4815   6.3913   8.5921   9.0733
     9.8065  12.8783  13.3885  14.8615  15.1469  16.9469

          k =-0.1902-0.0000 0.1378 (  3013 PWs)   bands (ev):

   -34.1212  -3.7136   0.3198   4.0274   5.0128   8.4301   9.0393  10.6816
    11.9054  12.3519  13.5976  15.2331  15.7615  15.8548

          k = 0.4755-0.0000-0.0551 (  2989 PWs)   bands (ev):

   -34.1169  -1.3612  -0.4530   2.5601   4.3824   5.9611  10.0923  10.7363
    11.0722  12.0978  14.2611  14.7541  14.9627  16.8677

          k = 0.1426 0.1426 0.0827 (  3018 PWs)   bands (ev):

   -34.1210  -3.7097   0.8836   3.2812   6.1379   6.2117   9.3309  10.3606
    12.2922  14.0062  14.1209  15.1251  15.1998  16.0277

          k =-0.1902 0.1426 0.1791 (  3012 PWs)   bands (ev):

   -34.1201  -3.3865   0.2324   4.7257   5.3473   6.3152   9.3976  10.0547
    10.9777  12.7358  13.8950  14.4778  15.1171  15.5455

          k = 0.4755 0.1426-0.0138 (  2993 PWs)   bands (ev):

   -34.1161  -1.1070  -0.1560   2.7967   4.7000   5.8540   8.6802   9.0180
    10.8282  11.9380  12.8369  15.2496  16.2458  16.8452

          k = 0.1426 0.2853 0.1240 (  3003 PWs)   bands (ev):

   -34.1184  -2.8486   0.9760   3.3988   4.5466   6.8884   7.5854  10.3963
    11.1840  13.0953  13.3288  14.7812  15.3657  17.4501

          k =-0.1902 0.2853 0.2205 (  3007 PWs)   bands (ev):

   -34.1178  -2.5121   0.5289   3.5775   5.5394   6.3880   8.3068   9.7013
    10.1542  11.3246  12.5956  13.4602  16.1805  17.1089

          k = 0.4755 0.2853 0.0276 (  2998 PWs)   bands (ev):

   -34.1141  -0.3011   0.6428   3.4736   4.9494   5.7279   6.5053   6.7359
    10.3484  10.9688  11.9705  13.3858  14.5031  16.8780

          k = 0.1426-0.5705-0.1240 (  3002 PWs)   bands (ev):

   -34.1165  -1.4640   0.1477   2.5811   4.8348   6.7429   8.0777   9.3666
     9.7967  12.8544  13.1178  14.7068  15.2545  16.9881

          k =-0.1902-0.5705-0.0276 (  3017 PWs)   bands (ev):

   -34.1163  -1.1204   0.1320   2.5530   5.8209   6.3259   7.3607   8.8724
    10.0803  11.1800  12.3762  13.4518  15.9416  16.9674

          k = 0.4755-0.5705-0.2205 (  2986 PWs)   bands (ev):

   -34.1121   0.9827   1.8424   3.3437   3.5286   4.9198   6.1062   6.9044
     9.3327  10.0036  11.0343  12.3559  14.9808  15.7892

          k = 0.1426-0.4279-0.0827 (  2987 PWs)   bands (ev):

   -34.1162  -1.5823   0.3813   2.8522   4.3398   6.2211   8.1399   9.5330
    10.3555  12.7391  13.6052  14.9489  15.3931  16.7273

          k =-0.1902-0.4279 0.0138 (  2984 PWs)   bands (ev):

   -34.1155  -1.4162   0.6880   3.1678   4.3575   5.9320   7.3127   8.5477
    11.3095  11.8970  12.7060  14.9501  15.7139  16.9645

          k = 0.4755-0.4279-0.1791 (  2995 PWs)   bands (ev):

   -34.1123   1.1367   1.6353   3.1341   3.7869   4.7936   6.3972   6.8736
     9.3574  10.2108  10.7099  11.9792  14.8893  16.2404

          k = 0.1426-0.2853-0.0413 (  3003 PWs)   bands (ev):

   -34.1184  -2.9241   1.6905   3.0490   3.9099   6.9508   7.2002  10.1504
    12.5853  13.2594  14.2151  14.9235  16.1757  16.5150

          k =-0.1902-0.2853 0.0551 (  3001 PWs)   bands (ev):

   -34.1177  -2.7044   1.7479   3.3035   4.1310   6.0560   7.2706   9.3133
    12.4356  12.5740  14.3678  15.0696  15.7339  16.7262

          k = 0.4755-0.2853-0.1378 (  2991 PWs)   bands (ev):

   -34.1139  -0.1931   0.4934   3.4538   4.7464   5.7981   6.6758   7.2864
     9.5492  10.7067  12.3540  13.4923  14.9480  15.7768

          k = 0.2853-0.2853 0.0000 (  3006 PWs)   bands (ev):

   -34.1163  -2.1243   2.3828   3.4149   4.2540   4.8891   7.0197   7.8149
    11.2064  12.9745  14.2514  14.4887  15.4357  16.4244

          k =-0.0475-0.2853 0.0965 (  3011 PWs)   bands (ev):

   -34.1194  -3.1240   1.0067   3.1421   4.0430   7.3262   8.6355  11.2499
    11.9873  12.9042  13.6587  14.6693  16.2793  16.6458

          k = 0.6181-0.2853-0.0965 (  3002 PWs)   bands (ev):

   -34.1148  -1.0999   1.1786   3.1087   4.7416   6.1758   7.1804   7.8143
     9.8290  10.9038  11.3954  12.9526  15.1420  16.9344

          k =-0.0475-0.1426 0.1378 (  3019 PWs)   bands (ev):

   -34.1219  -3.8972   0.1952   3.9764   5.9081   7.8548   9.8628  10.7144
    11.9284  12.1026  13.7841  14.4156  15.4683  16.0699

          k = 0.6181-0.1426-0.0551 (  3011 PWs)   bands (ev):

   -34.1172  -1.8649   0.3170   2.4283   5.7980   6.9396   7.6903   9.5071
    10.3261  11.3276  13.1752  14.1830  15.5690  16.8690

          k =-0.0475 0.0000 0.1791 (  3024 PWs)   bands (ev):

   -34.1231  -4.1265  -0.3122   4.5129   7.5700   7.9805   9.5333  11.3272
    11.7141  12.0151  12.3908  14.2844  15.1657  15.3112

          k = 0.6181-0.0000-0.0138 (  3006 PWs)   bands (ev):

   -34.1180  -2.1136  -0.0071   2.1718   6.0782   6.5218   9.6210   9.7559
    10.3177  12.4280  13.2101  15.0851  16.2297  16.3872

          k =-0.0475 0.1426 0.2205 (  3020 PWs)   bands (ev):

   -34.1219  -3.8051  -0.3248   5.2507   5.9308   7.7864   8.9766  10.6009
    11.8277  12.6211  13.1610  13.9219  14.5479  16.1870

          k = 0.6181 0.1426 0.0276 (  3009 PWs)   bands (ev):

   -34.1171  -1.8431   0.2632   2.4054   6.0622   6.7904   7.7019   9.6724
    10.3141  10.9485  13.2683  14.0265  15.5929  16.7957

          k = 0.2853-0.7132-0.1240 (  2995 PWs)   bands (ev):

   -34.1160  -1.9752   1.2402   4.0669   4.1265   5.8681   7.8293   8.2555
    10.8116  11.3748  11.6444  13.4073  16.0041  17.4613

          k =-0.0475-0.7132-0.0276 (  3012 PWs)   bands (ev):

   -34.1194  -2.9426   0.0368   3.1700   6.1568   8.1007   8.5113   9.1355
    10.7462  12.9520  12.9615  14.4872  15.6574  17.1213

          k = 0.6181-0.7132-0.2205 (  3002 PWs)   bands (ev):

   -34.1148  -1.0610   1.0781   3.0614   4.7556   6.4071   7.2316   7.9575
     9.7173  10.9359  11.0866  12.5960  15.0698  17.3653

          k = 0.2853-0.5705-0.0827 (  2994 PWs)   bands (ev):

   -34.1142  -0.5829   0.8081   3.0813   5.0433   5.9042   6.9751   7.5852
     9.5791  10.8618  11.5464  12.9099  14.8941  16.6954

          k =-0.0475-0.5705 0.0138 (  3010 PWs)   bands (ev):

   -34.1175  -1.5711  -0.3205   2.1710   5.7018   6.0737   9.6965  10.0870
    10.5227  11.6117  13.9458  14.8133  16.0863  16.2614

          k = 0.6181-0.5705-0.1791 (  2994 PWs)   bands (ev):

   -34.1130   0.1921   1.5958   3.2172   4.3385   5.0317   6.6152   7.1014
     9.5998  10.2286  10.7231  12.6735  14.6733  16.1965

          k = 0.2853-0.4279-0.0413 (  2997 PWs)   bands (ev):

   -34.1143  -0.8104   1.2452   3.6346   4.5096   5.8172   6.1418   6.9375
    10.4302  11.1826  12.7231  13.6711  14.6928  16.4446

          k =-0.0475-0.4279 0.0551 (  2990 PWs)   bands (ev):

   -34.1171  -1.8492   0.1978   2.7035   4.0675   5.9543   9.8348  10.6045
    11.2014  12.6190  14.1856  14.7414  15.0323  16.6117

          k = 0.6181-0.4279-0.1378 (  2994 PWs)   bands (ev):

   -34.1130   0.1416   1.6868   3.2789   4.3367   4.9895   6.5103   6.9278
     9.6648  10.2001  11.0907  12.5784  14.8856  16.2245

          k = 0.4279-0.4279 0.0000 (  2986 PWs)   bands (ev):

   -34.1123   0.4615   2.2166   3.1821   3.9236   5.0126   5.9520   6.5668
     9.3520  10.5155  11.1078  13.2412  14.7032  15.4846

          k = 0.0951-0.4279 0.0965 (  2991 PWs)   bands (ev):

   -34.1168  -1.7178   0.1991   2.6749   4.2877   6.2658   8.9866  10.0634
    10.4982  13.4715  13.6672  14.5360  15.7950  16.1134

          k = 0.7607-0.4279-0.0965 (  3001 PWs)   bands (ev):

   -34.1151  -0.9351   0.5342   2.8898   5.2409   6.2438   7.1433   8.0667
     9.5368  11.4393  12.2695  13.2110  15.4771  16.4738

          k = 0.0951-0.2853 0.1378 (  3018 PWs)   bands (ev):

   -34.1193  -2.9838   0.7389   3.2765   4.6148   7.5737   7.8252  10.6865
    11.4293  12.8271  13.8202  14.0561  15.9052  17.3764

          k = 0.7607-0.2853-0.0551 (  3007 PWs)   bands (ev):

   -34.1170  -2.2231   0.6788   3.8028   4.8395   6.5445   8.4508   9.2767
     9.8179  10.9311  11.9990  12.7664  16.4270  17.4604

          k = 0.0951-0.1426 0.1791 (  3018 PWs)   bands (ev):

   -34.1215  -3.7558  -0.0351   4.6942   5.9755   7.0092   9.8165  10.2830
    11.6390  12.7712  13.5902  14.1476  14.6097  16.5829

          k = 0.7607-0.1426-0.0138 (  3009 PWs)   bands (ev):

   -34.1193  -3.0291   0.0470   4.1558   6.0662   6.8011   8.8059   9.3206
    11.1762  11.4104  13.1787  14.3846  14.6760  16.8624

          k = 0.0951 0.0000 0.2205 (  3024 PWs)   bands (ev):

   -34.1228  -3.9913  -0.4604   5.2376   6.7441   8.0301   8.8225  11.2359
    11.6335  12.6218  12.8624  13.7683  14.7212  15.3316

          k = 0.7607-0.0000 0.0276 (  3030 PWs)   bands (ev):

   -34.1208  -3.3126  -0.1533   3.9180   6.1114   8.5821   8.6282   9.1427
    10.9903  12.4486  13.4610  14.5505  16.4086  16.4209

          k = 0.0951-0.8558-0.0276 (  3021 PWs)   bands (ev):

   -34.1216  -3.6842  -0.3771   5.6210   6.1817   7.0152   8.4397  10.8887
    12.1889  12.2510  13.2104  13.5488  14.1598  16.6151

          k = 0.7607-0.8558-0.2205 (  3009 PWs)   bands (ev):

   -34.1193  -3.0639   0.1886   4.1594   5.7075   6.6090   8.9809   9.4835
    11.0936  11.7408  13.4448  14.4571  14.6974  16.8631

          k = 0.0951-0.7132 0.0138 (  3014 PWs)   bands (ev):

   -34.1191  -2.8450   0.0957   3.2483   6.2578   7.7641   8.1495   9.1876
    10.7361  12.2186  13.7964  13.9435  14.8231  18.0214

          k = 0.7607-0.7132-0.1791 (  3003 PWs)   bands (ev):

   -34.1169  -2.2884   0.9454   3.8234   4.8032   5.9108   8.0506   9.0108
    10.5426  11.7518  11.9174  13.4094  16.5580  17.2693

          k = 0.4279-0.5705-0.0413 (  2993 PWs)   bands (ev):

   -34.1125   0.7931   1.6234   2.9039   4.4434   4.5413   6.5609   7.4983
     9.4107   9.4850  10.6036  12.9062  13.9867  16.4241

          k = 0.0951-0.5705 0.0551 (  3005 PWs)   bands (ev):

   -34.1171  -1.5118  -0.1797   2.2882   5.3631   6.4778   8.9335   9.5717
    10.6513  11.5955  13.9871  14.8258  15.2976  16.9952

          k = 0.7607-0.5705-0.1378 (  3002 PWs)   bands (ev):

   -34.1152  -1.0270   0.6999   3.0716   4.8640   6.2700   6.9097   7.9296
     9.8086  11.3078  13.0187  13.8485  15.1544  16.0352

     the Fermi energy is    11.9747 ev

!    total energy              =     -47.94812613 Ry
     estimated scf accuracy    <          1.6E-11 Ry
     smearing contrib. (-TS)   =       0.00019654 Ry
     internal energy E=F+TS    =     -47.94832267 Ry

     The total energy is F=E-TS. E is the sum of the following terms:
     one-electron contribution =      13.03142853 Ry
     hartree contribution      =       3.74410684 Ry
     xc contribution           =     -16.77659515 Ry
     ewald contribution        =     -47.94726289 Ry

     convergence has been achieved in  10 iterations

     Forces acting on atoms (cartesian axes, Ry/au):

     atom    1 type  1   force =    -0.00000000   -0.00000000    0.00000000
     atom    2 type  2   force =     0.00000000    0.00000000   -0.00019188
     atom    3 type  2   force =    -0.00000000    0.00000000    0.00019188
     atom    4 type  2   force =     0.00000000    0.00000000   -0.00000000
     atom    5 type  2   force =    -0.00000000   -0.00000000    0.00000000
     The non-local contrib.  to forces
     atom    1 type  1   force =     0.00000000    0.00000000    0.00000000
     atom    2 type  2   force =     0.00000000    0.00000000   -0.02211881
     atom    3 type  2   force =     0.00000000   -0.00000000    0.02211881
     atom    4 type  2   force =     0.00000000   -0.00000000   -0.00000000
     atom    5 type  2   force =     0.00000000    0.00000000   -0.00000000
     The ionic contribution  to forces
     atom    1 type  1   force =    -0.00000000   -0.00000000   -0.00000000
     atom    2 type  2   force =     0.00000000   -0.00000000    0.92444937
     atom    3 type  2   force =     0.00000000    0.00000000   -0.92444937
     atom    4 type  2   force =    -0.00000000   -0.00000000    0.00000000
     atom    5 type  2   force =     0.00000000    0.00000000    0.00000000
     The local contribution  to forces
     atom    1 type  1   force =     0.00000000   -0.00000000    0.00000000
     atom    2 type  2   force =    -0.00000000    0.00000000   -0.90183363
     atom    3 type  2   force =     0.00000000   -0.00000000    0.90183363
     atom    4 type  2   force =    -0.00000000    0.00000000    0.00000000
     atom    5 type  2   force =     0.00000000   -0.00000000    0.00000000
     The core correction contribution to forces
     atom    1 type  1   force =     0.00000000    0.00000000    0.00000000
     atom    2 type  2   force =    -0.00000000   -0.00000000   -0.00068447
     atom    3 type  2   force =    -0.00000000    0.00000000    0.00068447
     atom    4 type  2   force =     0.00000000    0.00000000   -0.00000000
     atom    5 type  2   force =    -0.00000000   -0.00000000   -0.00000000
     The Hubbard contrib.    to forces
     atom    1 type  1   force =     0.00000000    0.00000000    0.00000000
     atom    2 type  2   force =     0.00000000    0.00000000    0.00000000
     atom    3 type  2   force =     0.00000000    0.00000000    0.00000000
     atom    4 type  2   force =     0.00000000    0.00000000    0.00000000
     atom    5 type  2   force =     0.00000000    0.00000000    0.00000000
     The SCF correction term to forces
     atom    1 type  1   force =    -0.00000000    0.00000000   -0.00000000
     atom    2 type  2   force =    -0.00000000   -0.00000000   -0.00000434
     atom    3 type  2   force =    -0.00000000    0.00000000    0.00000434
     atom    4 type  2   force =    -0.00000000    0.00000000   -0.00000000
     atom    5 type  2   force =     0.00000000   -0.00000000   -0.00000000

     Total force =     0.000271     Total SCF correction =     0.000006


     Computing stress (Cartesian axis) and pressure

          total   stress  (Ry/bohr**3)                   (kbar)     P=      500.05
   0.00339853  -0.00000000  -0.00000000          499.94       -0.00       -0.00
  -0.00000000   0.00339853   0.00000000           -0.00      499.94        0.00
  -0.00000000  -0.00000000   0.00340071           -0.00       -0.00      500.26


     Writing all to output data dir ./output/LiSi.save/

     init_run     :      2.01s CPU      2.73s WALL (       2 calls)
     electrons    :    117.54s CPU    122.46s WALL (       8 calls)
     update_pot   :      1.67s CPU      1.70s WALL (       6 calls)
     forces       :      1.85s CPU      1.90s WALL (       8 calls)
     stress       :      9.10s CPU      9.42s WALL (       8 calls)

     Called by init_run:
     wfcinit      :      1.21s CPU      1.23s WALL (       2 calls)
     potinit      :      0.27s CPU      0.64s WALL (       2 calls)
     hinit0       :      0.50s CPU      0.70s WALL (       2 calls)

     Called by electrons:
     c_bands      :    101.58s CPU    105.60s WALL (      69 calls)
     sum_band     :     14.69s CPU     15.06s WALL (      69 calls)
     v_of_rho     :      1.31s CPU      2.13s WALL (      74 calls)
     mix_rho      :      0.11s CPU      0.12s WALL (      69 calls)

     Called by c_bands:
     init_us_2    :      1.27s CPU      1.36s WALL (   10140 calls)
     init_us_2:cp :      1.25s CPU      1.35s WALL (   10140 calls)
     cegterg      :     97.78s CPU    100.34s WALL (    4485 calls)

     Called by *egterg:
     cdiaghg      :      4.43s CPU      4.58s WALL (   20267 calls)
     h_psi        :     89.61s CPU     91.81s WALL (   20982 calls)
     g_psi        :      0.18s CPU      0.19s WALL (   16367 calls)

     Called by h_psi:
     h_psi:calbec :      3.39s CPU      3.50s WALL (   20982 calls)
     vloc_psi     :     83.23s CPU     85.24s WALL (   20982 calls)
     add_vuspsi   :      2.82s CPU      2.89s WALL (   20982 calls)

     General routines
     calbec       :      3.97s CPU      4.09s WALL (   23582 calls)
     fft          :      1.12s CPU      2.18s WALL (     941 calls)
     ffts         :      0.08s CPU      0.10s WALL (      69 calls)
     fftw         :     83.85s CPU     85.78s WALL (  448106 calls)

     Parallel routines

     PWSCF        :   2m12.52s CPU   2m19.00s WALL


   This run was terminated on:  14: 0:21  22Jan2025            

=------------------------------------------------------------------------------=
   JOB DONE.
=------------------------------------------------------------------------------=
