
     Program PWSCF v.7.2 starts on 29Dec2024 at 19:59:52 

     This program is part of the open-source Quantum ESPRESSO suite
     for quantum simulation of materials; please cite
         "P. Giannozzi et al., J. Phys.:Condens. Matter 21 395502 (2009);
         "P. Giannozzi et al., J. Phys.:Condens. Matter 29 465901 (2017);
         "P. Giannozzi et al., J. Chem. Phys. 152 154105 (2020);
          URL http://www.quantum-espresso.org", 
     in publications or presentations arising from this work. More details at
     http://www.quantum-espresso.org/quote

     Parallel version (MPI & OpenMP), running on       8 processor cores
     Number of MPI processes:                 8
     Threads/MPI process:                     1

     MPI processes distributed on     1 nodes
     482192 MiB available memory on the printing compute node when the environment starts

     Waiting for input...
     Reading input from standard input

     Current dimensions of program PWSCF are:
     Max number of different atomic species (ntypx) = 10
     Max number of k-points (npk) =  40000
     Max angular momentum in pseudopotentials (lmaxx) =  4

     R & G space division:  proc/nbgrp/npool/nimage =       8
     Subspace diagonalization in iterative solution of the eigenvalue problem:
     a serial algorithm will be used


     Parallelization info
     --------------------
     sticks:   dense  smooth     PW     G-vecs:    dense   smooth      PW
     Min          97      97     28                 5321     5321     834
     Max          98      98     29                 5326     5326     840
     Sum         777     777    225                42587    42587    6701

     Using Slab Decomposition



     bravais-lattice index     =            6
     lattice parameter (alat)  =       5.5231  a.u.
     unit-cell volume          =     440.7329 (a.u.)^3
     number of atoms/cell      =            5
     number of atomic types    =            2
     number of electrons       =        16.00
     number of Kohn-Sham states=           12
     kinetic-energy cutoff     =      80.0000  Ry
     charge density cutoff     =     320.0000  Ry
     scf convergence threshold =      1.0E-08
     mixing beta               =       0.7000
     number of iterations used =            8  plain     mixing
     energy convergence thresh.=      1.0E-04
     force convergence thresh. =      1.0E-03
     press convergence thresh. =      1.0E+00
     Exchange-correlation= PBE
                           (   1   4   3   4   0   0   0)
     nstep                     =           50


     celldm(1)=   5.523110  celldm(2)=   0.000000  celldm(3)=   2.615919
     celldm(4)=   0.000000  celldm(5)=   0.000000  celldm(6)=   0.000000

     crystal axes: (cart. coord. in units of alat)
               a(1) = (   1.000000   0.000000   0.000000 )  
               a(2) = (   0.000000   1.000000   0.000000 )  
               a(3) = (   0.000000   0.000000   2.615919 )  

     reciprocal axes: (cart. coord. in units 2 pi/alat)
               b(1) = (  1.000000  0.000000  0.000000 )  
               b(2) = (  0.000000  1.000000  0.000000 )  
               b(3) = (  0.000000  0.000000  0.382275 )  


     PseudoPot. # 1 for Li read from file:
     ../pseudo/Li_ONCV_PBE_sr.upf
     MD5 check sum: 50ff420e78310ffa21704f3361e624a4
     Pseudo is Norm-conserving, Zval =  3.0
     Generated using ONCVPSP code by D. R. Hamann
     Using radial grid of 1944 points,  4 beta functions with: 
                l(1) =   0
                l(2) =   0
                l(3) =   1
                l(4) =   1

     PseudoPot. # 2 for Si read from file:
     ../pseudo/Si_ONCV_PBE_sr.upf
     MD5 check sum: e543d271109d17c80368dfa7c482276d
     Pseudo is Norm-conserving + core correction, Zval =  4.0
     Generated using ONCVPSP code by D. R. Hamann
     Using radial grid of 1510 points,  6 beta functions with: 
                l(1) =   0
                l(2) =   0
                l(3) =   1
                l(4) =   1
                l(5) =   2
                l(6) =   2

     atomic species   valence    mass     pseudopotential
        Li             3.00     6.94100     Li( 1.00)
        Si             4.00    28.08550     Si( 1.00)

     16 Sym. Ops., with inversion, found



   Cartesian axes

     site n.     atom                  positions (alat units)
         1           Li  tau(   1) = (   0.0000000   0.0000000   0.6402200  )
         2           Li  tau(   2) = (   0.0000000   0.0000000   1.9756989  )
         3           Li  tau(   3) = (   0.5000000   0.5000000   0.0000000  )
         4           Li  tau(   4) = (   0.5000000   0.5000000   1.3079594  )
         5           Si  tau(   5) = (   0.0000000   0.0000000   1.3079594  )

     number of k points=    30  Marzari-Vanderbilt smearing, width (Ry)=  0.0200
                       cart. coord. in units 2pi/alat
        k(    1) = (   0.0000000   0.0000000   0.0000000), wk =   0.0082305
        k(    2) = (   0.0000000   0.0000000   0.1274250), wk =   0.0164609
        k(    3) = (   0.0000000   0.1111111   0.0000000), wk =   0.0329218
        k(    4) = (   0.0000000   0.1111111   0.1274250), wk =   0.0658436
        k(    5) = (   0.0000000   0.2222222   0.0000000), wk =   0.0329218
        k(    6) = (   0.0000000   0.2222222   0.1274250), wk =   0.0658436
        k(    7) = (   0.0000000   0.3333333   0.0000000), wk =   0.0329218
        k(    8) = (   0.0000000   0.3333333   0.1274250), wk =   0.0658436
        k(    9) = (   0.0000000   0.4444444   0.0000000), wk =   0.0329218
        k(   10) = (   0.0000000   0.4444444   0.1274250), wk =   0.0658436
        k(   11) = (   0.1111111   0.1111111   0.0000000), wk =   0.0329218
        k(   12) = (   0.1111111   0.1111111   0.1274250), wk =   0.0658436
        k(   13) = (   0.1111111   0.2222222   0.0000000), wk =   0.0658436
        k(   14) = (   0.1111111   0.2222222   0.1274250), wk =   0.1316872
        k(   15) = (   0.1111111   0.3333333   0.0000000), wk =   0.0658436
        k(   16) = (   0.1111111   0.3333333   0.1274250), wk =   0.1316872
        k(   17) = (   0.1111111   0.4444444   0.0000000), wk =   0.0658436
        k(   18) = (   0.1111111   0.4444444   0.1274250), wk =   0.1316872
        k(   19) = (   0.2222222   0.2222222   0.0000000), wk =   0.0329218
        k(   20) = (   0.2222222   0.2222222   0.1274250), wk =   0.0658436
        k(   21) = (   0.2222222   0.3333333   0.0000000), wk =   0.0658436
        k(   22) = (   0.2222222   0.3333333   0.1274250), wk =   0.1316872
        k(   23) = (   0.2222222   0.4444444   0.0000000), wk =   0.0658436
        k(   24) = (   0.2222222   0.4444444   0.1274250), wk =   0.1316872
        k(   25) = (   0.3333333   0.3333333   0.0000000), wk =   0.0329218
        k(   26) = (   0.3333333   0.3333333   0.1274250), wk =   0.0658436
        k(   27) = (   0.3333333   0.4444444   0.0000000), wk =   0.0658436
        k(   28) = (   0.3333333   0.4444444   0.1274250), wk =   0.1316872
        k(   29) = (   0.4444444   0.4444444   0.0000000), wk =   0.0329218
        k(   30) = (   0.4444444   0.4444444   0.1274250), wk =   0.0658436

     Dense  grid:    42587 G-vectors     FFT dimensions: (  32,  32,  90)

     Estimated max dynamical RAM per process >      19.51 MB

     Estimated total dynamical RAM >     156.11 MB

     Initial potential from superposition of free atoms

     starting charge      15.9811, renormalised to      16.0000
     Starting wfcs are   12 randomized atomic wfcs

     total cpu time spent up to now is        1.2 secs

     Self-consistent Calculation

     iteration #  1     ecut=    80.00 Ry     beta= 0.70
     Davidson diagonalization with overlap
     ethr =  1.00E-02,  avg # of iterations =  6.8

     total cpu time spent up to now is        2.2 secs

     total energy              =     -65.21882535 Ry
     estimated scf accuracy    <       0.86909869 Ry

     iteration #  2     ecut=    80.00 Ry     beta= 0.70
     Davidson diagonalization with overlap
     ethr =  5.43E-03,  avg # of iterations =  4.4

     total cpu time spent up to now is        2.8 secs

     total energy              =     -64.54696789 Ry
     estimated scf accuracy    <      12.26380210 Ry

     iteration #  3     ecut=    80.00 Ry     beta= 0.70
     Davidson diagonalization with overlap
     ethr =  5.43E-03,  avg # of iterations =  3.7

     total cpu time spent up to now is        3.4 secs

     total energy              =     -65.82489312 Ry
     estimated scf accuracy    <       0.01433219 Ry

     iteration #  4     ecut=    80.00 Ry     beta= 0.70
     Davidson diagonalization with overlap
     ethr =  8.96E-05,  avg # of iterations =  5.1

     total cpu time spent up to now is        3.8 secs

     total energy              =     -65.82714393 Ry
     estimated scf accuracy    <       0.00124976 Ry

     iteration #  5     ecut=    80.00 Ry     beta= 0.70
     Davidson diagonalization with overlap
     ethr =  7.81E-06,  avg # of iterations =  3.7

     total cpu time spent up to now is        4.3 secs

     total energy              =     -65.82733922 Ry
     estimated scf accuracy    <       0.00008348 Ry

     iteration #  6     ecut=    80.00 Ry     beta= 0.70
     Davidson diagonalization with overlap
     ethr =  5.22E-07,  avg # of iterations =  2.0

     total cpu time spent up to now is        4.6 secs

     total energy              =     -65.82734607 Ry
     estimated scf accuracy    <       0.00000762 Ry

     iteration #  7     ecut=    80.00 Ry     beta= 0.70
     Davidson diagonalization with overlap
     ethr =  4.77E-08,  avg # of iterations =  2.0

     total cpu time spent up to now is        5.1 secs

     total energy              =     -65.82734716 Ry
     estimated scf accuracy    <       0.00000018 Ry

     iteration #  8     ecut=    80.00 Ry     beta= 0.70
     Davidson diagonalization with overlap
     ethr =  1.13E-09,  avg # of iterations =  3.0

     total cpu time spent up to now is        5.6 secs

     total energy              =     -65.82734721 Ry
     estimated scf accuracy    <       0.00000004 Ry

     iteration #  9     ecut=    80.00 Ry     beta= 0.70
     Davidson diagonalization with overlap
     ethr =  2.37E-10,  avg # of iterations =  2.0

     total cpu time spent up to now is        5.9 secs

     End of self-consistent calculation

          k = 0.0000 0.0000 0.0000 (  5289 PWs)   bands (ev):

   -41.8831 -41.8203 -41.8170 -41.6837  -5.6328  -0.1542   1.2709   4.6669
     6.9012   6.9012   8.5676   9.7841

          k = 0.0000 0.0000 0.1274 (  5321 PWs)   bands (ev):

   -41.8826 -41.8256 -41.8121 -41.6838  -5.6327  -0.2685   1.6901   3.9095
     6.9046   6.9046   9.7884  10.0052

          k = 0.0000 0.1111 0.0000 (  5301 PWs)   bands (ev):

   -41.8808 -41.8190 -41.8162 -41.6821  -5.5069   0.0195   1.4057   4.8084
     5.3763   7.0866   8.6344  11.2844

          k = 0.0000 0.1111 0.1274 (  5316 PWs)   bands (ev):

   -41.8803 -41.8238 -41.8117 -41.6822  -5.5069  -0.0980   1.8347   3.9761
     5.5026   7.0900   9.7950  11.2983

          k = 0.0000 0.2222 0.0000 (  5332 PWs)   bands (ev):

   -41.8748 -41.8157 -41.8141 -41.6780  -5.1451   0.5385   1.7436   3.3581
     5.1420   7.6382   8.3424   9.4960

          k = 0.0000 0.2222 0.1274 (  5313 PWs)   bands (ev):

   -41.8746 -41.8192 -41.8108 -41.6780  -5.1451   0.4124   2.2057   3.1150
     4.7756   7.6415   8.0647  10.7820

          k = 0.0000 0.3333 0.0000 (  5326 PWs)   bands (ev):

   -41.8678 -41.8120 -41.8120 -41.6733  -4.6166   1.2160   1.3947   2.8348
     5.0929   7.0178   8.2147   8.5314

          k = 0.0000 0.3333 0.1274 (  5316 PWs)   bands (ev):

   -41.8677 -41.8141 -41.8100 -41.6733  -4.6165   1.2219   1.3205   3.0499
     5.1777   6.1135   8.5343   9.1326

          k = 0.0000 0.4444 0.0000 (  5342 PWs)   bands (ev):

   -41.8631 -41.8108 -41.8096 -41.6702  -4.1393   0.2000   2.5628   3.6311
     3.9498   5.6075   8.7524  10.2620

          k = 0.0000 0.4444 0.1274 (  5339 PWs)   bands (ev):

   -41.8631 -41.8108 -41.8095 -41.6702  -4.1392   0.2111   2.4406   3.6838
     4.0252   5.8807   8.2586   9.4843

          k = 0.1111 0.1111 0.0000 (  5291 PWs)   bands (ev):

   -41.8786 -41.8177 -41.8153 -41.6805  -5.3765   0.1936   1.5460   4.8520
     4.9537   6.4783   8.8419  11.7552

          k = 0.1111 0.1111 0.1274 (  5309 PWs)   bands (ev):

   -41.8782 -41.8221 -41.8112 -41.6805  -5.3764   0.0727   1.9832   4.1070
     4.8563   6.7385   9.8251  10.8948

          k = 0.1111 0.2222 0.0000 (  5309 PWs)   bands (ev):

   -41.8729 -41.8144 -41.8131 -41.6763  -5.0011   0.7138   1.9018   3.2320
     5.3015   6.6320   8.6316   9.5874

          k = 0.1111 0.2222 0.1274 (  5314 PWs)   bands (ev):

   -41.8727 -41.8177 -41.8101 -41.6763  -5.0010   0.5837   2.3652   3.1031
     4.6613   6.9266   8.2561  10.6319

          k = 0.1111 0.3333 0.0000 (  5319 PWs)   bands (ev):

   -41.8663 -41.8109 -41.8108 -41.6715  -4.4493   1.2598   1.5716   2.9213
     5.2775   6.9859   7.4800   8.3003

          k = 0.1111 0.3333 0.1274 (  5328 PWs)   bands (ev):

   -41.8662 -41.8127 -41.8090 -41.6715  -4.4492   1.2946   1.4484   3.1944
     5.2322   6.2068   7.4962   9.2195

          k = 0.1111 0.4444 0.0000 (  5334 PWs)   bands (ev):

   -41.8619 -41.8096 -41.8083 -41.6684  -3.9440   0.2171   2.7413   3.7822
     4.1353   5.6945   7.9257   8.8301

          k = 0.1111 0.4444 0.1274 (  5337 PWs)   bands (ev):

   -41.8619 -41.8096 -41.8083 -41.6684  -3.9440   0.2275   2.6127   3.8536
     4.2010   5.9650   7.8299   8.4292

          k = 0.2222 0.2222 0.0000 (  5333 PWs)   bands (ev):

   -41.8681 -41.8113 -41.8107 -41.6720  -4.5841   1.2369   2.3653   2.5649
     5.6285   5.7065   9.2752   9.3521

          k = 0.2222 0.2222 0.1274 (  5317 PWs)   bands (ev):

   -41.8679 -41.8137 -41.8084 -41.6720  -4.5840   1.0959   2.5698   2.8505
     4.5103   6.3746   8.4555   8.9888

          k = 0.2222 0.3333 0.0000 (  5336 PWs)   bands (ev):

   -41.8625 -41.8081 -41.8076 -41.6671  -3.9608   1.2934   2.0982   3.1519
     5.4589   5.8068   7.4946   8.3453

          k = 0.2222 0.3333 0.1274 (  5326 PWs)   bands (ev):

   -41.8624 -41.8093 -41.8065 -41.6671  -3.9606   1.3100   1.9466   3.5826
     4.8584   6.2296   6.7623   9.2115

          k = 0.2222 0.4444 0.0000 (  5329 PWs)   bands (ev):

   -41.8588 -41.8065 -41.8052 -41.6638  -3.3639   0.2513   3.2667   4.1367
     4.6915   5.5595   5.9777   8.7931

          k = 0.2222 0.4444 0.1274 (  5337 PWs)   bands (ev):

   -41.8588 -41.8064 -41.8053 -41.6638  -3.3636   0.2597   3.1192   4.3291
     4.6809   5.3561   6.3916   8.6201

          k = 0.3333 0.3333 0.0000 (  5351 PWs)   bands (ev):

   -41.8581 -41.8050 -41.8041 -41.6619  -3.2084   0.9914   2.9598   3.2030
     4.5996   6.4288   7.5869   7.7020

          k = 0.3333 0.3333 0.1274 (  5329 PWs)   bands (ev):

   -41.8581 -41.8054 -41.8037 -41.6619  -3.2080   0.9967   2.7801   3.4531
     4.5365   6.5653   6.7780   8.2700

          k = 0.3333 0.4444 0.0000 (  5348 PWs)   bands (ev):

   -41.8552 -41.8030 -41.8017 -41.6586  -2.4221   0.2675   2.9531   4.1038
     5.1954   5.6062   6.4588   8.0085

          k = 0.3333 0.4444 0.1274 (  5325 PWs)   bands (ev):

   -41.8552 -41.8029 -41.8018 -41.6586  -2.4215   0.2738   2.9923   3.9355
     5.1111   5.5536   6.8896   8.6892

          k = 0.4444 0.4444 0.0000 (  5336 PWs)   bands (ev):

   -41.8529 -41.8007 -41.7994 -41.6552  -1.2425   0.1984   1.2048   5.1426
     6.0579   6.6553   6.7378   6.8669

          k = 0.4444 0.4444 0.1274 (  5324 PWs)   bands (ev):

   -41.8529 -41.8005 -41.7996 -41.6552  -1.2411   0.2039   1.2136   4.9573
     5.8166   5.9324   7.5089   8.3899

     the Fermi energy is     4.2968 ev

!    total energy              =     -65.82734721 Ry
     estimated scf accuracy    <          8.1E-10 Ry
     smearing contrib. (-TS)   =       0.00052884 Ry
     internal energy E=F+TS    =     -65.82787606 Ry

     The total energy is F=E-TS. E is the sum of the following terms:
     one-electron contribution =     -36.85516507 Ry
     hartree contribution      =      16.84695974 Ry
     xc contribution           =     -16.94915418 Ry
     ewald contribution        =     -28.87051655 Ry

     convergence has been achieved in   9 iterations

     Forces acting on atoms (cartesian axes, Ry/au):

     atom    1 type  1   force =     0.00000000    0.00000000   -0.13828859
     atom    2 type  1   force =     0.00000000    0.00000000    0.13828859
     atom    3 type  1   force =     0.00000000    0.00000000    0.00000000
     atom    4 type  1   force =     0.00000000    0.00000000    0.00000000
     atom    5 type  2   force =     0.00000000    0.00000000    0.00000000
     The non-local contrib.  to forces
     atom    1 type  1   force =     0.00000000    0.00000000   -0.06011472
     atom    2 type  1   force =     0.00000000    0.00000000    0.06011472
     atom    3 type  1   force =     0.00000000    0.00000000    0.00000000
     atom    4 type  1   force =     0.00000000    0.00000000    0.00000000
     atom    5 type  2   force =     0.00000000    0.00000000    0.00000000
     The ionic contribution  to forces
     atom    1 type  1   force =    -0.00000000   -0.00000000   -2.65147831
     atom    2 type  1   force =    -0.00000000   -0.00000000    2.65147831
     atom    3 type  1   force =     0.00000000    0.00000000   -0.00000000
     atom    4 type  1   force =     0.00000000    0.00000000    0.00000000
     atom    5 type  2   force =    -0.00000000   -0.00000000    0.00000000
     The local contribution  to forces
     atom    1 type  1   force =    -0.00000000    0.00000000    2.57327701
     atom    2 type  1   force =    -0.00000000   -0.00000000   -2.57327701
     atom    3 type  1   force =     0.00000000    0.00000000   -0.00000000
     atom    4 type  1   force =     0.00000000    0.00000000    0.00000000
     atom    5 type  2   force =     0.00000000    0.00000000    0.00000000
     The core correction contribution to forces
     atom    1 type  1   force =     0.00000000    0.00000000    0.00000000
     atom    2 type  1   force =     0.00000000    0.00000000    0.00000000
     atom    3 type  1   force =     0.00000000    0.00000000    0.00000000
     atom    4 type  1   force =     0.00000000    0.00000000    0.00000000
     atom    5 type  2   force =     0.00000000   -0.00000000   -0.00000000
     The Hubbard contrib.    to forces
     atom    1 type  1   force =     0.00000000    0.00000000    0.00000000
     atom    2 type  1   force =     0.00000000    0.00000000    0.00000000
     atom    3 type  1   force =     0.00000000    0.00000000    0.00000000
     atom    4 type  1   force =     0.00000000    0.00000000    0.00000000
     atom    5 type  2   force =     0.00000000    0.00000000    0.00000000
     The SCF correction term to forces
     atom    1 type  1   force =    -0.00000000   -0.00000000    0.00002742
     atom    2 type  1   force =     0.00000000   -0.00000000   -0.00002742
     atom    3 type  1   force =    -0.00000000   -0.00000000   -0.00000000
     atom    4 type  1   force =     0.00000000   -0.00000000    0.00000000
     atom    5 type  2   force =     0.00000000   -0.00000000   -0.00000000

     Total force =     0.195570     Total SCF correction =     0.000039


     Computing stress (Cartesian axis) and pressure

          total   stress  (Ry/bohr**3)                   (kbar)     P=      261.56
   0.00134718   0.00000000   0.00000000          198.18        0.00        0.00
   0.00000000   0.00134718   0.00000000            0.00      198.18        0.00
   0.00000000   0.00000000   0.00263986            0.00        0.00      388.34


     BFGS Geometry Optimization
     Energy error            =      0.0E+00 Ry
     Gradient error          =      1.4E-01 Ry/Bohr
     Cell gradient error     =      3.0E+02 kbar

     number of scf cycles    =   1
     number of bfgs steps    =   0

     enthalpy           new  =     -64.3293266132 Ry

     new trust radius        =       0.2153688483 bohr
ibrav =      6
 celldm(1) =      5.23980890
 celldm(3) =      2.70502848
Input lattice vectors:
     0.94870617     0.00000000     0.00000000
     0.00000000     0.94870617     0.00000000
     0.00000000     0.00000000     2.56627720
New lattice vectors in INITIAL alat:
     0.94870617     0.00000000     0.00000000
     0.00000000     0.94870617     0.00000000
     0.00000000     0.00000000     2.56627720
New lattice vectors in NEW alat (for information only):
     1.00000000     0.00000000     0.00000000
     0.00000000     1.00000000     0.00000000
     0.00000000     0.00000000     2.70502848
Discrepancy in bohr =     0.000000    0.000000    0.000000
     new conv_thr            =       0.0000000100 Ry

     new unit-cell volume =    389.15103 a.u.^3 (    57.66623 Ang^3 )
     density =      1.60822 g/cm^3

CELL_PARAMETERS (alat=  5.52311041)
   0.948706165   0.000000000   0.000000000
   0.000000000   0.948706165   0.000000000
   0.000000000   0.000000000   2.566277199

ATOMIC_POSITIONS (crystal)
Li            0.0000000000        0.0000000000        0.2351685363
Li            0.0000000000        0.0000000000        0.7648314637
Li            0.5000000000        0.5000000000        0.0000000000
Li            0.5000000000        0.5000000000        0.5000000000
Si            0.0000000000        0.0000000000        0.5000000000



     Writing config-only to output data dir ./output/LiSi.save/
     NEW-OLD atomic charge density approx. for the potential
     extrapolated charge   13.88170, renormalised to   16.00000

     total cpu time spent up to now is        7.7 secs

     Self-consistent Calculation

     iteration #  1     ecut=    80.00 Ry     beta= 0.70
     Davidson diagonalization with overlap
     c_bands:  1 eigenvalues not converged
     ethr =  1.00E-06,  avg # of iterations = 13.4

     total cpu time spent up to now is        8.8 secs

     total energy              =     -63.92365984 Ry
     estimated scf accuracy    <       1.81302449 Ry

     iteration #  2     ecut=    80.00 Ry     beta= 0.70
     Davidson diagonalization with overlap
     ethr =  1.00E-02,  avg # of iterations =  5.5

     total cpu time spent up to now is        9.4 secs

     total energy              =     -63.38297226 Ry
     estimated scf accuracy    <      35.61170808 Ry

     iteration #  3     ecut=    80.00 Ry     beta= 0.70
     Davidson diagonalization with overlap
     ethr =  1.00E-02,  avg # of iterations =  3.8

     total cpu time spent up to now is        9.8 secs

     total energy              =     -65.79552390 Ry
     estimated scf accuracy    <       1.85871750 Ry

     iteration #  4     ecut=    80.00 Ry     beta= 0.70
     Davidson diagonalization with overlap
     ethr =  1.00E-02,  avg # of iterations =  1.4

     total cpu time spent up to now is       10.1 secs

     total energy              =     -65.72686332 Ry
     estimated scf accuracy    <       0.67637848 Ry

     iteration #  5     ecut=    80.00 Ry     beta= 0.70
     Davidson diagonalization with overlap
     ethr =  4.23E-03,  avg # of iterations =  2.1

     total cpu time spent up to now is       10.5 secs

     total energy              =     -65.75363613 Ry
     estimated scf accuracy    <       0.06592261 Ry

     iteration #  6     ecut=    80.00 Ry     beta= 0.70
     Davidson diagonalization with overlap
     ethr =  4.12E-04,  avg # of iterations =  4.0

     total cpu time spent up to now is       10.9 secs

     total energy              =     -65.75888342 Ry
     estimated scf accuracy    <       0.00433878 Ry

     iteration #  7     ecut=    80.00 Ry     beta= 0.70
     Davidson diagonalization with overlap
     ethr =  2.71E-05,  avg # of iterations =  3.7

     total cpu time spent up to now is       11.3 secs

     total energy              =     -65.75912145 Ry
     estimated scf accuracy    <       0.00041128 Ry

     iteration #  8     ecut=    80.00 Ry     beta= 0.70
     Davidson diagonalization with overlap
     ethr =  2.57E-06,  avg # of iterations =  3.6

     total cpu time spent up to now is       11.7 secs

     total energy              =     -65.75920966 Ry
     estimated scf accuracy    <       0.00003203 Ry

     iteration #  9     ecut=    80.00 Ry     beta= 0.70
     Davidson diagonalization with overlap
     ethr =  2.00E-07,  avg # of iterations =  1.2

     total cpu time spent up to now is       12.0 secs

     total energy              =     -65.75920600 Ry
     estimated scf accuracy    <       0.00001773 Ry

     iteration # 10     ecut=    80.00 Ry     beta= 0.70
     Davidson diagonalization with overlap
     ethr =  1.11E-07,  avg # of iterations =  1.0

     total cpu time spent up to now is       12.3 secs

     total energy              =     -65.75920633 Ry
     estimated scf accuracy    <       0.00000297 Ry

     iteration # 11     ecut=    80.00 Ry     beta= 0.70
     Davidson diagonalization with overlap
     ethr =  1.86E-08,  avg # of iterations =  1.4

     total cpu time spent up to now is       12.6 secs

     total energy              =     -65.75920621 Ry
     estimated scf accuracy    <       0.00000072 Ry

     iteration # 12     ecut=    80.00 Ry     beta= 0.70
     Davidson diagonalization with overlap
     ethr =  4.53E-09,  avg # of iterations =  2.0

     total cpu time spent up to now is       13.0 secs

     total energy              =     -65.75920634 Ry
     estimated scf accuracy    <       0.00000002 Ry

     iteration # 13     ecut=    80.00 Ry     beta= 0.70
     Davidson diagonalization with overlap
     ethr =  1.36E-10,  avg # of iterations =  2.2

     total cpu time spent up to now is       13.4 secs

     End of self-consistent calculation

          k = 0.0000 0.0000 0.0000 (  5289 PWs)   bands (ev):

   -41.1173 -40.8897 -40.8773 -40.7576  -5.1112   0.1574   1.9789   5.4466
     8.5022   8.5022   9.2356  15.9441

          k = 0.0000 0.0000 0.1299 (  5321 PWs)   bands (ev):

   -41.1172 -40.8926 -40.8743 -40.7578  -5.1114   0.0842   2.3333   4.6813
     8.5057   8.5057  10.7045  13.9753

          k = 0.0000 0.1171 0.0000 (  5301 PWs)   bands (ev):

   -41.1126 -40.8862 -40.8750 -40.7570  -4.9792   0.3521   2.1182   5.6012
     6.6176   8.7084   9.3224  12.7360

          k = 0.0000 0.1171 0.1299 (  5316 PWs)   bands (ev):

   -41.1125 -40.8888 -40.8724 -40.7572  -4.9794   0.2752   2.4849   4.7689
     6.7355   8.7118  10.6606  12.5519

          k = 0.0000 0.2342 0.0000 (  5332 PWs)   bands (ev):

   -41.1008 -40.8774 -40.8692 -40.7557  -4.5996   0.9335   2.4790   4.3576
     5.9754   9.1259  10.8679  12.0930

          k = 0.0000 0.2342 0.1299 (  5313 PWs)   bands (ev):

   -41.1008 -40.8789 -40.8677 -40.7558  -4.5997   0.8461   2.8942   4.0515
     5.6250   9.2358  11.6865  12.6798

          k = 0.0000 0.3514 0.0000 (  5326 PWs)   bands (ev):

   -41.0873 -40.8671 -40.8626 -40.7546  -4.0438   1.8916   2.0454   3.6151
     5.9804   7.9098   9.3193  11.8282

          k = 0.0000 0.3514 0.1299 (  5316 PWs)   bands (ev):

   -41.0872 -40.8674 -40.8623 -40.7546  -4.0439   1.7869   2.1265   3.7661
     6.0231   7.0791  10.2909  12.3181

          k = 0.0000 0.4685 0.0000 (  5342 PWs)   bands (ev):

   -41.0784 -40.8602 -40.8583 -40.7541  -3.5395   0.9703   3.1946   4.4181
     4.7529   6.4704   9.7610  11.5476

          k = 0.0000 0.4685 0.1299 (  5339 PWs)   bands (ev):

   -41.0784 -40.8598 -40.8588 -40.7541  -3.5394   0.9806   3.0940   4.4620
     4.8396   6.6539   9.2367  10.9344

          k = 0.1171 0.1171 0.0000 (  5291 PWs)   bands (ev):

   -41.1081 -40.8829 -40.8728 -40.7563  -4.8415   0.5473   2.2638   5.7614
     5.9578   8.0027   9.6378  13.2574

          k = 0.1171 0.1171 0.1299 (  5309 PWs)   bands (ev):

   -41.1081 -40.8851 -40.8705 -40.7564  -4.8416   0.4664   2.6412   4.9090
     5.9617   8.3519  10.7375  12.4418

          k = 0.1171 0.2342 0.0000 (  5309 PWs)   bands (ev):

   -41.0967 -40.8745 -40.8670 -40.7546  -4.4449   1.1303   2.6452   4.1703
     6.1554   8.1656   9.5590  10.9637

          k = 0.1171 0.2342 0.1299 (  5314 PWs)   bands (ev):

   -41.0967 -40.8757 -40.8657 -40.7546  -4.4450   1.0380   3.0648   4.0172
     5.5032   8.5601   9.4700  11.6047

          k = 0.1171 0.3514 0.0000 (  5319 PWs)   bands (ev):

   -41.0837 -40.8646 -40.8605 -40.7529  -3.8609   2.0747   2.0912   3.6953
     6.1920   7.9641   9.1685   9.4197

          k = 0.1171 0.3514 0.1299 (  5328 PWs)   bands (ev):

   -41.0837 -40.8648 -40.8603 -40.7529  -3.8610   1.9751   2.1394   3.9216
     6.0923   7.2102   9.2214  10.3906

          k = 0.1171 0.4685 0.0000 (  5334 PWs)   bands (ev):

   -41.0752 -40.8580 -40.8562 -40.7520  -3.3229   0.9674   3.3999   4.5834
     4.9588   6.5558   9.7798   9.9045

          k = 0.1171 0.4685 0.1299 (  5337 PWs)   bands (ev):

   -41.0752 -40.8576 -40.8566 -40.7520  -3.3228   0.9770   3.2895   4.6564
     5.0282   6.7466   9.3090   9.7863

          k = 0.2342 0.2342 0.0000 (  5333 PWs)   bands (ev):

   -41.0865 -40.8669 -40.8614 -40.7518  -3.9976   1.7178   3.1338   3.3738
     6.6235   7.2486   9.7783  10.6975

          k = 0.2342 0.2342 0.1299 (  5317 PWs)   bands (ev):

   -41.0865 -40.8676 -40.8607 -40.7518  -3.9976   1.6110   3.3782   3.5750
     5.5189   7.8774   9.7056  10.2251

          k = 0.2342 0.3514 0.0000 (  5336 PWs)   bands (ev):

   -41.0747 -40.8582 -40.8549 -40.7487  -3.3277   2.0340   2.6858   3.9633
     6.8046   7.0669   8.4800   9.5132

          k = 0.2342 0.3514 0.1299 (  5326 PWs)   bands (ev):

   -41.0747 -40.8581 -40.8550 -40.7487  -3.3276   2.0493   2.5595   4.3696
     6.0638   7.4607   7.8683  10.4375

          k = 0.2342 0.4685 0.0000 (  5329 PWs)   bands (ev):

   -41.0670 -40.8524 -40.8507 -40.7468  -2.6802   0.9417   4.0059   5.0220
     5.5762   6.8536   7.1389  10.0629

          k = 0.2342 0.4685 0.1299 (  5337 PWs)   bands (ev):

   -41.0670 -40.8520 -40.8511 -40.7468  -2.6799   0.9493   3.8644   5.2117
     5.5729   6.7963   7.3544   9.6358

          k = 0.3514 0.3514 0.0000 (  5351 PWs)   bands (ev):

   -41.0645 -40.8508 -40.8486 -40.7439  -2.5079   1.6219   3.6614   4.3668
     5.8249   7.5652   8.6110   8.8488

          k = 0.3514 0.3514 0.1299 (  5329 PWs)   bands (ev):

   -41.0645 -40.8505 -40.8490 -40.7439  -2.5075   1.6267   3.4973   4.7967
     5.5580   7.5264   7.8324   9.5000

          k = 0.3514 0.4685 0.0000 (  5348 PWs)   bands (ev):

   -41.0578 -40.8460 -40.8445 -40.7408  -1.6426   0.8739   4.3444   4.9783
     6.0978   6.5943   7.3831   9.3013

          k = 0.3514 0.4685 0.1299 (  5325 PWs)   bands (ev):

   -41.0578 -40.8457 -40.8449 -40.7408  -1.6419   0.8797   4.4032   4.7934
     6.1070   6.4707   7.8030   9.7778

          k = 0.4685 0.4685 0.0000 (  5336 PWs)   bands (ev):

   -41.0517 -40.8419 -40.8405 -40.7370  -0.3602   0.7427   2.4707   6.2262
     6.9658   7.6662   7.8413   7.9151

          k = 0.4685 0.4685 0.1299 (  5324 PWs)   bands (ev):

   -41.0517 -40.8415 -40.8408 -40.7370  -0.3581   0.7477   2.4805   5.9391
     6.8893   6.9622   8.5748   9.4921

     the Fermi energy is     5.1497 ev

!    total energy              =     -65.75920635 Ry
     estimated scf accuracy    <          1.7E-09 Ry
     smearing contrib. (-TS)   =       0.00097191 Ry
     internal energy E=F+TS    =     -65.76017825 Ry

     The total energy is F=E-TS. E is the sum of the following terms:
     one-electron contribution =     -34.08634568 Ry
     hartree contribution      =      16.03497569 Ry
     xc contribution           =     -17.09782765 Ry
     ewald contribution        =     -30.61098061 Ry

     convergence has been achieved in  13 iterations

     Forces acting on atoms (cartesian axes, Ry/au):

     atom    1 type  1   force =     0.00000000    0.00000000   -0.10331293
     atom    2 type  1   force =     0.00000000    0.00000000    0.10331293
     atom    3 type  1   force =     0.00000000    0.00000000    0.00000000
     atom    4 type  1   force =     0.00000000    0.00000000    0.00000000
     atom    5 type  2   force =     0.00000000    0.00000000    0.00000000
     The non-local contrib.  to forces
     atom    1 type  1   force =     0.00000000    0.00000000   -0.03716926
     atom    2 type  1   force =     0.00000000    0.00000000    0.03716926
     atom    3 type  1   force =     0.00000000    0.00000000    0.00000000
     atom    4 type  1   force =     0.00000000    0.00000000    0.00000000
     atom    5 type  2   force =     0.00000000    0.00000000    0.00000000
     The ionic contribution  to forces
     atom    1 type  1   force =     0.00000000    0.00000000   -2.46667534
     atom    2 type  1   force =     0.00000000    0.00000000    2.46667534
     atom    3 type  1   force =    -0.00000000    0.00000000   -0.00000000
     atom    4 type  1   force =    -0.00000000   -0.00000000   -0.00000000
     atom    5 type  2   force =     0.00000000    0.00000000   -0.00000000
     The local contribution  to forces
     atom    1 type  1   force =    -0.00000000   -0.00000000    2.40051229
     atom    2 type  1   force =     0.00000000    0.00000000   -2.40051229
     atom    3 type  1   force =    -0.00000000   -0.00000000   -0.00000000
     atom    4 type  1   force =    -0.00000000   -0.00000000    0.00000000
     atom    5 type  2   force =    -0.00000000   -0.00000000    0.00000000
     The core correction contribution to forces
     atom    1 type  1   force =     0.00000000    0.00000000    0.00000000
     atom    2 type  1   force =     0.00000000    0.00000000    0.00000000
     atom    3 type  1   force =     0.00000000    0.00000000    0.00000000
     atom    4 type  1   force =     0.00000000    0.00000000    0.00000000
     atom    5 type  2   force =    -0.00000000    0.00000000   -0.00000000
     The Hubbard contrib.    to forces
     atom    1 type  1   force =     0.00000000    0.00000000    0.00000000
     atom    2 type  1   force =     0.00000000    0.00000000    0.00000000
     atom    3 type  1   force =     0.00000000    0.00000000    0.00000000
     atom    4 type  1   force =     0.00000000    0.00000000    0.00000000
     atom    5 type  2   force =     0.00000000    0.00000000    0.00000000
     The SCF correction term to forces
     atom    1 type  1   force =    -0.00000000   -0.00000000    0.00001937
     atom    2 type  1   force =    -0.00000000   -0.00000000   -0.00001937
     atom    3 type  1   force =     0.00000000   -0.00000000    0.00000000
     atom    4 type  1   force =     0.00000000   -0.00000000   -0.00000000
     atom    5 type  2   force =     0.00000000    0.00000000   -0.00000000

     Total force =     0.146107     Total SCF correction =     0.000027


     Computing stress (Cartesian axis) and pressure

          total   stress  (Ry/bohr**3)                   (kbar)     P=      369.75
   0.00241118   0.00000000   0.00000000          354.70        0.00        0.00
   0.00000000   0.00241118   0.00000000            0.00      354.70        0.00
   0.00000000   0.00000000   0.00271817            0.00        0.00      399.86

     Energy error            =      1.1E-01 Ry
     Gradient error          =      1.0E-01 Ry/Bohr
     Cell gradient error     =      1.5E+02 kbar

     number of scf cycles    =   2
     number of bfgs steps    =   1

     enthalpy           old  =     -64.3293266132 Ry
     enthalpy           new  =     -64.4365088722 Ry

     CASE: enthalpy          _new < enthalpy          _old

     new trust radius        =       0.2306559875 bohr
ibrav =      6
 celldm(1) =      4.93509779
 celldm(3) =      2.76854060
Input lattice vectors:
     0.89353597     0.00000000     0.00000000
     0.00000000     0.89353597     0.00000000
     0.00000000     0.00000000     2.47379060
New lattice vectors in INITIAL alat:
     0.89353597     0.00000000     0.00000000
     0.00000000     0.89353597     0.00000000
     0.00000000     0.00000000     2.47379060
New lattice vectors in NEW alat (for information only):
     1.00000000     0.00000000     0.00000000
     0.00000000     1.00000000     0.00000000
     0.00000000     0.00000000     2.76854060
Discrepancy in bohr =     0.000000    0.000000    0.000000
     new conv_thr            =       0.0000000100 Ry

     new unit-cell volume =    332.76542 a.u.^3 (    49.31075 Ang^3 )
     density =      1.88073 g/cm^3

CELL_PARAMETERS (alat=  5.52311041)
   0.893535965   0.000000000   0.000000000
   0.000000000   0.893535965   0.000000000
   0.000000000   0.000000000   2.473790601

ATOMIC_POSITIONS (crystal)
Li            0.0000000000        0.0000000000        0.2188951685
Li            0.0000000000        0.0000000000        0.7811048315
Li            0.5000000000        0.5000000000        0.0000000000
Li            0.5000000000        0.5000000000        0.5000000000
Si            0.0000000000        0.0000000000        0.5000000000



     Writing config-only to output data dir ./output/LiSi.save/
     NEW-OLD atomic charge density approx. for the potential

     negative rho (up, down):  2.694E-06 0.000E+00
     extrapolated charge   13.29207, renormalised to   16.00000

     total cpu time spent up to now is       15.1 secs

     Self-consistent Calculation

     iteration #  1     ecut=    80.00 Ry     beta= 0.70
     Davidson diagonalization with overlap
     c_bands:  1 eigenvalues not converged
     ethr =  1.00E-06,  avg # of iterations = 12.7

     total cpu time spent up to now is       16.1 secs

     total energy              =     -63.14224849 Ry
     estimated scf accuracy    <       2.50738471 Ry

     iteration #  2     ecut=    80.00 Ry     beta= 0.70
     Davidson diagonalization with overlap
     ethr =  1.00E-02,  avg # of iterations =  6.0

     total cpu time spent up to now is       16.6 secs

     total energy              =     -63.06819585 Ry
     estimated scf accuracy    <      40.38834928 Ry

     iteration #  3     ecut=    80.00 Ry     beta= 0.70
     Davidson diagonalization with overlap
     ethr =  1.00E-02,  avg # of iterations =  3.9

     total cpu time spent up to now is       17.1 secs

     total energy              =     -65.64405753 Ry
     estimated scf accuracy    <       2.46020886 Ry

     iteration #  4     ecut=    80.00 Ry     beta= 0.70
     Davidson diagonalization with overlap
     ethr =  1.00E-02,  avg # of iterations =  1.4

     total cpu time spent up to now is       17.4 secs

     total energy              =     -65.56024401 Ry
     estimated scf accuracy    <       0.72945255 Ry

     iteration #  5     ecut=    80.00 Ry     beta= 0.70
     Davidson diagonalization with overlap
     ethr =  4.56E-03,  avg # of iterations =  2.0

     total cpu time spent up to now is       17.7 secs

     total energy              =     -65.60784801 Ry
     estimated scf accuracy    <       0.03711102 Ry

     iteration #  6     ecut=    80.00 Ry     beta= 0.70
     Davidson diagonalization with overlap
     ethr =  2.32E-04,  avg # of iterations =  5.0

     total cpu time spent up to now is       18.1 secs

     total energy              =     -65.61688777 Ry
     estimated scf accuracy    <       0.01408555 Ry

     iteration #  7     ecut=    80.00 Ry     beta= 0.70
     Davidson diagonalization with overlap
     ethr =  8.80E-05,  avg # of iterations =  1.0

     total cpu time spent up to now is       18.5 secs

     total energy              =     -65.61648412 Ry
     estimated scf accuracy    <       0.00353516 Ry

     iteration #  8     ecut=    80.00 Ry     beta= 0.70
     Davidson diagonalization with overlap
     ethr =  2.21E-05,  avg # of iterations =  1.3

     total cpu time spent up to now is       18.8 secs

     total energy              =     -65.61689607 Ry
     estimated scf accuracy    <       0.00005182 Ry

     iteration #  9     ecut=    80.00 Ry     beta= 0.70
     Davidson diagonalization with overlap
     ethr =  3.24E-07,  avg # of iterations =  3.4

     total cpu time spent up to now is       19.2 secs

     total energy              =     -65.61690594 Ry
     estimated scf accuracy    <       0.00000404 Ry

     iteration # 10     ecut=    80.00 Ry     beta= 0.70
     Davidson diagonalization with overlap
     ethr =  2.53E-08,  avg # of iterations =  1.5

     total cpu time spent up to now is       19.6 secs

     total energy              =     -65.61690648 Ry
     estimated scf accuracy    <       0.00000003 Ry

     iteration # 11     ecut=    80.00 Ry     beta= 0.70
     Davidson diagonalization with overlap
     ethr =  1.72E-10,  avg # of iterations =  3.2

     total cpu time spent up to now is       20.0 secs

     total energy              =     -65.61690650 Ry
     estimated scf accuracy    <       0.00000002 Ry

     iteration # 12     ecut=    80.00 Ry     beta= 0.70
     Davidson diagonalization with overlap
     ethr =  1.56E-10,  avg # of iterations =  1.1

     total cpu time spent up to now is       20.3 secs

     End of self-consistent calculation

          k = 0.0000 0.0000 0.0000 (  5289 PWs)   bands (ev):

   -40.5456 -39.5776 -39.5494 -39.2173  -4.3151   0.6311   3.1787   6.9002
    10.1896  10.6033  10.6033  18.2457

          k = 0.0000 0.0000 0.1347 (  5321 PWs)   bands (ev):

   -40.5456 -39.5783 -39.5486 -39.2173  -4.3158   0.5994   3.4689   6.0357
    10.6074  10.6074  11.7942  15.8198

          k = 0.0000 0.1243 0.0000 (  5301 PWs)   bands (ev):

   -40.5377 -39.5706 -39.5451 -39.2160  -4.1802   0.8535   3.3114   7.0506
     8.1911  10.3120  10.8293  14.6561

          k = 0.0000 0.1243 0.1347 (  5316 PWs)   bands (ev):

   -40.5377 -39.5712 -39.5445 -39.2160  -4.1809   0.8187   3.6159   6.1107
     8.3301  10.8332  11.8400  14.4024

          k = 0.0000 0.2487 0.0000 (  5332 PWs)   bands (ev):

   -40.5175 -39.5526 -39.5343 -39.2128  -3.7944   1.5174   3.6531   5.6903
     7.4001  10.2080  12.8226  13.6535

          k = 0.0000 0.2487 0.1347 (  5313 PWs)   bands (ev):

   -40.5175 -39.5529 -39.5340 -39.2128  -3.7949   1.4728   4.0185   5.3350
     6.9902  10.7933  13.0248  14.4460

          k = 0.0000 0.3730 0.0000 (  5326 PWs)   bands (ev):

   -40.4945 -39.5317 -39.5219 -39.2096  -3.2347   2.6094   3.1991   4.8158
     7.3127   9.1219  10.9821  13.0826

          k = 0.0000 0.3730 0.1347 (  5316 PWs)   bands (ev):

   -40.4945 -39.5316 -39.5221 -39.2096  -3.2350   2.5486   3.2841   4.8922
     7.3088   8.4420  11.8706  13.5726

          k = 0.0000 0.4974 0.0000 (  5342 PWs)   bands (ev):

   -40.4794 -39.5178 -39.5138 -39.2078  -2.7338   2.0839   4.0822   5.5956
     5.9053   7.6766  11.1126  13.8958

          k = 0.0000 0.4974 0.1347 (  5339 PWs)   bands (ev):

   -40.4794 -39.5173 -39.5143 -39.2078  -2.7337   2.0934   4.0110   5.5893
     6.0291   7.7974  10.5802  13.0425

          k = 0.1243 0.1243 0.0000 (  5291 PWs)   bands (ev):

   -40.5300 -39.5639 -39.5409 -39.2144  -4.0380   1.0766   3.4527   7.2115
     7.3722   9.7400  11.0502  15.1721

          k = 0.1243 0.1243 0.1347 (  5309 PWs)   bands (ev):

   -40.5300 -39.5644 -39.5404 -39.2144  -4.0386   1.0381   3.7695   6.2487
     7.3761  10.5017  11.9795  14.4432

          k = 0.1243 0.2487 0.0000 (  5309 PWs)   bands (ev):

   -40.5105 -39.5467 -39.5301 -39.2105  -3.6301   1.7424   3.8205   5.4144
     7.5960   9.8650  11.1561  12.9105

          k = 0.1243 0.2487 0.1347 (  5314 PWs)   bands (ev):

   -40.5105 -39.5469 -39.5300 -39.2105  -3.6307   1.6927   4.1915   5.2506
     6.8287  10.6900  11.1465  12.9565

          k = 0.1243 0.3730 0.0000 (  5319 PWs)   bands (ev):

   -40.4883 -39.5269 -39.5179 -39.2064  -3.0349   2.8382   3.1974   4.8781
     7.5573   9.1982  11.0958  11.4592

          k = 0.1243 0.3730 0.1347 (  5328 PWs)   bands (ev):

   -40.4883 -39.5267 -39.5181 -39.2064  -3.0352   2.7688   3.2565   5.0516
     7.3770   8.5962  11.4938  11.9926

          k = 0.1243 0.4974 0.0000 (  5334 PWs)   bands (ev):

   -40.4738 -39.5137 -39.5099 -39.2039  -2.4935   2.0467   4.3206   5.7686
     6.1390   7.7494  11.3290  12.0442

          k = 0.1243 0.4974 0.1347 (  5337 PWs)   bands (ev):

   -40.4738 -39.5133 -39.5103 -39.2039  -2.4933   2.0557   4.2357   5.8091
     6.2305   7.8866  10.7070  12.0459

          k = 0.2487 0.2487 0.0000 (  5333 PWs)   bands (ev):

   -40.4928 -39.5318 -39.5197 -39.2046  -3.1574   2.4142   4.3181   4.4417
     8.1033   9.3603  11.0101  12.5606

          k = 0.2487 0.2487 0.1347 (  5317 PWs)   bands (ev):

   -40.4928 -39.5318 -39.5197 -39.2046  -3.1578   2.3482   4.4461   4.7125
     6.9228  10.0781  11.3315  11.8427

          k = 0.2487 0.3730 0.0000 (  5336 PWs)   bands (ev):

   -40.4726 -39.5146 -39.5077 -39.1982  -2.4560   3.0327   3.5203   5.1533
     8.2717   9.1860   9.8774  11.2131

          k = 0.2487 0.3730 0.1347 (  5326 PWs)   bands (ev):

   -40.4726 -39.5144 -39.5080 -39.1981  -2.4561   3.0466   3.4268   5.5333
     7.5601   9.0470   9.7281  12.0728

          k = 0.2487 0.4974 0.0000 (  5329 PWs)   bands (ev):

   -40.4594 -39.5033 -39.4999 -39.1940  -1.7852   1.9191   5.0262   6.2480
     6.8395   8.0483   9.2958  11.7980

          k = 0.2487 0.4974 0.1347 (  5337 PWs)   bands (ev):

   -40.4594 -39.5029 -39.5003 -39.1940  -1.7849   1.9267   4.8950   6.4428
     6.8174   8.2097   9.2805  11.0337

          k = 0.3730 0.3730 0.0000 (  5351 PWs)   bands (ev):

   -40.4548 -39.5007 -39.4961 -39.1888  -1.5774   2.4793   4.6411   5.7604
     7.7919   9.1993   9.9258  10.4605

          k = 0.3730 0.3730 0.1347 (  5329 PWs)   bands (ev):

   -40.4548 -39.5003 -39.4964 -39.1888  -1.5770   2.4842   4.4940   6.2858
     7.3638   8.9230   9.2097  11.2583

          k = 0.3730 0.4974 0.0000 (  5348 PWs)   bands (ev):

   -40.4431 -39.4915 -39.4885 -39.1827  -0.6640   1.7164   6.1656   6.2451
     7.4090   7.9958   8.6083  11.1545

          k = 0.3730 0.4974 0.1347 (  5325 PWs)   bands (ev):

   -40.4431 -39.4911 -39.4889 -39.1827  -0.6630   1.7222   5.9266   6.4146
     7.4784   7.7354   9.0849  11.2418

          k = 0.4974 0.4974 0.0000 (  5336 PWs)   bands (ev):

   -40.4324 -39.4838 -39.4810 -39.1754   0.6326   1.4983   4.3983   7.6598
     8.1695   8.8593   9.4018   9.5517

          k = 0.4974 0.4974 0.1347 (  5324 PWs)   bands (ev):

   -40.4324 -39.4834 -39.4814 -39.1754   0.6356   1.5034   4.4129   7.2138
     8.1426   8.5203  10.0815  10.9749

     the Fermi energy is     6.4643 ev

!    total energy              =     -65.61690650 Ry
     estimated scf accuracy    <          2.8E-09 Ry
     smearing contrib. (-TS)   =       0.00065986 Ry
     internal energy E=F+TS    =     -65.61756636 Ry

     The total energy is F=E-TS. E is the sum of the following terms:
     one-electron contribution =     -29.91351090 Ry
     hartree contribution      =      14.73544776 Ry
     xc contribution           =     -17.30059149 Ry
     ewald contribution        =     -33.13891174 Ry

     convergence has been achieved in  12 iterations

     Forces acting on atoms (cartesian axes, Ry/au):

     atom    1 type  1   force =     0.00000000    0.00000000   -0.05618704
     atom    2 type  1   force =     0.00000000    0.00000000    0.05618704
     atom    3 type  1   force =     0.00000000    0.00000000    0.00000000
     atom    4 type  1   force =     0.00000000    0.00000000    0.00000000
     atom    5 type  2   force =     0.00000000    0.00000000    0.00000000
     The non-local contrib.  to forces
     atom    1 type  1   force =     0.00000000    0.00000000   -0.00009350
     atom    2 type  1   force =     0.00000000    0.00000000    0.00009350
     atom    3 type  1   force =     0.00000000    0.00000000    0.00000000
     atom    4 type  1   force =     0.00000000    0.00000000    0.00000000
     atom    5 type  2   force =     0.00000000    0.00000000    0.00000000
     The ionic contribution  to forces
     atom    1 type  1   force =     0.00000000    0.00000000   -1.96396609
     atom    2 type  1   force =     0.00000000    0.00000000    1.96396609
     atom    3 type  1   force =     0.00000000    0.00000000   -0.00000000
     atom    4 type  1   force =    -0.00000000    0.00000000   -0.00000000
     atom    5 type  2   force =     0.00000000    0.00000000    0.00000000
     The local contribution  to forces
     atom    1 type  1   force =     0.00000000    0.00000000    1.90779680
     atom    2 type  1   force =     0.00000000   -0.00000000   -1.90779680
     atom    3 type  1   force =    -0.00000000   -0.00000000   -0.00000000
     atom    4 type  1   force =    -0.00000000   -0.00000000    0.00000000
     atom    5 type  2   force =     0.00000000   -0.00000000   -0.00000000
     The core correction contribution to forces
     atom    1 type  1   force =     0.00000000    0.00000000    0.00000000
     atom    2 type  1   force =     0.00000000    0.00000000    0.00000000
     atom    3 type  1   force =     0.00000000    0.00000000    0.00000000
     atom    4 type  1   force =     0.00000000    0.00000000    0.00000000
     atom    5 type  2   force =    -0.00000000    0.00000000   -0.00000000
     The Hubbard contrib.    to forces
     atom    1 type  1   force =     0.00000000    0.00000000    0.00000000
     atom    2 type  1   force =     0.00000000    0.00000000    0.00000000
     atom    3 type  1   force =     0.00000000    0.00000000    0.00000000
     atom    4 type  1   force =     0.00000000    0.00000000    0.00000000
     atom    5 type  2   force =     0.00000000    0.00000000    0.00000000
     The SCF correction term to forces
     atom    1 type  1   force =     0.00000000    0.00000000    0.00007574
     atom    2 type  1   force =    -0.00000000   -0.00000000   -0.00007574
     atom    3 type  1   force =    -0.00000000    0.00000000   -0.00000000
     atom    4 type  1   force =    -0.00000000   -0.00000000    0.00000000
     atom    5 type  2   force =    -0.00000000   -0.00000000    0.00000000

     Total force =     0.079460     Total SCF correction =     0.000107


     Computing stress (Cartesian axis) and pressure

          total   stress  (Ry/bohr**3)                   (kbar)     P=      562.78
   0.00426308   0.00000000   0.00000000          627.12        0.00        0.00
   0.00000000   0.00426308   0.00000000            0.00      627.12        0.00
   0.00000000   0.00000000   0.00295091            0.00        0.00      434.09

     Energy error            =      4.9E-02 Ry
     Gradient error          =      5.6E-02 Ry/Bohr
     Cell gradient error     =      1.3E+02 kbar

     number of scf cycles    =   3
     number of bfgs steps    =   2

     enthalpy           old  =     -64.4365088722 Ry
     enthalpy           new  =     -64.4858598390 Ry

     CASE: enthalpy          _new < enthalpy          _old

     new trust radius        =       0.0723262189 bohr
ibrav =      6
 celldm(1) =      4.98713797
 celldm(3) =      2.70424069
Input lattice vectors:
     0.90295822     0.00000000     0.00000000
     0.00000000     0.90295822     0.00000000
     0.00000000     0.00000000     2.44181637
New lattice vectors in INITIAL alat:
     0.90295822     0.00000000     0.00000000
     0.00000000     0.90295822     0.00000000
     0.00000000     0.00000000     2.44181637
New lattice vectors in NEW alat (for information only):
     1.00000000     0.00000000     0.00000000
     0.00000000     1.00000000     0.00000000
     0.00000000     0.00000000     2.70424069
Discrepancy in bohr =     0.000000    0.000000    0.000000
     new conv_thr            =       0.0000000056 Ry

     new unit-cell volume =    335.42814 a.u.^3 (    49.70532 Ang^3 )
     density =      1.86580 g/cm^3

CELL_PARAMETERS (alat=  5.52311041)
   0.902958225   0.000000000   0.000000000
   0.000000000   0.902958225   0.000000000
   0.000000000   0.000000000   2.441816373

ATOMIC_POSITIONS (crystal)
Li            0.0000000000        0.0000000000        0.2136015931
Li            0.0000000000        0.0000000000        0.7863984069
Li            0.5000000000        0.5000000000        0.0000000000
Li            0.5000000000        0.5000000000        0.5000000000
Si            0.0000000000        0.0000000000        0.5000000000



     Writing config-only to output data dir ./output/LiSi.save/
     NEW-OLD atomic charge density approx. for the potential
     extrapolated charge   16.12686, renormalised to   16.00000

     total cpu time spent up to now is       22.0 secs

     Self-consistent Calculation

     iteration #  1     ecut=    80.00 Ry     beta= 0.70
     Davidson diagonalization with overlap
     ethr =  1.00E-06,  avg # of iterations =  6.5

     total cpu time spent up to now is       22.6 secs

     total energy              =     -65.62791356 Ry
     estimated scf accuracy    <       0.01511938 Ry

     iteration #  2     ecut=    80.00 Ry     beta= 0.70
     Davidson diagonalization with overlap
     ethr =  9.45E-05,  avg # of iterations =  3.2

     total cpu time spent up to now is       23.0 secs

     total energy              =     -65.61051861 Ry
     estimated scf accuracy    <       0.33899155 Ry

     iteration #  3     ecut=    80.00 Ry     beta= 0.70
     Davidson diagonalization with overlap
     ethr =  9.45E-05,  avg # of iterations =  2.4

     total cpu time spent up to now is       23.4 secs

     total energy              =     -65.64160916 Ry
     estimated scf accuracy    <       0.00595224 Ry

     iteration #  4     ecut=    80.00 Ry     beta= 0.70
     Davidson diagonalization with overlap
     ethr =  3.72E-05,  avg # of iterations =  1.1

     total cpu time spent up to now is       23.8 secs

     total energy              =     -65.64094426 Ry
     estimated scf accuracy    <       0.00345281 Ry

     iteration #  5     ecut=    80.00 Ry     beta= 0.70
     Davidson diagonalization with overlap
     ethr =  2.16E-05,  avg # of iterations =  1.7

     total cpu time spent up to now is       24.1 secs

     total energy              =     -65.64126329 Ry
     estimated scf accuracy    <       0.00000669 Ry

     iteration #  6     ecut=    80.00 Ry     beta= 0.70
     Davidson diagonalization with overlap
     ethr =  4.18E-08,  avg # of iterations =  4.3

     total cpu time spent up to now is       24.5 secs

     total energy              =     -65.64126416 Ry
     estimated scf accuracy    <       0.00001335 Ry

     iteration #  7     ecut=    80.00 Ry     beta= 0.70
     Davidson diagonalization with overlap
     ethr =  4.18E-08,  avg # of iterations =  1.0

     total cpu time spent up to now is       24.8 secs

     total energy              =     -65.64126530 Ry
     estimated scf accuracy    <       0.00000006 Ry

     iteration #  8     ecut=    80.00 Ry     beta= 0.70
     Davidson diagonalization with overlap
     ethr =  3.90E-10,  avg # of iterations =  2.7

     total cpu time spent up to now is       25.1 secs

     End of self-consistent calculation

          k = 0.0000 0.0000 0.0000 (  5289 PWs)   bands (ev):

   -40.4393 -39.6459 -39.6036 -39.3404  -4.2628   0.7066   3.1332   7.1482
    10.1953  10.4345  10.4345  17.7148

          k = 0.0000 0.0000 0.1365 (  5321 PWs)   bands (ev):

   -40.4392 -39.6467 -39.6027 -39.3405  -4.2636   0.6654   3.4546   6.1639
    10.4400  10.4400  11.9531  12.1611

          k = 0.0000 0.1231 0.0000 (  5301 PWs)   bands (ev):

   -40.4321 -39.6382 -39.5997 -39.3407  -4.1276   0.9245   3.2603   7.2829
     8.1257  10.3064  10.6575  14.5121

          k = 0.0000 0.1231 0.1365 (  5316 PWs)   bands (ev):

   -40.4321 -39.6388 -39.5990 -39.3407  -4.1284   0.8793   3.5963   6.2199
     8.2732  10.6628  11.9593  14.2630

          k = 0.0000 0.2461 0.0000 (  5332 PWs)   bands (ev):

   -40.4139 -39.6179 -39.5899 -39.3419  -3.7401   1.5749   3.5883   5.6627
     7.5710  10.1555  11.3267  12.7682

          k = 0.0000 0.2461 0.1365 (  5313 PWs)   bands (ev):

   -40.4139 -39.6182 -39.5896 -39.3419  -3.7407   1.5174   3.9840   5.3291
     7.0632  10.6527  13.1281  14.2742

          k = 0.0000 0.3692 0.0000 (  5326 PWs)   bands (ev):

   -40.3932 -39.5937 -39.5787 -39.3444  -3.1764   2.6450   3.1768   4.7399
     7.3389   8.9826  11.0902  12.9579

          k = 0.0000 0.3692 0.1365 (  5316 PWs)   bands (ev):

   -40.3932 -39.5936 -39.5788 -39.3444  -3.1767   2.5661   3.2766   4.8389
     7.3366   8.3134  11.8273  13.5558

          k = 0.0000 0.4922 0.0000 (  5342 PWs)   bands (ev):

   -40.3796 -39.5771 -39.5714 -39.3469  -2.6697   2.0777   4.0913   5.4752
     5.8757   7.5405  11.2555  14.0663

          k = 0.0000 0.4922 0.1365 (  5339 PWs)   bands (ev):

   -40.3796 -39.5767 -39.5718 -39.3469  -2.6695   2.0909   3.9957   5.5247
     5.9313   7.7552  10.5831  12.9895

          k = 0.1231 0.1231 0.0000 (  5291 PWs)   bands (ev):

   -40.4252 -39.6308 -39.5959 -39.3406  -3.9853   1.1430   3.3957   7.3312
     7.4300   9.6796  10.9254  14.7372

          k = 0.1231 0.1231 0.1365 (  5309 PWs)   bands (ev):

   -40.4252 -39.6313 -39.5953 -39.3406  -3.9860   1.0933   3.7445   6.3501
     7.3365  10.3585  12.0641  14.0593

          k = 0.1231 0.2461 0.0000 (  5309 PWs)   bands (ev):

   -40.4076 -39.6116 -39.5861 -39.3408  -3.5769   1.7953   3.7494   5.4015
     7.7585   9.7996  10.9831  12.8343

          k = 0.1231 0.2461 0.1365 (  5314 PWs)   bands (ev):

   -40.4076 -39.6119 -39.5859 -39.3408  -3.5775   1.7315   4.1518   5.2457
     6.8987  10.5478  10.9563  12.9922

          k = 0.1231 0.3692 0.0000 (  5319 PWs)   bands (ev):

   -40.3876 -39.5889 -39.5751 -39.3419  -2.9793   2.8691   3.1872   4.7932
     7.5781   9.0572  11.1886  11.2494

          k = 0.1231 0.3692 0.1365 (  5328 PWs)   bands (ev):

   -40.3876 -39.5887 -39.5752 -39.3419  -2.9795   2.7794   3.2590   4.9915
     7.4031   8.4511  11.2902  11.9264

          k = 0.1231 0.4922 0.0000 (  5334 PWs)   bands (ev):

   -40.3745 -39.5733 -39.5678 -39.3434  -2.4333   2.0491   4.3242   5.6394
     6.1049   7.6046  11.4656  11.8494

          k = 0.1231 0.4922 0.1365 (  5337 PWs)   bands (ev):

   -40.3745 -39.5729 -39.5682 -39.3434  -2.4330   2.0616   4.2121   5.7367
     6.1255   7.8397  10.6966  11.8522

          k = 0.2461 0.2461 0.0000 (  5333 PWs)   bands (ev):

   -40.3917 -39.5954 -39.5767 -39.3382  -3.1067   2.4533   4.2249   4.4611
     8.2302   9.2250  10.9216  11.6824

          k = 0.2461 0.2461 0.1365 (  5317 PWs)   bands (ev):

   -40.3917 -39.5954 -39.5766 -39.3382  -3.1071   2.3692   4.4671   4.6555
     6.9527   9.9080  11.0132  11.8057

          k = 0.2461 0.3692 0.0000 (  5336 PWs)   bands (ev):

   -40.3734 -39.5764 -39.5658 -39.3358  -2.4072   3.0591   3.5369   5.0364
     8.2762   9.0189   9.6546  11.2291

          k = 0.2461 0.3692 0.1365 (  5326 PWs)   bands (ev):

   -40.3734 -39.5762 -39.5661 -39.3358  -2.4072   3.0768   3.4186   5.4531
     7.5450   8.8530   9.5498  11.9068

          k = 0.2461 0.4922 0.0000 (  5329 PWs)   bands (ev):

   -40.3615 -39.5637 -39.5588 -39.3345  -1.7355   1.9459   5.0136   6.0913
     6.7920   7.8700   9.1127  11.8847

          k = 0.2461 0.4922 0.1365 (  5337 PWs)   bands (ev):

   -40.3615 -39.5633 -39.5592 -39.3345  -1.7350   1.9562   4.8453   6.3468
     6.6881   8.1385   9.1031  10.9849

          k = 0.3692 0.3692 0.0000 (  5351 PWs)   bands (ev):

   -40.3572 -39.5622 -39.5553 -39.3289  -1.5362   2.5357   4.6343   5.5985
     7.6169   9.1679   9.6048  10.3709

          k = 0.3692 0.3692 0.1365 (  5329 PWs)   bands (ev):

   -40.3572 -39.5618 -39.5557 -39.3289  -1.5356   2.5423   4.4490   6.1693
     7.2196   8.8705   8.9356  11.1557

          k = 0.3692 0.4922 0.0000 (  5348 PWs)   bands (ev):

   -40.3467 -39.5528 -39.5485 -39.3244  -0.6262   1.7731   6.0691   6.1267
     7.2294   7.9270   8.3631  11.0741

          k = 0.3692 0.4922 0.1365 (  5325 PWs)   bands (ev):

   -40.3467 -39.5524 -39.5488 -39.3244  -0.6248   1.7810   5.8243   6.2631
     7.3524   7.5422   8.9907  11.1432

          k = 0.4922 0.4922 0.0000 (  5336 PWs)   bands (ev):

   -40.3370 -39.5456 -39.5417 -39.3178   0.6742   1.5726   4.2430   7.5850
     7.9189   8.5610   9.3346   9.4312

          k = 0.4922 0.4922 0.1365 (  5324 PWs)   bands (ev):

   -40.3369 -39.5452 -39.5421 -39.3178   0.6781   1.5795   4.2601   7.0423
     7.8906   8.3563   9.9735  10.8848

     the Fermi energy is     6.3835 ev

!    total energy              =     -65.64126531 Ry
     estimated scf accuracy    <          2.7E-09 Ry
     smearing contrib. (-TS)   =       0.00053505 Ry
     internal energy E=F+TS    =     -65.64180037 Ry

     The total energy is F=E-TS. E is the sum of the following terms:
     one-electron contribution =     -29.31824994 Ry
     hartree contribution      =      14.40993936 Ry
     xc contribution           =     -17.27688837 Ry
     ewald contribution        =     -33.45660142 Ry

     convergence has been achieved in   8 iterations

     Forces acting on atoms (cartesian axes, Ry/au):

     atom    1 type  1   force =     0.00000000    0.00000000   -0.04905791
     atom    2 type  1   force =     0.00000000    0.00000000    0.04905791
     atom    3 type  1   force =     0.00000000    0.00000000    0.00000000
     atom    4 type  1   force =     0.00000000    0.00000000    0.00000000
     atom    5 type  2   force =     0.00000000    0.00000000    0.00000000
     The non-local contrib.  to forces
     atom    1 type  1   force =     0.00000000    0.00000000    0.00112091
     atom    2 type  1   force =     0.00000000    0.00000000   -0.00112091
     atom    3 type  1   force =     0.00000000    0.00000000    0.00000000
     atom    4 type  1   force =     0.00000000    0.00000000    0.00000000
     atom    5 type  2   force =     0.00000000    0.00000000    0.00000000
     The ionic contribution  to forces
     atom    1 type  1   force =     0.00000000    0.00000000   -1.71943255
     atom    2 type  1   force =     0.00000000    0.00000000    1.71943255
     atom    3 type  1   force =     0.00000000    0.00000000   -0.00000000
     atom    4 type  1   force =    -0.00000000    0.00000000   -0.00000000
     atom    5 type  2   force =     0.00000000    0.00000000    0.00000000
     The local contribution  to forces
     atom    1 type  1   force =     0.00000000   -0.00000000    1.66919406
     atom    2 type  1   force =     0.00000000   -0.00000000   -1.66919406
     atom    3 type  1   force =    -0.00000000   -0.00000000   -0.00000000
     atom    4 type  1   force =    -0.00000000   -0.00000000    0.00000000
     atom    5 type  2   force =    -0.00000000   -0.00000000    0.00000000
     The core correction contribution to forces
     atom    1 type  1   force =     0.00000000    0.00000000    0.00000000
     atom    2 type  1   force =     0.00000000    0.00000000    0.00000000
     atom    3 type  1   force =     0.00000000    0.00000000    0.00000000
     atom    4 type  1   force =     0.00000000    0.00000000    0.00000000
     atom    5 type  2   force =    -0.00000000    0.00000000   -0.00000000
     The Hubbard contrib.    to forces
     atom    1 type  1   force =     0.00000000    0.00000000    0.00000000
     atom    2 type  1   force =     0.00000000    0.00000000    0.00000000
     atom    3 type  1   force =     0.00000000    0.00000000    0.00000000
     atom    4 type  1   force =     0.00000000    0.00000000    0.00000000
     atom    5 type  2   force =     0.00000000    0.00000000    0.00000000
     The SCF correction term to forces
     atom    1 type  1   force =     0.00000000   -0.00000000    0.00005967
     atom    2 type  1   force =     0.00000000    0.00000000   -0.00005967
     atom    3 type  1   force =    -0.00000000   -0.00000000    0.00000000
     atom    4 type  1   force =    -0.00000000    0.00000000   -0.00000000
     atom    5 type  2   force =     0.00000000   -0.00000000   -0.00000000

     Total force =     0.069378     Total SCF correction =     0.000084


     Computing stress (Cartesian axis) and pressure

          total   stress  (Ry/bohr**3)                   (kbar)     P=      539.60
   0.00410519   0.00000000   0.00000000          603.89        0.00        0.00
   0.00000000   0.00410519   0.00000000            0.00      603.89        0.00
   0.00000000   0.00000000   0.00279403            0.00        0.00      411.02

     Energy error            =      1.5E-02 Ry
     Gradient error          =      4.9E-02 Ry/Bohr
     Cell gradient error     =      1.0E+02 kbar

     number of scf cycles    =   4
     number of bfgs steps    =   3

     enthalpy           old  =     -64.4858598390 Ry
     enthalpy           new  =     -64.5011682393 Ry

     CASE: enthalpy          _new < enthalpy          _old


     WARNING: bfgs curvature condition failed, Theta= 0.883
     new trust radius        =       0.1070870826 bohr
ibrav =      6
 celldm(1) =      5.04781158
 celldm(3) =      2.60644029
Input lattice vectors:
     0.91394363     0.00000000     0.00000000
     0.00000000     0.91394363     0.00000000
     0.00000000     0.00000000     2.38213950
New lattice vectors in INITIAL alat:
     0.91394363     0.00000000     0.00000000
     0.00000000     0.91394363     0.00000000
     0.00000000     0.00000000     2.38213950
New lattice vectors in NEW alat (for information only):
     1.00000000     0.00000000     0.00000000
     0.00000000     1.00000000     0.00000000
     0.00000000     0.00000000     2.60644029
Discrepancy in bohr =     0.000000    0.000000    0.000000
     new conv_thr            =       0.0000000049 Ry

     new unit-cell volume =    335.24105 a.u.^3 (    49.67760 Ang^3 )
     density =      1.86684 g/cm^3

CELL_PARAMETERS (alat=  5.52311041)
   0.913943631   0.000000000   0.000000000
   0.000000000   0.913943631   0.000000000
   0.000000000   0.000000000   2.382139500

ATOMIC_POSITIONS (crystal)
Li            0.0000000000        0.0000000000        0.2056612300
Li            0.0000000000        0.0000000000        0.7943387700
Li            0.5000000000        0.5000000000        0.0000000000
Li            0.5000000000        0.5000000000        0.5000000000
Si            0.0000000000        0.0000000000        0.5000000000



     Writing config-only to output data dir ./output/LiSi.save/
     NEW-OLD atomic charge density approx. for the potential
     extrapolated charge   15.99108, renormalised to   16.00000

     total cpu time spent up to now is       26.9 secs

     Self-consistent Calculation

     iteration #  1     ecut=    80.00 Ry     beta= 0.70
     Davidson diagonalization with overlap
     ethr =  1.00E-06,  avg # of iterations =  7.6

     total cpu time spent up to now is       27.5 secs

     total energy              =     -65.65884537 Ry
     estimated scf accuracy    <       0.00348214 Ry

     iteration #  2     ecut=    80.00 Ry     beta= 0.70
     Davidson diagonalization with overlap
     ethr =  2.18E-05,  avg # of iterations =  2.8

     total cpu time spent up to now is       27.9 secs

     total energy              =     -65.65752977 Ry
     estimated scf accuracy    <       0.02828001 Ry

     iteration #  3     ecut=    80.00 Ry     beta= 0.70
     Davidson diagonalization with overlap
     ethr =  2.18E-05,  avg # of iterations =  2.3

     total cpu time spent up to now is       28.2 secs

     total energy              =     -65.66099970 Ry
     estimated scf accuracy    <       0.00003907 Ry

     iteration #  4     ecut=    80.00 Ry     beta= 0.70
     Davidson diagonalization with overlap
     ethr =  2.44E-07,  avg # of iterations =  2.7

     total cpu time spent up to now is       28.5 secs

     total energy              =     -65.66100957 Ry
     estimated scf accuracy    <       0.00002248 Ry

     iteration #  5     ecut=    80.00 Ry     beta= 0.70
     Davidson diagonalization with overlap
     ethr =  1.40E-07,  avg # of iterations =  1.3

     total cpu time spent up to now is       28.8 secs

     total energy              =     -65.66101197 Ry
     estimated scf accuracy    <       0.00000014 Ry

     iteration #  6     ecut=    80.00 Ry     beta= 0.70
     Davidson diagonalization with overlap
     ethr =  8.60E-10,  avg # of iterations =  3.1

     total cpu time spent up to now is       29.2 secs

     total energy              =     -65.66101202 Ry
     estimated scf accuracy    <       0.00000003 Ry

     iteration #  7     ecut=    80.00 Ry     beta= 0.70
     Davidson diagonalization with overlap
     ethr =  2.12E-10,  avg # of iterations =  1.1

     total cpu time spent up to now is       29.4 secs

     End of self-consistent calculation

          k = 0.0000 0.0000 0.0000 (  5289 PWs)   bands (ev):

   -40.2505 -39.6546 -39.5693 -39.3957  -4.1256   0.8673   3.1884   7.6840
    10.3128  10.3128  10.3722  17.1233

          k = 0.0000 0.0000 0.1399 (  5321 PWs)   bands (ev):

   -40.2505 -39.6554 -39.5684 -39.3959  -4.1267   0.8115   3.5585   6.4907
    10.3214  10.3214  12.1959  12.3967

          k = 0.0000 0.1216 0.0000 (  5301 PWs)   bands (ev):

   -40.2442 -39.6447 -39.5659 -39.3989  -3.9903   1.0798   3.3064   7.7922
     8.1205  10.4625  10.5321  14.4205

          k = 0.0000 0.1216 0.1399 (  5316 PWs)   bands (ev):

   -40.2441 -39.6454 -39.5651 -39.3991  -3.9913   1.0186   3.6921   6.5113
     8.2889  10.5405  12.3002  14.1541

          k = 0.0000 0.2431 0.0000 (  5332 PWs)   bands (ev):

   -40.2281 -39.6179 -39.5572 -39.4089  -3.6019   1.7143   3.6082   5.7052
     7.9703  10.2152  11.1903  12.8374

          k = 0.0000 0.2431 0.1399 (  5313 PWs)   bands (ev):

   -40.2280 -39.6183 -39.5568 -39.4089  -3.6027   1.6362   4.0540   5.4031
     7.3100  10.5401  11.1982  13.4686

          k = 0.0000 0.3647 0.0000 (  5326 PWs)   bands (ev):

   -40.2097 -39.5823 -39.5472 -39.4254  -3.0352   2.7587   3.2145   4.7490
     7.4867   8.9029  11.4234  12.9514

          k = 0.0000 0.3647 0.1399 (  5316 PWs)   bands (ev):

   -40.2097 -39.5822 -39.5473 -39.4253  -3.0355   2.6497   3.3369   4.8839
     7.5001   8.2419  11.9025  13.6761

          k = 0.0000 0.4863 0.0000 (  5342 PWs)   bands (ev):

   -40.1977 -39.5526 -39.5407 -39.4425  -2.5230   2.1346   4.1743   5.4206
     5.9258   7.4711  11.6434  13.3824

          k = 0.0000 0.4863 0.1399 (  5339 PWs)   bands (ev):

   -40.1977 -39.5522 -39.5411 -39.4425  -2.5227   2.1553   4.0362   5.5412
     5.8870   7.8398  10.7445  13.0621

          k = 0.1216 0.1216 0.0000 (  5291 PWs)   bands (ev):

   -40.2380 -39.6353 -39.5625 -39.4017  -3.8483   1.2929   3.4326   7.3517
     7.9166   9.6995  10.9300  14.2630

          k = 0.1216 0.1216 0.1399 (  5309 PWs)   bands (ev):

   -40.2380 -39.6359 -39.5618 -39.4018  -3.8492   1.2257   3.8322   6.6331
     7.3602  10.2699  12.3767  13.6243

          k = 0.1216 0.2431 0.0000 (  5309 PWs)   bands (ev):

   -40.2225 -39.6099 -39.5538 -39.4103  -3.4403   1.9293   3.7600   5.4585
     8.1471   9.8167  10.8865  12.6846

          k = 0.1216 0.2431 0.1399 (  5314 PWs)   bands (ev):

   -40.2224 -39.6102 -39.5535 -39.4103  -3.4409   1.8427   4.2144   5.3159
     7.1343  10.4536  10.7875  13.1784

          k = 0.1216 0.3647 0.0000 (  5319 PWs)   bands (ev):

   -40.2047 -39.5763 -39.5440 -39.4248  -2.8413   2.9772   3.2380   4.7889
     7.7198   8.9675  11.0846  11.4958

          k = 0.1216 0.3647 0.1399 (  5328 PWs)   bands (ev):

   -40.2047 -39.5762 -39.5441 -39.4247  -2.8415   2.8538   3.3305   5.0273
     7.5690   8.3439  11.1374  11.9635

          k = 0.1216 0.4863 0.0000 (  5334 PWs)   bands (ev):

   -40.1931 -39.5489 -39.5375 -39.4397  -2.2912   2.1161   4.4011   5.5710
     6.1494   7.5186  11.7047  11.8455

          k = 0.1216 0.4863 0.1399 (  5337 PWs)   bands (ev):

   -40.1931 -39.5485 -39.5379 -39.4397  -2.2908   2.1356   4.2415   5.7431
     6.0692   7.9142  10.8355  11.7100

          k = 0.2431 0.2431 0.0000 (  5333 PWs)   bands (ev):

   -40.2082 -39.5883 -39.5454 -39.4151  -2.9738   2.5712   4.2053   4.5507
     8.5658   9.1470  10.9662  11.2886

          k = 0.2431 0.2431 0.1399 (  5317 PWs)   bands (ev):

   -40.2082 -39.5884 -39.5453 -39.4151  -2.9742   2.4574   4.5603   4.6955
     7.1203   9.8191  10.6545  11.8763

          k = 0.2431 0.3647 0.0000 (  5336 PWs)   bands (ev):

   -40.1921 -39.5607 -39.5357 -39.4237  -2.2779   3.1540   3.6287   4.9823
     8.4006   8.9052   9.4472  11.3933

          k = 0.2431 0.3647 0.1399 (  5326 PWs)   bands (ev):

   -40.1920 -39.5605 -39.5359 -39.4236  -2.2776   3.1784   3.4693   5.4599
     7.6425   8.6592   9.4548  11.8146

          k = 0.2431 0.4863 0.0000 (  5329 PWs)   bands (ev):

   -40.1815 -39.5394 -39.5294 -39.4325  -1.6063   2.0415   5.0724   5.9792
     6.8201   7.7276   8.9875  12.1718

          k = 0.2431 0.4863 0.1399 (  5337 PWs)   bands (ev):

   -40.1815 -39.5390 -39.5298 -39.4325  -1.6054   2.0577   4.8390   6.3230
     6.5909   8.1686   8.9875  11.0619

          k = 0.3647 0.3647 0.0000 (  5351 PWs)   bands (ev):

   -40.1776 -39.5418 -39.5264 -39.4236  -1.4171   2.6675   4.6994   5.4731
     7.5086   9.2540   9.2634  10.3469

          k = 0.3647 0.3647 0.1399 (  5329 PWs)   bands (ev):

   -40.1776 -39.5415 -39.5267 -39.4235  -1.4159   2.6779   4.4481   6.1217
     7.1410   8.6274   8.9464  11.1364

          k = 0.3647 0.4863 0.0000 (  5348 PWs)   bands (ev):

   -40.1682 -39.5286 -39.5202 -39.4244  -0.5129   1.9043   5.9282   6.1565
     7.1007   7.9298   8.1215  11.0874

          k = 0.3647 0.4863 0.1399 (  5325 PWs)   bands (ev):

   -40.1682 -39.5282 -39.5206 -39.4244  -0.5106   1.9167   5.7416   6.1719
     7.2796   7.3626   8.9927  11.1361

          k = 0.4863 0.4863 0.0000 (  5336 PWs)   bands (ev):

   -40.1595 -39.5215 -39.5142 -39.4191   0.7874   1.7247   4.1462   7.5760
     7.6724   8.2455   9.3361   9.3836

          k = 0.4863 0.4863 0.1399 (  5324 PWs)   bands (ev):

   -40.1595 -39.5211 -39.5146 -39.4191   0.7934   1.7357   4.1688   6.8636
     7.6077   8.2584   9.9490  10.8987

     the Fermi energy is     6.4214 ev

!    total energy              =     -65.66101202 Ry
     estimated scf accuracy    <          3.9E-10 Ry
     smearing contrib. (-TS)   =       0.00097232 Ry
     internal energy E=F+TS    =     -65.66198435 Ry

     The total energy is F=E-TS. E is the sum of the following terms:
     one-electron contribution =     -28.37410660 Ry
     hartree contribution      =      13.95829148 Ry
     xc contribution           =     -17.26133114 Ry
     ewald contribution        =     -33.98483808 Ry

     convergence has been achieved in   7 iterations

     Forces acting on atoms (cartesian axes, Ry/au):

     atom    1 type  1   force =     0.00000000    0.00000000   -0.04097882
     atom    2 type  1   force =     0.00000000    0.00000000    0.04097882
     atom    3 type  1   force =     0.00000000    0.00000000    0.00000000
     atom    4 type  1   force =     0.00000000    0.00000000    0.00000000
     atom    5 type  2   force =     0.00000000    0.00000000    0.00000000
     The non-local contrib.  to forces
     atom    1 type  1   force =     0.00000000    0.00000000    0.00608880
     atom    2 type  1   force =     0.00000000    0.00000000   -0.00608880
     atom    3 type  1   force =     0.00000000    0.00000000    0.00000000
     atom    4 type  1   force =     0.00000000    0.00000000    0.00000000
     atom    5 type  2   force =     0.00000000    0.00000000    0.00000000
     The ionic contribution  to forces
     atom    1 type  1   force =     0.00000000    0.00000000   -1.39149672
     atom    2 type  1   force =     0.00000000    0.00000000    1.39149672
     atom    3 type  1   force =     0.00000000    0.00000000   -0.00000000
     atom    4 type  1   force =     0.00000000    0.00000000   -0.00000000
     atom    5 type  2   force =     0.00000000    0.00000000   -0.00000000
     The local contribution  to forces
     atom    1 type  1   force =     0.00000000   -0.00000000    1.34445505
     atom    2 type  1   force =     0.00000000    0.00000000   -1.34445505
     atom    3 type  1   force =    -0.00000000   -0.00000000   -0.00000000
     atom    4 type  1   force =    -0.00000000   -0.00000000    0.00000000
     atom    5 type  2   force =     0.00000000    0.00000000    0.00000000
     The core correction contribution to forces
     atom    1 type  1   force =     0.00000000    0.00000000    0.00000000
     atom    2 type  1   force =     0.00000000    0.00000000    0.00000000
     atom    3 type  1   force =     0.00000000    0.00000000    0.00000000
     atom    4 type  1   force =     0.00000000    0.00000000    0.00000000
     atom    5 type  2   force =     0.00000000    0.00000000   -0.00000000
     The Hubbard contrib.    to forces
     atom    1 type  1   force =     0.00000000    0.00000000    0.00000000
     atom    2 type  1   force =     0.00000000    0.00000000    0.00000000
     atom    3 type  1   force =     0.00000000    0.00000000    0.00000000
     atom    4 type  1   force =     0.00000000    0.00000000    0.00000000
     atom    5 type  2   force =     0.00000000    0.00000000    0.00000000
     The SCF correction term to forces
     atom    1 type  1   force =    -0.00000000   -0.00000000   -0.00002595
     atom    2 type  1   force =     0.00000000   -0.00000000    0.00002595
     atom    3 type  1   force =     0.00000000   -0.00000000    0.00000000
     atom    4 type  1   force =     0.00000000    0.00000000   -0.00000000
     atom    5 type  2   force =    -0.00000000   -0.00000000   -0.00000000

     Total force =     0.057953     Total SCF correction =     0.000037


     Computing stress (Cartesian axis) and pressure

          total   stress  (Ry/bohr**3)                   (kbar)     P=      524.90
   0.00400224   0.00000000   0.00000000          588.75        0.00        0.00
   0.00000000   0.00400224   0.00000000            0.00      588.75        0.00
   0.00000000   0.00000000   0.00270010            0.00        0.00      397.20

     Energy error            =      2.0E-02 Ry
     Gradient error          =      4.1E-02 Ry/Bohr
     Cell gradient error     =      1.0E+02 kbar

     number of scf cycles    =   5
     number of bfgs steps    =   4

     enthalpy           old  =     -64.5011682393 Ry
     enthalpy           new  =     -64.5215508668 Ry

     CASE: enthalpy          _new < enthalpy          _old

     new trust radius        =       0.1567048851 bohr
ibrav =      6
 celldm(1) =      5.13292998
 celldm(3) =      2.45353008
Input lattice vectors:
     0.92935495     0.00000000     0.00000000
     0.00000000     0.92935495     0.00000000
     0.00000000     0.00000000     2.28020032
New lattice vectors in INITIAL alat:
     0.92935495     0.00000000     0.00000000
     0.00000000     0.92935495     0.00000000
     0.00000000     0.00000000     2.28020032
New lattice vectors in NEW alat (for information only):
     1.00000000     0.00000000     0.00000000
     0.00000000     1.00000000     0.00000000
     0.00000000     0.00000000     2.45353008
Discrepancy in bohr =     0.000000    0.000000    0.000000
     new conv_thr            =       0.0000000041 Ry

     new unit-cell volume =    331.80842 a.u.^3 (    49.16894 Ang^3 )
     density =      1.88616 g/cm^3

CELL_PARAMETERS (alat=  5.52311041)
   0.929354947   0.000000000   0.000000000
   0.000000000   0.929354947   0.000000000
   0.000000000   0.000000000   2.280200320

ATOMIC_POSITIONS (crystal)
Li            0.0000000000        0.0000000000        0.1938890401
Li            0.0000000000        0.0000000000        0.8061109599
Li            0.5000000000        0.5000000000        0.0000000000
Li            0.5000000000        0.5000000000        0.5000000000
Si            0.0000000000        0.0000000000        0.5000000000



     Writing config-only to output data dir ./output/LiSi.save/
     NEW-OLD atomic charge density approx. for the potential
     extrapolated charge   15.83467, renormalised to   16.00000

     total cpu time spent up to now is       31.1 secs

     Self-consistent Calculation

     iteration #  1     ecut=    80.00 Ry     beta= 0.70
     Davidson diagonalization with overlap
[...]
     unit-cell volume          =     331.1434 (a.u.)^3
     number of atoms/cell      =            5
     number of atomic types    =            2
     number of electrons       =        16.00
     number of Kohn-Sham states=           12
     kinetic-energy cutoff     =      80.0000  Ry
     charge density cutoff     =     320.0000  Ry
     scf convergence threshold =      1.0E-10
     mixing beta               =       0.7000
     number of iterations used =            8  plain     mixing
     press convergence thresh. =      1.0E+00
     Exchange-correlation= PBE
                           (   1   4   3   4   0   0   0)

     celldm(1)=   5.523110  celldm(2)=   0.000000  celldm(3)=   2.615919
     celldm(4)=   0.000000  celldm(5)=   0.000000  celldm(6)=   0.000000

     crystal axes: (cart. coord. in units of alat)
               a(1) = (   0.959013   0.000000   0.000000 )  
               a(2) = (   0.000000   0.959013   0.000000 )  
               a(3) = (   0.000000   0.000000   2.137057 )  

     reciprocal axes: (cart. coord. in units 2 pi/alat)
               b(1) = (  1.042739  0.000000  0.000000 )  
               b(2) = (  0.000000  1.042739  0.000000 )  
               b(3) = (  0.000000  0.000000  0.467933 )  


     PseudoPot. # 1 for Li read from file:
     ../pseudo/Li_ONCV_PBE_sr.upf
     MD5 check sum: 50ff420e78310ffa21704f3361e624a4
     Pseudo is Norm-conserving, Zval =  3.0
     Generated using ONCVPSP code by D. R. Hamann
     Using radial grid of 1944 points,  4 beta functions with: 
                l(1) =   0
                l(2) =   0
                l(3) =   1
                l(4) =   1

     PseudoPot. # 2 for Si read from file:
     ../pseudo/Si_ONCV_PBE_sr.upf
     MD5 check sum: e543d271109d17c80368dfa7c482276d
     Pseudo is Norm-conserving + core correction, Zval =  4.0
     Generated using ONCVPSP code by D. R. Hamann
     Using radial grid of 1510 points,  6 beta functions with: 
                l(1) =   0
                l(2) =   0
                l(3) =   1
                l(4) =   1
                l(5) =   2
                l(6) =   2

     atomic species   valence    mass     pseudopotential
        Li             3.00     6.94100     Li( 1.00)
        Si             4.00    28.08550     Si( 1.00)

     16 Sym. Ops., with inversion, found



   Cartesian axes

     site n.     atom                  positions (alat units)
         1           Li  tau(   1) = (   0.0000000   0.0000000   0.3735033  )
         2           Li  tau(   2) = (   0.0000000   0.0000000   1.7635536  )
         3           Li  tau(   3) = (   0.4795064   0.4795064   0.0000000  )
         4           Li  tau(   4) = (   0.4795064   0.4795064   1.0685285  )
         5           Si  tau(   5) = (   0.0000000   0.0000000   1.0685285  )

     number of k points=    30  Marzari-Vanderbilt smearing, width (Ry)=  0.0200
                       cart. coord. in units 2pi/alat
        k(    1) = (   0.0000000   0.0000000   0.0000000), wk =   0.0082305
        k(    2) = (   0.0000000   0.0000000   0.1559778), wk =   0.0164609
        k(    3) = (   0.0000000   0.1158599   0.0000000), wk =   0.0329218
        k(    4) = (   0.0000000   0.1158599   0.1559778), wk =   0.0658436
        k(    5) = (   0.0000000   0.2317197   0.0000000), wk =   0.0329218
        k(    6) = (   0.0000000   0.2317197   0.1559778), wk =   0.0658436
        k(    7) = (   0.0000000   0.3475796   0.0000000), wk =   0.0329218
        k(    8) = (   0.0000000   0.3475796   0.1559778), wk =   0.0658436
        k(    9) = (   0.0000000   0.4634395   0.0000000), wk =   0.0329218
        k(   10) = (   0.0000000   0.4634395   0.1559778), wk =   0.0658436
        k(   11) = (   0.1158599   0.1158599   0.0000000), wk =   0.0329218
        k(   12) = (   0.1158599   0.1158599   0.1559778), wk =   0.0658436
        k(   13) = (   0.1158599   0.2317197   0.0000000), wk =   0.0658436
        k(   14) = (   0.1158599   0.2317197   0.1559778), wk =   0.1316872
        k(   15) = (   0.1158599   0.3475796   0.0000000), wk =   0.0658436
        k(   16) = (   0.1158599   0.3475796   0.1559778), wk =   0.1316872
        k(   17) = (   0.1158599   0.4634395   0.0000000), wk =   0.0658436
        k(   18) = (   0.1158599   0.4634395   0.1559778), wk =   0.1316872
        k(   19) = (   0.2317197   0.2317197   0.0000000), wk =   0.0329218
        k(   20) = (   0.2317197   0.2317197   0.1559778), wk =   0.0658436
        k(   21) = (   0.2317197   0.3475796   0.0000000), wk =   0.0658436
        k(   22) = (   0.2317197   0.3475796   0.1559778), wk =   0.1316872
        k(   23) = (   0.2317197   0.4634395   0.0000000), wk =   0.0658436
        k(   24) = (   0.2317197   0.4634395   0.1559778), wk =   0.1316872
        k(   25) = (   0.3475796   0.3475796   0.0000000), wk =   0.0329218
        k(   26) = (   0.3475796   0.3475796   0.1559778), wk =   0.0658436
        k(   27) = (   0.3475796   0.4634395   0.0000000), wk =   0.0658436
        k(   28) = (   0.3475796   0.4634395   0.1559778), wk =   0.1316872
        k(   29) = (   0.4634395   0.4634395   0.0000000), wk =   0.0329218
        k(   30) = (   0.4634395   0.4634395   0.1559778), wk =   0.0658436

     Dense  grid:    31999 G-vectors     FFT dimensions: (  32,  32,  72)

     Estimated max dynamical RAM per process >      17.61 MB

     Estimated total dynamical RAM >     140.89 MB

     Initial potential from superposition of free atoms

     starting charge      15.9811, renormalised to      16.0000
     Starting wfcs are   12 randomized atomic wfcs

     total cpu time spent up to now is       52.3 secs

     Self-consistent Calculation

     iteration #  1     ecut=    80.00 Ry     beta= 0.70
     Davidson diagonalization with overlap
     c_bands:  1 eigenvalues not converged
     c_bands:  1 eigenvalues not converged
     c_bands:  1 eigenvalues not converged
     c_bands:  1 eigenvalues not converged
     c_bands:  1 eigenvalues not converged
     c_bands:  1 eigenvalues not converged
     c_bands:  1 eigenvalues not converged
     ethr =  1.00E-06,  avg # of iterations = 17.2

     total cpu time spent up to now is       53.2 secs

     total energy              =     -65.68517369 Ry
     estimated scf accuracy    <       0.03909544 Ry

     iteration #  2     ecut=    80.00 Ry     beta= 0.70
     Davidson diagonalization with overlap
     ethr =  2.44E-04,  avg # of iterations =  1.9

     total cpu time spent up to now is       53.5 secs

     total energy              =     -65.68237731 Ry
     estimated scf accuracy    <       0.01327146 Ry

     iteration #  3     ecut=    80.00 Ry     beta= 0.70
     Davidson diagonalization with overlap
     ethr =  8.29E-05,  avg # of iterations =  2.1

     total cpu time spent up to now is       53.8 secs

     total energy              =     -65.68303025 Ry
     estimated scf accuracy    <       0.04236663 Ry

     iteration #  4     ecut=    80.00 Ry     beta= 0.70
     Davidson diagonalization with overlap
     ethr =  8.29E-05,  avg # of iterations =  1.9

     total cpu time spent up to now is       54.0 secs

     total energy              =     -65.68876168 Ry
     estimated scf accuracy    <       0.00005577 Ry

     iteration #  5     ecut=    80.00 Ry     beta= 0.70
     Davidson diagonalization with overlap
     ethr =  3.49E-07,  avg # of iterations =  3.7

     total cpu time spent up to now is       54.3 secs

     total energy              =     -65.68877375 Ry
     estimated scf accuracy    <       0.00000093 Ry

     iteration #  6     ecut=    80.00 Ry     beta= 0.70
     Davidson diagonalization with overlap
     ethr =  5.82E-09,  avg # of iterations =  2.5

     total cpu time spent up to now is       54.6 secs

     total energy              =     -65.68877406 Ry
     estimated scf accuracy    <       0.00000001 Ry

     iteration #  7     ecut=    80.00 Ry     beta= 0.70
     Davidson diagonalization with overlap
     ethr =  8.32E-11,  avg # of iterations =  3.1

     total cpu time spent up to now is       54.8 secs

     total energy              =     -65.68877406 Ry
     estimated scf accuracy    <          4.3E-10 Ry

     iteration #  8     ecut=    80.00 Ry     beta= 0.70
     Davidson diagonalization with overlap
     ethr =  2.71E-12,  avg # of iterations =  2.5

     total cpu time spent up to now is       55.1 secs

     End of self-consistent calculation

          k = 0.0000 0.0000 0.0000 (  4009 PWs)   bands (ev):

   -39.8125 -39.6121 -39.2663 -39.2285  -3.8007   1.4018   3.7714   9.5822
     9.5822  10.2569  11.4810  12.0340

          k = 0.0000 0.0000 0.1560 (  4022 PWs)   bands (ev):

   -39.8118 -39.6133 -39.2657 -39.2287  -3.8019   1.2821   4.3596   8.0079
     9.6213   9.6213  12.0628  14.4661

          k = 0.0000 0.1159 0.0000 (  4031 PWs)   bands (ev):

   -39.8085 -39.6002 -39.2643 -39.2366  -3.6686   1.5962   3.8501   7.8147
     9.7852  10.1883  11.4377  13.7375

          k = 0.0000 0.1159 0.1560 (  4014 PWs)   bands (ev):

   -39.8079 -39.6011 -39.2638 -39.2368  -3.6693   1.4642   4.4584   7.5159
     8.4596   9.8238  12.4477  13.8627

          k = 0.0000 0.2317 0.0000 (  4015 PWs)   bands (ev):

   -39.7985 -39.5668 -39.2601 -39.2590  -3.2884   2.1777   3.9893   5.6823
     9.5860  10.3927  10.4677  12.9069

          k = 0.0000 0.2317 0.1560 (  4017 PWs)   bands (ev):

   -39.7981 -39.5673 -39.2602 -39.2588  -3.2878   2.0064   4.6452   5.5277
     8.5447   9.9278  10.4298  13.9987

          k = 0.0000 0.3476 0.0000 (  4023 PWs)   bands (ev):

   -39.7871 -39.5199 -39.2956 -39.2530  -2.7303   3.1406   3.2209   5.0857
     7.9945   8.7738  11.3948  13.2205

          k = 0.0000 0.3476 0.1560 (  4002 PWs)   bands (ev):

   -39.7870 -39.5201 -39.2955 -39.2532  -2.7279   2.8859   3.4023   5.4336
     7.6040   8.8055  11.4299  12.3566

          k = 0.0000 0.4634 0.0000 (  4013 PWs)   bands (ev):

   -39.7798 -39.4776 -39.3305 -39.2491  -2.2209   2.1563   4.4710   5.6441
     6.1312   7.4302  12.7115  13.5208

          k = 0.0000 0.4634 0.1560 (  3994 PWs)   bands (ev):

   -39.7797 -39.4776 -39.3301 -39.2495  -2.2173   2.2281   4.1281   5.7067
     5.9827   8.5722  11.7600  12.7457

          k = 0.1159 0.1159 0.0000 (  4019 PWs)   bands (ev):

   -39.8047 -39.5888 -39.2622 -39.2440  -3.5312   1.7910   3.9384   7.1384
     9.2982  10.1809  11.5697  12.7866

          k = 0.1159 0.1159 0.1560 (  4013 PWs)   bands (ev):

   -39.8042 -39.5896 -39.2618 -39.2441  -3.5314   1.6455   4.5649   7.1789
     7.8876   9.7504  12.0780  13.1646

          k = 0.1159 0.2317 0.0000 (  4018 PWs)   bands (ev):

   -39.7950 -39.5573 -39.2655 -39.2570  -3.1352   2.3739   4.1089   5.4608
     9.4874   9.7371  10.5809  12.2858

          k = 0.1159 0.2317 0.1560 (  4012 PWs)   bands (ev):

   -39.7947 -39.5577 -39.2655 -39.2569  -3.1341   2.1848   4.7698   5.4191
     8.1985   9.8697  10.0327  13.1390

          k = 0.1159 0.3476 0.0000 (  4003 PWs)   bands (ev):

   -39.7840 -39.5135 -39.2978 -39.2510  -2.5505   3.2554   3.3390   5.0827
     8.2028   8.7638  10.2250  12.8093

          k = 0.1159 0.3476 0.1560 (  4010 PWs)   bands (ev):

   -39.7839 -39.5136 -39.2976 -39.2512  -2.5475   3.0520   3.4187   5.5356
     7.6987   8.6865  10.3805  12.2427

          k = 0.1159 0.4634 0.0000 (  3992 PWs)   bands (ev):

   -39.7769 -39.4746 -39.3291 -39.2471  -2.0086   2.1627   4.6719   5.7191
     6.3380   7.4139  10.8639  13.5051

          k = 0.1159 0.4634 0.1560 (  3991 PWs)   bands (ev):

   -39.7769 -39.4746 -39.3287 -39.2476  -2.0044   2.2322   4.2892   5.8462
     6.1182   8.5978  10.8516  11.7470

          k = 0.2317 0.2317 0.0000 (  4001 PWs)   bands (ev):

   -39.7862 -39.5313 -39.2810 -39.2518  -2.6916   2.9606   4.4600   4.6103
     8.5900   9.9351  10.1320  11.4996

          k = 0.2317 0.2317 0.1560 (  4014 PWs)   bands (ev):

   -39.7860 -39.5315 -39.2809 -39.2519  -2.6889   2.7134   4.6546   5.2107
     7.6838   9.4159   9.6818  11.9196

          k = 0.2317 0.3476 0.0000 (  3993 PWs)   bands (ev):

   -39.7762 -39.4962 -39.3041 -39.2460  -2.0259   3.2570   3.9311   5.0789
     8.3492   8.7268   8.8125  11.8115

          k = 0.2317 0.3476 0.1560 (  4002 PWs)   bands (ev):

   -39.7761 -39.4963 -39.3038 -39.2463  -2.0208   3.3204   3.5918   5.8186
     7.7471   7.9348   9.4685  11.6848

          k = 0.2317 0.4634 0.0000 (  3985 PWs)   bands (ev):

   -39.7697 -39.4671 -39.3254 -39.2422  -1.3790   2.1652   5.2669   5.8732
     6.9595   7.4085   8.3468  12.4805

          k = 0.2317 0.4634 0.1560 (  3981 PWs)   bands (ev):

   -39.7696 -39.4671 -39.3250 -39.2426  -1.3725   2.2278   4.7464   6.2052
     6.5044   8.1286   8.8818  11.5715

          k = 0.3476 0.3476 0.0000 (  3982 PWs)   bands (ev):

   -39.7672 -39.4745 -39.3133 -39.2403  -1.2181   2.8916   4.9064   5.1594
     7.0779   8.3093   9.5250  10.3723

          k = 0.3476 0.3476 0.1560 (  4001 PWs)   bands (ev):

   -39.7672 -39.4745 -39.3130 -39.2407  -1.2093   2.9390   4.3663   5.9847
     6.9002   7.5855   9.4958  11.1045

          k = 0.3476 0.4634 0.0000 (  3985 PWs)   bands (ev):

   -39.7614 -39.4584 -39.3213 -39.2366  -0.3622   2.1360   5.2801   6.2293
     6.8432   7.4836   7.9915  11.1637

          k = 0.3476 0.4634 0.1560 (  3997 PWs)   bands (ev):

   -39.7614 -39.4584 -39.3209 -39.2370  -0.3503   2.1895   5.3138   5.6892
     6.6151   7.2873   9.3140  11.1867

          k = 0.4634 0.4634 0.0000 (  3986 PWs)   bands (ev):

   -39.7560 -39.4527 -39.3186 -39.2329   0.8992   2.0283   3.5939   7.0575
     7.3913   7.4730   9.2456   9.4596

          k = 0.4634 0.4634 0.1560 (  3985 PWs)   bands (ev):

   -39.7560 -39.4527 -39.3182 -39.2334   0.9224   2.0774   3.6553   6.1836
     6.6631   7.9248  10.0299  10.9578

     the Fermi energy is     6.3535 ev

!    total energy              =     -65.68877406 Ry
     estimated scf accuracy    <          1.6E-11 Ry
     smearing contrib. (-TS)   =       0.00070064 Ry
     internal energy E=F+TS    =     -65.68947470 Ry

     The total energy is F=E-TS. E is the sum of the following terms:
     one-electron contribution =     -26.04380655 Ry
     hartree contribution      =      12.88536071 Ry
     xc contribution           =     -17.21626959 Ry
     ewald contribution        =     -35.31475927 Ry

     convergence has been achieved in   8 iterations

     Forces acting on atoms (cartesian axes, Ry/au):

     atom    1 type  1   force =     0.00000000    0.00000000   -0.00017486
     atom    2 type  1   force =     0.00000000    0.00000000    0.00017486
     atom    3 type  1   force =     0.00000000    0.00000000    0.00000000
     atom    4 type  1   force =     0.00000000    0.00000000    0.00000000
     atom    5 type  2   force =     0.00000000    0.00000000    0.00000000
     The non-local contrib.  to forces
     atom    1 type  1   force =     0.00000000    0.00000000    0.03726480
     atom    2 type  1   force =     0.00000000    0.00000000   -0.03726480
     atom    3 type  1   force =     0.00000000    0.00000000    0.00000000
     atom    4 type  1   force =     0.00000000    0.00000000    0.00000000
     atom    5 type  2   force =     0.00000000    0.00000000    0.00000000
     The ionic contribution  to forces
     atom    1 type  1   force =    -0.00000000   -0.00000000   -0.32583311
     atom    2 type  1   force =    -0.00000000   -0.00000000    0.32583311
     atom    3 type  1   force =    -0.00000000    0.00000000   -0.00000000
     atom    4 type  1   force =     0.00000000    0.00000000    0.00000000
     atom    5 type  2   force =    -0.00000000   -0.00000000    0.00000000
     The local contribution  to forces
     atom    1 type  1   force =    -0.00000000    0.00000000    0.28839201
     atom    2 type  1   force =     0.00000000    0.00000000   -0.28839201
     atom    3 type  1   force =     0.00000000    0.00000000   -0.00000000
     atom    4 type  1   force =     0.00000000    0.00000000    0.00000000
     atom    5 type  2   force =     0.00000000   -0.00000000    0.00000000
     The core correction contribution to forces
     atom    1 type  1   force =     0.00000000    0.00000000    0.00000000
     atom    2 type  1   force =     0.00000000    0.00000000    0.00000000
     atom    3 type  1   force =     0.00000000    0.00000000    0.00000000
     atom    4 type  1   force =     0.00000000    0.00000000    0.00000000
     atom    5 type  2   force =    -0.00000000    0.00000000   -0.00000000
     The Hubbard contrib.    to forces
     atom    1 type  1   force =     0.00000000    0.00000000    0.00000000
     atom    2 type  1   force =     0.00000000    0.00000000    0.00000000
     atom    3 type  1   force =     0.00000000    0.00000000    0.00000000
     atom    4 type  1   force =     0.00000000    0.00000000    0.00000000
     atom    5 type  2   force =     0.00000000    0.00000000    0.00000000
     The SCF correction term to forces
     atom    1 type  1   force =    -0.00000000   -0.00000000    0.00000144
     atom    2 type  1   force =     0.00000000    0.00000000   -0.00000144
     atom    3 type  1   force =    -0.00000000   -0.00000000    0.00000000
     atom    4 type  1   force =     0.00000000    0.00000000   -0.00000000
     atom    5 type  2   force =     0.00000000   -0.00000000   -0.00000000

     Total force =     0.000247     Total SCF correction =     0.000002


     Computing stress (Cartesian axis) and pressure

          total   stress  (Ry/bohr**3)                   (kbar)     P=      499.76
   0.00339588   0.00000000   0.00000000          499.55        0.00        0.00
   0.00000000   0.00339588   0.00000000            0.00      499.55        0.00
   0.00000000   0.00000000   0.00340016            0.00        0.00      500.18


     Writing all to output data dir ./output/LiSi.save/

     init_run     :      1.06s CPU      1.39s WALL (       2 calls)
     electrons    :     31.62s CPU     36.96s WALL (      11 calls)
     update_pot   :      3.98s CPU      4.07s WALL (       9 calls)
     forces       :      2.78s CPU      2.88s WALL (      11 calls)
     stress       :      9.57s CPU     10.16s WALL (      11 calls)

     Called by init_run:
     wfcinit      :      0.19s CPU      0.20s WALL (       2 calls)
     potinit      :      0.35s CPU      0.52s WALL (       2 calls)
     hinit0       :      0.48s CPU      0.59s WALL (       2 calls)

     Called by electrons:
     c_bands      :     26.82s CPU     30.35s WALL (      96 calls)
     sum_band     :      3.74s CPU      4.09s WALL (      96 calls)
     v_of_rho     :      1.04s CPU      2.43s WALL (     106 calls)
     mix_rho      :      0.10s CPU      0.21s WALL (      96 calls)

     Called by c_bands:
     init_us_2    :      1.08s CPU      1.19s WALL (    6480 calls)
     init_us_2:cp :      1.07s CPU      1.18s WALL (    6480 calls)
     cegterg      :     24.60s CPU     25.59s WALL (    2880 calls)

     Called by *egterg:
     cdiaghg      :      1.88s CPU      1.98s WALL (   11613 calls)
     h_psi        :     19.49s CPU     20.24s WALL (   11973 calls)
     g_psi        :      0.14s CPU      0.15s WALL (    9033 calls)

     Called by h_psi:
     h_psi:calbec :      1.83s CPU      1.90s WALL (   11973 calls)
     vloc_psi     :     16.15s CPU     16.78s WALL (   11973 calls)
     add_vuspsi   :      1.39s CPU      1.44s WALL (   11973 calls)

     General routines
     calbec       :      2.21s CPU      2.30s WALL (   13623 calls)
     fft          :      1.10s CPU      2.85s WALL (    1334 calls)
     ffts         :      0.07s CPU      0.10s WALL (      96 calls)
     fftw         :     15.95s CPU     16.54s WALL (  229010 calls)

     Parallel routines

     PWSCF        :     49.31s CPU     56.15s WALL


   This run was terminated on:  20: 0:48  29Dec2024            

=------------------------------------------------------------------------------=
   JOB DONE.
=------------------------------------------------------------------------------=
