
     Program PWSCF v.7.2 starts on 22Jan2025 at  0:17:12 

     This program is part of the open-source Quantum ESPRESSO suite
     for quantum simulation of materials; please cite
         "P. Giannozzi et al., J. Phys.:Condens. Matter 21 395502 (2009);
         "P. Giannozzi et al., J. Phys.:Condens. Matter 29 465901 (2017);
         "P. Giannozzi et al., J. Chem. Phys. 152 154105 (2020);
          URL http://www.quantum-espresso.org", 
     in publications or presentations arising from this work. More details at
     http://www.quantum-espresso.org/quote

     Parallel version (MPI & OpenMP), running on       8 processor cores
     Number of MPI processes:                 8
     Threads/MPI process:                     1

     MPI processes distributed on     1 nodes
     481147 MiB available memory on the printing compute node when the environment starts

     Waiting for input...
     Reading input from standard input

     Current dimensions of program PWSCF are:
     Max number of different atomic species (ntypx) = 10
     Max number of k-points (npk) =  40000
     Max angular momentum in pseudopotentials (lmaxx) =  4

     R & G space division:  proc/nbgrp/npool/nimage =       8
     Subspace diagonalization in iterative solution of the eigenvalue problem:
     a serial algorithm will be used


     Parallelization info
     --------------------
     sticks:   dense  smooth     PW     G-vecs:    dense   smooth      PW
     Min         182     182     63                 2439     2439     503
     Max         183     183     64                 2440     2440     504
     Sum        1463    1463    507                19515    19515    4031

     Using Slab Decomposition



     bravais-lattice index     =            7
     lattice parameter (alat)  =      11.9932  a.u.
     unit-cell volume          =     309.6436 (a.u.)^3
     number of atoms/cell      =            5
     number of atomic types    =            2
     number of electrons       =        16.00
     number of Kohn-Sham states=           12
     kinetic-energy cutoff     =      60.0000  Ry
     charge density cutoff     =     240.0000  Ry
     scf convergence threshold =      1.0E-08
     mixing beta               =       0.8000
     number of iterations used =            8  plain     mixing
     energy convergence thresh.=      5.0E-03
     force convergence thresh. =      1.0E-02
     press convergence thresh. =      2.0E+00
     Exchange-correlation= PBE
                           (   1   4   3   4   0   0   0)
     nstep                     =           50


     celldm(1)=  11.993219  celldm(2)=   0.000000  celldm(3)=   0.358992
     celldm(4)=   0.000000  celldm(5)=   0.000000  celldm(6)=   0.000000

     crystal axes: (cart. coord. in units of alat)
               a(1) = (   0.500000  -0.500000   0.179496 )  
               a(2) = (   0.500000   0.500000   0.179496 )  
               a(3) = (  -0.500000  -0.500000   0.179496 )  

     reciprocal axes: (cart. coord. in units 2 pi/alat)
               b(1) = (  1.000000 -1.000000  0.000000 )  
               b(2) = (  0.000000  1.000000  2.785577 )  
               b(3) = ( -1.000000  0.000000  2.785577 )  


     PseudoPot. # 1 for Li read from file:
     ../pseudo/Li_ONCV_PBE_sr.upf
     MD5 check sum: 50ff420e78310ffa21704f3361e624a4
     Pseudo is Norm-conserving, Zval =  3.0
     Generated using ONCVPSP code by D. R. Hamann
     Using radial grid of 1944 points,  4 beta functions with: 
                l(1) =   0
                l(2) =   0
                l(3) =   1
                l(4) =   1

     PseudoPot. # 2 for Si read from file:
     ../pseudo/Si_ONCV_PBE_sr.upf
     MD5 check sum: e543d271109d17c80368dfa7c482276d
     Pseudo is Norm-conserving + core correction, Zval =  4.0
     Generated using ONCVPSP code by D. R. Hamann
     Using radial grid of 1510 points,  6 beta functions with: 
                l(1) =   0
                l(2) =   0
                l(3) =   1
                l(4) =   1
                l(5) =   2
                l(6) =   2

     atomic species   valence    mass     pseudopotential
        Li             3.00     6.94100     Li( 1.00)
        Si             4.00    28.08550     Si( 1.00)

      8 Sym. Ops., with inversion, found



   Cartesian axes

     site n.     atom                  positions (alat units)
         1           Li  tau(   1) = (   0.0847925   0.2772035  -0.0000000  )
         2           Li  tau(   2) = (   0.9152075   0.7227965  -0.0000000  )
         3           Li  tau(   3) = (   0.7227965   0.0847925  -0.0000000  )
         4           Li  tau(   4) = (   0.2772035   0.9152075  -0.0000000  )
         5           Si  tau(   5) = (   0.0000000   0.0000000   0.0000000  )

     number of k points=    84  Marzari-Vanderbilt smearing, width (Ry)=  0.0200
                       cart. coord. in units 2pi/alat
        k(    1) = (   0.0000000   0.0000000   0.0000000), wk =   0.0080000
        k(    2) = (  -0.1000000   0.0000000   0.2785577), wk =   0.0160000
        k(    3) = (  -0.2000000   0.0000000   0.5571155), wk =   0.0640000
        k(    4) = (  -0.3000000   0.0000000   0.8356732), wk =   0.0160000
        k(    5) = (  -0.4000000   0.0000000   1.1142309), wk =   0.0640000
        k(    6) = (   0.5000000   0.0000000  -1.3927887), wk =   0.0080000
        k(    7) = (  -0.1000000   0.2000000   0.8356732), wk =   0.0160000
        k(    8) = (  -0.2000000   0.2000000   1.1142309), wk =   0.0640000
        k(    9) = (  -0.3000000   0.2000000   1.3927887), wk =   0.0160000
        k(   10) = (  -0.4000000   0.2000000   1.6713464), wk =   0.0640000
        k(   11) = (   0.5000000   0.2000000  -0.8356732), wk =   0.0160000
        k(   12) = (   0.4000000   0.2000000  -0.5571155), wk =   0.0640000
        k(   13) = (   0.3000000   0.2000000  -0.2785577), wk =   0.0160000
        k(   14) = (   0.2000000   0.2000000   0.0000000), wk =   0.0320000
        k(   15) = (   0.1000000   0.2000000   0.2785577), wk =   0.0160000
        k(   16) = (  -0.1000000   0.4000000   1.3927887), wk =   0.0160000
        k(   17) = (  -0.3000000   0.4000000   1.9499041), wk =   0.0160000
        k(   18) = (  -0.4000000   0.4000000   2.2284619), wk =   0.0640000
        k(   19) = (   0.5000000   0.4000000  -0.2785577), wk =   0.0160000
        k(   20) = (   0.4000000   0.4000000   0.0000000), wk =   0.0320000
        k(   21) = (   0.3000000   0.4000000   0.2785577), wk =   0.0160000
        k(   22) = (   0.1000000   0.4000000   0.8356732), wk =   0.0160000
        k(   23) = (   0.1000000   0.0000000   0.8356732), wk =   0.0160000
        k(   24) = (   0.0000000   0.0000000   1.1142309), wk =   0.0160000
        k(   25) = (  -0.1000000   0.0000000   1.3927887), wk =   0.0160000
        k(   26) = (  -0.2000000   0.0000000   1.6713464), wk =   0.0640000
        k(   27) = (   0.7000000   0.0000000  -0.8356732), wk =   0.0160000
        k(   28) = (   0.6000000   0.0000000  -0.5571155), wk =   0.0640000
        k(   29) = (   0.5000000   0.0000000  -0.2785577), wk =   0.0160000
        k(   30) = (   0.4000000   0.0000000   0.0000000), wk =   0.0320000
        k(   31) = (   0.3000000   0.0000000   0.2785577), wk =   0.0160000
        k(   32) = (   0.1000000   0.2000000   1.3927887), wk =   0.0160000
        k(   33) = (  -0.1000000   0.2000000   1.9499041), wk =   0.0160000
        k(   34) = (  -0.2000000   0.2000000   2.2284619), wk =   0.0640000
        k(   35) = (   0.7000000   0.2000000  -0.2785577), wk =   0.0160000
        k(   36) = (   0.6000000   0.2000000   0.0000000), wk =   0.0320000
        k(   37) = (   0.5000000   0.2000000   0.2785577), wk =   0.0160000
        k(   38) = (   0.3000000   0.2000000   0.8356732), wk =   0.0160000
        k(   39) = (   0.1000000  -0.6000000  -0.8356732), wk =   0.0160000
        k(   40) = (  -0.1000000  -0.6000000  -0.2785577), wk =   0.0160000
        k(   41) = (   0.7000000  -0.6000000  -2.5070196), wk =   0.0160000
        k(   42) = (   0.5000000  -0.6000000  -1.9499041), wk =   0.0160000
        k(   43) = (   0.4000000  -0.6000000  -1.6713464), wk =   0.0640000
        k(   44) = (   0.3000000  -0.6000000  -1.3927887), wk =   0.0160000
        k(   45) = (   0.1000000  -0.4000000  -0.2785577), wk =   0.0160000
        k(   46) = (   0.7000000  -0.4000000  -1.9499041), wk =   0.0160000
        k(   47) = (   0.5000000  -0.4000000  -1.3927887), wk =   0.0160000
        k(   48) = (   0.3000000   0.0000000   1.3927887), wk =   0.0160000
        k(   49) = (   0.1000000   0.0000000   1.9499041), wk =   0.0160000
        k(   50) = (   0.0000000   0.0000000   2.2284619), wk =   0.0160000
        k(   51) = (   0.9000000   0.0000000  -0.2785577), wk =   0.0160000
        k(   52) = (   0.8000000   0.0000000   0.0000000), wk =   0.0320000
        k(   53) = (   0.7000000   0.0000000   0.2785577), wk =   0.0160000
        k(   54) = (   0.5000000   0.0000000   0.8356732), wk =   0.0160000
        k(   55) = (   0.3000000  -0.8000000  -0.8356732), wk =   0.0160000
        k(   56) = (   0.1000000  -0.8000000  -0.2785577), wk =   0.0160000
        k(   57) = (   0.5000000  -0.8000000  -1.3927887), wk =   0.0160000
        k(   58) = (   0.2000000  -0.1000000  -0.8356732), wk =   0.0160000
        k(   59) = (   0.2000000  -0.3000000  -1.3927887), wk =   0.0160000
        k(   60) = (   0.2000000  -0.4000000  -1.6713464), wk =   0.0640000
        k(   61) = (   0.2000000   0.5000000   0.8356732), wk =   0.0160000
        k(   62) = (   0.2000000   0.4000000   0.5571155), wk =   0.0640000
        k(   63) = (   0.2000000   0.3000000   0.2785577), wk =   0.0160000
        k(   64) = (   0.2000000   0.1000000  -0.2785577), wk =   0.0160000
        k(   65) = (   0.4000000  -0.1000000  -1.3927887), wk =   0.0160000
        k(   66) = (   0.4000000  -0.3000000  -1.9499041), wk =   0.0160000
        k(   67) = (   0.4000000   0.5000000   0.2785577), wk =   0.0160000
        k(   68) = (   0.4000000   0.3000000  -0.2785577), wk =   0.0160000
        k(   69) = (   0.4000000   0.1000000  -0.8356732), wk =   0.0160000
        k(   70) = (   0.2000000   0.1000000  -1.3927887), wk =   0.0160000
        k(   71) = (   0.2000000  -0.1000000  -1.9499041), wk =   0.0160000
        k(   72) = (   0.2000000   0.7000000   0.2785577), wk =   0.0160000
        k(   73) = (   0.2000000   0.6000000   0.0000000), wk =   0.0320000
        k(   74) = (   0.2000000   0.5000000  -0.2785577), wk =   0.0160000
        k(   75) = (   0.2000000   0.3000000  -0.8356732), wk =   0.0160000
        k(   76) = (  -0.6000000   0.1000000   0.8356732), wk =   0.0160000
        k(   77) = (  -0.6000000  -0.1000000   0.2785577), wk =   0.0160000
        k(   78) = (  -0.6000000   0.7000000   2.5070196), wk =   0.0160000
        k(   79) = (  -0.6000000   0.5000000   1.9499041), wk =   0.0160000
        k(   80) = (  -0.6000000   0.3000000   1.3927887), wk =   0.0160000
        k(   81) = (  -0.4000000   0.1000000   0.2785577), wk =   0.0160000
        k(   82) = (  -0.4000000   0.7000000   1.9499041), wk =   0.0160000
        k(   83) = (  -0.8000000   0.3000000   0.8356732), wk =   0.0160000
        k(   84) = (  -0.8000000   0.1000000   0.2785577), wk =   0.0160000

     Dense  grid:    19515 G-vectors     FFT dimensions: (  45,  45,  45)

     Estimated max dynamical RAM per process >      17.08 MB

     Estimated total dynamical RAM >     136.64 MB

     Initial potential from superposition of free atoms

     starting charge      15.9811, renormalised to      16.0000
     Starting wfcs are   12 randomized atomic wfcs

     total cpu time spent up to now is        1.1 secs

     Self-consistent Calculation

     iteration #  1     ecut=    60.00 Ry     beta= 0.80
     Davidson diagonalization with overlap
     ethr =  1.00E-02,  avg # of iterations =  5.9

     Threshold (ethr) on eigenvalues was too large:
     Diagonalizing with lowered threshold

     Davidson diagonalization with overlap
     ethr =  3.77E-04,  avg # of iterations =  2.2

     total cpu time spent up to now is        3.9 secs

     total energy              =     -65.57106251 Ry
     estimated scf accuracy    <       0.06307049 Ry

     iteration #  2     ecut=    60.00 Ry     beta= 0.80
     Davidson diagonalization with overlap
     ethr =  3.94E-04,  avg # of iterations =  3.1

     total cpu time spent up to now is        5.3 secs

     total energy              =     -65.57713791 Ry
     estimated scf accuracy    <       0.09924510 Ry

     iteration #  3     ecut=    60.00 Ry     beta= 0.80
     Davidson diagonalization with overlap
     ethr =  3.94E-04,  avg # of iterations =  2.0

     total cpu time spent up to now is        6.4 secs

     total energy              =     -65.59672874 Ry
     estimated scf accuracy    <       0.00041273 Ry

     iteration #  4     ecut=    60.00 Ry     beta= 0.80
     Davidson diagonalization with overlap
     c_bands:  1 eigenvalues not converged
     ethr =  2.58E-06,  avg # of iterations =  5.0

     total cpu time spent up to now is        7.8 secs

     total energy              =     -65.59680468 Ry
     estimated scf accuracy    <       0.00001962 Ry

     iteration #  5     ecut=    60.00 Ry     beta= 0.80
     Davidson diagonalization with overlap
     ethr =  1.23E-07,  avg # of iterations =  2.0

     total cpu time spent up to now is        8.9 secs

     total energy              =     -65.59680956 Ry
     estimated scf accuracy    <       0.00000016 Ry

     iteration #  6     ecut=    60.00 Ry     beta= 0.80
     Davidson diagonalization with overlap
     ethr =  1.00E-09,  avg # of iterations =  3.0

     total cpu time spent up to now is       10.1 secs

     End of self-consistent calculation

          k = 0.0000 0.0000 0.0000 (  2417 PWs)   bands (ev):

   -39.1752 -38.9971 -38.9971 -38.9836  -4.0557   3.3465   3.3465   4.7589
     5.0572  11.1770  12.6730  12.6730

          k =-0.1000 0.0000 0.2786 (  2432 PWs)   bands (ev):

   -39.1572 -38.9929 -38.9882 -38.9700  -3.8065   3.4908   3.5302   5.0358
     5.4085  11.1496  12.6673  12.8925

          k =-0.2000 0.0000 0.5571 (  2431 PWs)   bands (ev):

   -39.1065 -38.9747 -38.9640 -38.9405  -3.0618   3.9616   4.0684   5.8156
     6.4442  11.0013  11.7143  12.6714

          k =-0.3000 0.0000 0.8357 (  2431 PWs)   bands (ev):

   -39.0385 -38.9470 -38.9354 -38.9130  -1.8331   4.7846   4.9303   6.9652
     7.8527   8.5871  10.8142  11.7521

          k =-0.4000 0.0000 1.1142 (  2431 PWs)   bands (ev):

   -38.9747 -38.9227 -38.9151 -38.8980  -0.1674   5.0056   6.0075   6.1479
     8.4593   9.4100   9.6416  11.1098

          k = 0.5000 0.0000-1.3928 (  2442 PWs)   bands (ev):

   -38.9402 -38.9164 -38.9129 -38.8949   1.2943   3.1714   6.8544   7.3915
     7.8740   8.3190  10.2337  12.2866

          k =-0.1000 0.2000 0.8357 (  2427 PWs)   bands (ev):

   -39.0431 -38.9441 -38.9323 -38.9141  -1.8453   4.8160   5.3112   6.6417
     7.7370   8.5653  10.9670  11.5039

          k =-0.2000 0.2000 1.1142 (  2423 PWs)   bands (ev):

   -38.9805 -38.9219 -38.9104 -38.8969  -0.2003   5.0619   5.9879   6.8467
     8.3488   8.9971   9.4612  10.4587

          k =-0.3000 0.2000 1.3928 (  2422 PWs)   bands (ev):

   -38.9397 -38.9147 -38.9134 -38.8943   1.2939   3.1771   6.8855   7.0132
     8.0762   9.0473   9.6620  11.3211

          k =-0.4000 0.2000 1.6713 (  2429 PWs)   bands (ev):

   -38.9581 -38.9382 -38.9108 -38.9029  -0.1112   4.9598   5.3426   6.2060
     8.0153  10.1056  10.5437  11.2677

          k = 0.5000 0.2000-0.8357 (  2429 PWs)   bands (ev):

   -39.0184 -38.9706 -38.9316 -38.9128  -1.7923   4.0739   4.9786   6.8560
     8.1369   9.4871  10.4914  12.1802

          k = 0.4000 0.2000-0.5571 (  2428 PWs)   bands (ev):

   -39.0854 -39.0048 -38.9609 -38.9340  -3.0377   3.2126   4.0631   5.8901
     7.7516  10.2441  11.2399  12.8429

          k = 0.3000 0.2000-0.2786 (  2432 PWs)   bands (ev):

   -39.1392 -39.0267 -38.9854 -38.9566  -3.7936   2.7701   3.4733   5.2641
     6.4466  10.1506  12.2647  14.4265

          k = 0.2000 0.2000 0.0000 (  2413 PWs)   bands (ev):

   -39.1624 -39.0270 -38.9947 -38.9681  -4.0481   2.7614   3.2572   5.1122
     5.7094  10.3086  12.3015  13.8212

          k = 0.1000 0.2000 0.2786 (  2439 PWs)   bands (ev):

   -39.1512 -39.0071 -38.9880 -38.9626  -3.8017   3.1960   3.4283   5.3483
     5.6594  10.6961  12.4408  13.3904

          k =-0.1000 0.4000 1.3928 (  2430 PWs)   bands (ev):

   -38.9398 -38.9159 -38.9129 -38.8944   1.2941   3.1736   6.8242   7.2918
     7.9719   8.4459  10.3484  11.2518

          k =-0.3000 0.4000 1.9499 (  2417 PWs)   bands (ev):

   -39.0046 -38.9844 -38.9298 -38.9129  -1.7791   3.9199   4.9313   7.1520
     7.8735   9.1332  11.5914  12.1095

          k =-0.4000 0.4000 2.2285 (  2427 PWs)   bands (ev):

   -39.0587 -39.0346 -38.9589 -38.9326  -3.0223   2.9271   3.9612   6.2942
     7.6521  10.6236  11.7308  12.5836

          k = 0.5000 0.4000-0.2786 (  2432 PWs)   bands (ev):

   -39.1060 -39.0671 -38.9827 -38.9518  -3.7804   2.3566   3.3511   5.7440
     6.7355  10.3832  11.9418  13.9192

          k = 0.4000 0.4000 0.0000 (  2441 PWs)   bands (ev):

   -39.1309 -39.0713 -38.9923 -38.9607  -4.0357   2.2183   3.1371   5.6541
     6.2041  10.2560  11.7966  13.8909

          k = 0.3000 0.4000 0.2786 (  2440 PWs)   bands (ev):

   -39.1231 -39.0478 -38.9845 -38.9533  -3.7855   2.5209   3.3295   6.0437
     6.1342  10.5066  11.8350  13.9967

          k = 0.1000 0.4000 0.8357 (  2423 PWs)   bands (ev):

   -39.0298 -38.9568 -38.9346 -38.9116  -1.8129   4.4333   4.8492   7.3114
     7.7863   8.7089  10.8337  12.3202

          k = 0.1000 0.0000 0.8357 (  2420 PWs)   bands (ev):

   -39.0479 -38.9353 -38.9332 -38.9165  -1.8573   5.2561   5.3072   6.4296
     7.3211   8.6434  11.2822  11.4605

          k = 0.0000 0.0000 1.1142 (  2417 PWs)   bands (ev):

   -38.9871 -38.9125 -38.9125 -38.8969  -0.2328   5.1326   6.7725   6.7725
     8.1775   8.4464   9.6593   9.6593

          k =-0.1000 0.0000 1.3928 (  2420 PWs)   bands (ev):

   -38.9414 -38.9128 -38.9122 -38.8952   1.2852   3.2023   6.9417   6.9798
     8.3910   9.1952   9.5440   9.9793

          k =-0.2000 0.0000 1.6713 (  2435 PWs)   bands (ev):

   -38.9460 -38.9347 -38.9187 -38.9110  -0.0540   4.9008   5.4932   5.5357
     7.5811  10.7347  10.9956  11.8964

          k = 0.7000 0.0000-0.8357 (  2421 PWs)   bands (ev):

   -39.0011 -38.9705 -38.9439 -38.9168  -1.7489   4.1914   4.2536   6.6049
     7.8754  10.5978  11.6703  12.9840

          k = 0.6000 0.0000-0.5571 (  2436 PWs)   bands (ev):

   -39.0671 -39.0089 -38.9763 -38.9335  -3.0114   3.2656   3.3740   5.7673
     8.9106  10.7771  11.0955  13.6940

          k = 0.5000 0.0000-0.2786 (  2435 PWs)   bands (ev):

   -39.1223 -39.0336 -38.9995 -38.9527  -3.7793   2.7549   2.9039   5.2165
     7.4942  10.2089  12.5766  13.7822

          k = 0.4000 0.0000 0.0000 (  2427 PWs)   bands (ev):

   -39.1509 -39.0352 -39.0054 -38.9624  -4.0399   2.6896   2.8566   5.0429
     6.5751  10.0785  12.5791  13.6133

          k = 0.3000 0.0000 0.2786 (  2429 PWs)   bands (ev):

   -39.1448 -39.0129 -38.9917 -38.9582  -3.7965   3.0913   3.2430   5.2685
     6.2095  10.4047  12.5918  13.3781

          k = 0.1000 0.2000 1.3928 (  2426 PWs)   bands (ev):

   -38.9409 -38.9138 -38.9127 -38.8950   1.2886   3.1912   6.9416   7.0281
     8.1322   9.1449   9.5020  10.6292

          k =-0.1000 0.2000 1.9499 (  2415 PWs)   bands (ev):

   -38.9900 -38.9774 -38.9457 -38.9185  -1.7350   4.0594   4.2645   6.4630
     7.8386  10.9947  11.9707  13.2788

          k =-0.2000 0.2000 2.2285 (  2437 PWs)   bands (ev):

   -39.0429 -39.0283 -38.9797 -38.9351  -2.9947   3.0210   3.3733   5.5753
     9.7082  10.9695  11.3704  13.8823

          k = 0.7000 0.2000-0.2786 (  2433 PWs)   bands (ev):

   -39.0918 -39.0621 -39.0023 -38.9516  -3.7646   2.4071   2.8873   5.0425
     8.6174  10.3472  12.5814  14.3382

          k = 0.6000 0.2000 0.0000 (  2450 PWs)   bands (ev):

   -39.1207 -39.0695 -39.0063 -38.9601  -4.0264   2.2293   2.8321   4.9131
     7.8664   9.8567  12.5373  14.3656

          k = 0.5000 0.2000 0.2786 (  2436 PWs)   bands (ev):

   -39.1175 -39.0473 -38.9909 -38.9526  -3.7798   2.4963   3.2245   5.2032
     7.5614   9.8606  12.4363  14.5225

          k = 0.3000 0.2000 0.8357 (  2431 PWs)   bands (ev):

   -39.0342 -38.9569 -38.9301 -38.9127  -1.8255   4.3725   5.3055   6.7831
     8.3296   8.4686  10.5528  11.7794

          k = 0.1000-0.6000-0.8357 (  2431 PWs)   bands (ev):

   -39.0110 -38.9694 -38.9386 -38.9146  -1.7709   4.1299   4.5710   6.7668
     7.9794  10.1550  10.9099  12.5389

          k =-0.1000-0.6000-0.2786 (  2434 PWs)   bands (ev):

   -39.1075 -39.0462 -39.0027 -38.9516  -3.7703   2.6077   2.7873   5.1951
     7.9309  10.7984  12.1711  13.9798

          k = 0.7000-0.6000-2.5070 (  2439 PWs)   bands (ev):

   -39.1017 -39.0649 -38.9903 -38.9516  -3.7744   2.3935   3.1108   5.4938
     7.2837  11.0111  11.6500  13.9204

          k = 0.5000-0.6000-1.9499 (  2426 PWs)   bands (ev):

   -39.0084 -38.9863 -38.9258 -38.9123  -1.7923   3.8782   5.2545   7.1752
     8.0916   8.6943  11.0751  11.8719

          k = 0.4000-0.6000-1.6713 (  2427 PWs)   bands (ev):

   -38.9633 -38.9417 -38.9053 -38.8997  -0.1448   4.9953   5.2598   6.8731
     8.4083   9.2452   9.8036  11.6615

          k = 0.3000-0.6000-1.3928 (  2430 PWs)   bands (ev):

   -38.9390 -38.9158 -38.9147 -38.8937   1.2989   3.1673   6.8105   6.8600
     8.3819   8.9151   9.9247  11.6138

          k = 0.1000-0.4000-0.2786 (  2432 PWs)   bands (ev):

   -39.1334 -39.0279 -38.9920 -38.9546  -3.7882   2.7491   3.2549   5.1746
     6.9891   9.9972  12.5186  13.9959

          k = 0.7000-0.4000-1.9499 (  2424 PWs)   bands (ev):

   -39.0218 -38.9716 -38.9278 -38.9115  -1.8051   4.0562   5.2220   7.3033
     7.9590   8.5324  10.8351  12.1642

          k = 0.5000-0.4000-1.3928 (  2436 PWs)   bands (ev):

   -38.9386 -38.9162 -38.9158 -38.8933   1.3019   3.1634   6.7366   6.7636
     8.7788   8.8247   9.9971  11.4986

          k = 0.3000 0.0000 1.3928 (  2432 PWs)   bands (ev):

   -38.9406 -38.9151 -38.9126 -38.8948   1.2908   3.1831   6.8892   7.1904
     8.0320   8.6202  10.0619  10.8922

          k = 0.1000 0.0000 1.9499 (  2414 PWs)   bands (ev):

   -38.9814 -38.9762 -38.9533 -38.9206  -1.7208   4.1018   4.1100   6.2899
     7.8145  11.7583  11.9508  13.6539

          k = 0.0000 0.0000 2.2285 (  2414 PWs)   bands (ev):

   -39.0233 -39.0233 -39.0004 -38.9364  -2.9770   3.0898   3.0898   5.2912
    11.0177  11.3799  11.3799  14.4158

          k = 0.9000 0.0000-0.2786 (  2434 PWs)   bands (ev):

   -39.0664 -39.0586 -39.0298 -38.9532  -3.7484   2.4862   2.4962   4.7165
    10.4728  10.7423  12.9585  13.9843

          k = 0.8000 0.0000 0.0000 (  2438 PWs)   bands (ev):

   -39.0937 -39.0686 -39.0327 -38.9601  -4.0107   2.3061   2.3447   4.5948
     9.5673  10.4297  12.9323  14.4691

          k = 0.7000 0.0000 0.2786 (  2441 PWs)   bands (ev):

   -39.0940 -39.0499 -39.0126 -38.9522  -3.7607   2.5624   2.6386   4.9430
     9.0183  10.4778  12.7292  14.2990

          k = 0.5000 0.0000 0.8357 (  2428 PWs)   bands (ev):

   -39.0218 -38.9603 -38.9386 -38.9127  -1.7922   4.4101   4.5361   7.0019
     7.9871   9.3067  11.0236  12.2642

          k = 0.3000-0.8000-0.8357 (  2422 PWs)   bands (ev):

   -38.9989 -38.9811 -38.9370 -38.9155  -1.7574   3.9861   4.5624   6.7740
     7.8684  10.0243  11.8076  12.7075

          k = 0.1000-0.8000-0.2786 (  2438 PWs)   bands (ev):

   -39.0793 -39.0594 -39.0171 -38.9526  -3.7546   2.4508   2.6392   4.8343
     9.7051  10.4812  12.8989  14.4989

          k = 0.5000-0.8000-1.3928 (  2430 PWs)   bands (ev):

   -38.9392 -38.9160 -38.9140 -38.8939   1.2972   3.1684   6.8044   7.0460
     8.3014   8.5159  10.1760  11.7257

          k = 0.2000-0.1000-0.8357 (  2427 PWs)   bands (ev):

   -39.0431 -38.9440 -38.9324 -38.9141  -1.8453   4.8421   5.2500   6.7713
     7.6079   8.5758  10.8653  11.7591

          k = 0.2000-0.3000-1.3928 (  2422 PWs)   bands (ev):

   -38.9395 -38.9146 -38.9138 -38.8941   1.2939   3.1772   6.8062   7.1325
     8.0539   8.8271  10.1575  10.8617

          k = 0.2000-0.4000-1.6713 (  2429 PWs)   bands (ev):

   -38.9587 -38.9382 -38.9103 -38.9029  -0.1112   4.9280   5.3841   6.2005
     8.0902   9.8183  10.3342  11.9311

          k = 0.2000 0.5000 0.8357 (  2429 PWs)   bands (ev):

   -39.0182 -38.9706 -38.9323 -38.9123  -1.7922   4.0993   4.8839   7.3904
     7.7257   8.8929  11.2070  12.5476

          k = 0.2000 0.4000 0.5571 (  2428 PWs)   bands (ev):

   -39.0854 -39.0043 -38.9619 -38.9334  -3.0376   3.2658   3.9128   6.5309
     6.9127  10.7846  11.3566  12.8236

          k = 0.2000 0.3000 0.2786 (  2432 PWs)   bands (ev):

   -39.1391 -39.0261 -38.9862 -38.9565  -3.7936   2.8124   3.3680   5.7142
     5.9672  10.4273  12.1184  13.8601

          k = 0.2000 0.1000-0.2786 (  2439 PWs)   bands (ev):

   -39.1513 -39.0072 -38.9877 -38.9627  -3.8017   3.1388   3.5231   5.1241
     5.8684  10.6063  12.4642  13.6223

          k = 0.4000-0.1000-1.3928 (  2430 PWs)   bands (ev):

   -38.9398 -38.9156 -38.9129 -38.8946   1.2941   3.1736   6.8814   7.1678
     8.0315   8.5351  10.0194  11.8218

          k = 0.4000-0.3000-1.9499 (  2417 PWs)   bands (ev):

   -39.0050 -38.9839 -38.9296 -38.9132  -1.7791   3.9121   4.9701   6.9435
     8.0172   9.4195  11.0409  12.2550

          k = 0.4000 0.5000 0.2786 (  2432 PWs)   bands (ev):

   -39.1063 -39.0669 -38.9827 -38.9517  -3.7804   2.3645   3.3231   5.9794
     6.4514  10.6505  11.7335  13.8434

          k = 0.4000 0.3000-0.2786 (  2440 PWs)   bands (ev):

   -39.1228 -39.0483 -38.9838 -38.9537  -3.7855   2.4966   3.4068   5.4831
     6.7843  10.0724  12.1169  14.3183

          k = 0.4000 0.1000-0.8357 (  2423 PWs)   bands (ev):

   -39.0297 -38.9569 -38.9340 -38.9122  -1.8129   4.3862   4.9524   6.8932
     8.1836   8.9147  10.6373  11.8394

          k = 0.2000 0.1000-1.3928 (  2426 PWs)   bands (ev):

   -38.9407 -38.9137 -38.9128 -38.8951   1.2886   3.1913   6.8774   7.1141
     8.1233   8.9268   9.9635  10.3286

          k = 0.2000-0.1000-1.9499 (  2415 PWs)   bands (ev):

   -38.9900 -38.9772 -38.9456 -38.9187  -1.7350   4.0486   4.2796   6.4463
     7.8480  11.3290  11.5257  13.2855

          k = 0.2000 0.7000 0.2786 (  2433 PWs)   bands (ev):

   -39.0920 -39.0615 -39.0027 -38.9516  -3.7646   2.4355   2.8373   5.1115
     8.3268  11.0739  12.0011  14.1422

          k = 0.2000 0.6000 0.0000 (  2450 PWs)   bands (ev):

   -39.1211 -39.0688 -39.0075 -38.9592  -4.0263   2.2836   2.7249   5.1081
     7.3762  11.0691  11.5087  13.9170

          k = 0.2000 0.5000-0.2786 (  2436 PWs)   bands (ev):

   -39.1177 -39.0466 -38.9919 -38.9521  -3.7797   2.5623   3.0745   5.5888
     6.9064  10.9127  11.7268  13.8727

          k = 0.2000 0.3000-0.8357 (  2431 PWs)   bands (ev):

   -39.0341 -38.9569 -38.9304 -38.9124  -1.8255   4.3895   5.2292   7.0675
     7.9365   8.5056  10.6310  12.1021

          k =-0.6000 0.1000 0.8357 (  2431 PWs)   bands (ev):

   -39.0111 -38.9693 -38.9388 -38.9143  -1.7709   4.1659   4.5056   6.9308
     7.8733   9.6610  11.5808  12.7720

          k =-0.6000-0.1000 0.2786 (  2434 PWs)   bands (ev):

   -39.1076 -39.0468 -39.0018 -38.9518  -3.7703   2.5202   2.9140   5.0629
     8.3669   9.9759  12.7263  14.2921

          k =-0.6000 0.7000 2.5070 (  2439 PWs)   bands (ev):

   -39.1012 -39.0655 -38.9899 -38.9519  -3.7744   2.3721   3.1675   5.3314
     7.5936  10.2964  12.2241  14.1120

          k =-0.6000 0.5000 1.9499 (  2426 PWs)   bands (ev):

   -39.0083 -38.9867 -38.9256 -38.9122  -1.7923   3.8809   5.2311   7.3654
     7.9289   8.5898  11.3448  11.7568

          k =-0.6000 0.3000 1.3928 (  2430 PWs)   bands (ev):

   -38.9391 -38.9155 -38.9149 -38.8937   1.2989   3.1673   6.7536   6.9275
     8.4114   8.7856  10.1586  11.3091

          k =-0.4000 0.1000 0.2786 (  2432 PWs)   bands (ev):

   -39.1332 -39.0274 -38.9930 -38.9543  -3.7882   2.8632   3.0681   5.5077
     6.5527  10.4687  12.2720  13.5978

          k =-0.4000 0.7000 1.9499 (  2424 PWs)   bands (ev):

   -39.0216 -38.9715 -38.9275 -38.9122  -1.8051   4.0473   5.2834   6.9542
     8.2661   8.7446  10.5436  12.0197

          k =-0.8000 0.3000 0.8357 (  2422 PWs)   bands (ev):

   -38.9987 -38.9808 -38.9371 -38.9158  -1.7574   3.9749   4.5906   6.6917
     7.9183  10.3768  11.2252  12.7711

          k =-0.8000 0.1000 0.2786 (  2438 PWs)   bands (ev):

   -39.0796 -39.0587 -39.0174 -38.9528  -3.7547   2.4757   2.6087   4.8495
     9.4653  10.9187  12.5762  14.4556

     the Fermi energy is     6.9666 ev

!    total energy              =     -65.59680961 Ry
     estimated scf accuracy    <          5.4E-09 Ry
     smearing contrib. (-TS)   =      -0.00086472 Ry
     internal energy E=F+TS    =     -65.59594489 Ry

     The total energy is F=E-TS. E is the sum of the following terms:
     one-electron contribution =     -24.45100891 Ry
     hartree contribution      =      12.42024711 Ry
     xc contribution           =     -17.32467689 Ry
     ewald contribution        =     -36.24050620 Ry

     convergence has been achieved in   6 iterations

     Forces acting on atoms (cartesian axes, Ry/au):

     atom    1 type  1   force =     0.05262079    0.16963296   -0.00000000
     atom    2 type  1   force =    -0.05262079   -0.16963296    0.00000000
     atom    3 type  1   force =    -0.16963296    0.05262079    0.00000000
     atom    4 type  1   force =     0.16963296   -0.05262079   -0.00000000
     atom    5 type  2   force =     0.00000000    0.00000000    0.00000000
     The non-local contrib.  to forces
     atom    1 type  1   force =     0.02140438    0.00365442   -0.00000000
     atom    2 type  1   force =    -0.02140438   -0.00365442   -0.00000000
     atom    3 type  1   force =    -0.00365442    0.02140438   -0.00000000
     atom    4 type  1   force =     0.00365442   -0.02140438   -0.00000000
     atom    5 type  2   force =     0.00000000   -0.00000000   -0.00000000
     The ionic contribution  to forces
     atom    1 type  1   force =     0.14188883    1.17713967    0.00000000
     atom    2 type  1   force =    -0.14188883   -1.17713967   -0.00000000
     atom    3 type  1   force =    -1.17713967    0.14188883    0.00000000
     atom    4 type  1   force =     1.17713967   -0.14188883   -0.00000000
     atom    5 type  2   force =     0.00000000    0.00000000    0.00000000
     The local contribution  to forces
     atom    1 type  1   force =    -0.11069469   -1.01108845    0.00000000
     atom    2 type  1   force =     0.11069469    1.01108845   -0.00000000
     atom    3 type  1   force =     1.01108845   -0.11069469    0.00000000
     atom    4 type  1   force =    -1.01108845    0.11069469   -0.00000000
     atom    5 type  2   force =    -0.00000000   -0.00000000    0.00000000
     The core correction contribution to forces
     atom    1 type  1   force =     0.00000000    0.00000000    0.00000000
     atom    2 type  1   force =     0.00000000    0.00000000    0.00000000
     atom    3 type  1   force =     0.00000000    0.00000000    0.00000000
     atom    4 type  1   force =     0.00000000    0.00000000    0.00000000
     atom    5 type  2   force =    -0.00000000   -0.00000000    0.00000000
     The Hubbard contrib.    to forces
     atom    1 type  1   force =     0.00000000    0.00000000    0.00000000
     atom    2 type  1   force =     0.00000000    0.00000000    0.00000000
     atom    3 type  1   force =     0.00000000    0.00000000    0.00000000
     atom    4 type  1   force =     0.00000000    0.00000000    0.00000000
     atom    5 type  2   force =     0.00000000    0.00000000    0.00000000
     The SCF correction term to forces
     atom    1 type  1   force =     0.00002228   -0.00007268   -0.00000000
     atom    2 type  1   force =    -0.00002228    0.00007268    0.00000000
     atom    3 type  1   force =     0.00007268    0.00002228   -0.00000000
     atom    4 type  1   force =    -0.00007268   -0.00002228    0.00000000
     atom    5 type  2   force =     0.00000000    0.00000000   -0.00000000

     Total force =     0.355214     Total SCF correction =     0.000152


     Computing stress (Cartesian axis) and pressure

          total   stress  (Ry/bohr**3)                   (kbar)     P=      593.79
   0.00520203   0.00000000   0.00000000          765.24        0.00        0.00
   0.00000000   0.00520203  -0.00000000            0.00      765.24       -0.00
   0.00000000   0.00000000   0.00170554            0.00        0.00      250.89


     BFGS Geometry Optimization
     Energy error            =      0.0E+00 Ry
     Gradient error          =      1.7E-01 Ry/Bohr
     Cell gradient error     =      2.7E+02 kbar

     number of scf cycles    =   1
     number of bfgs steps    =   0

     enthalpy           new  =     -64.5443525352 Ry

     new trust radius        =       0.1776071223 bohr
ibrav =      7
 celldm(1) =     12.53384198
 celldm(3) =      0.32896525
Input lattice vectors:
     0.52253870    -0.52253870     0.17189708
     0.52253870     0.52253870     0.17189708
    -0.52253870    -0.52253870     0.17189708
New lattice vectors in INITIAL alat:
     0.52253870    -0.52253870     0.17189708
     0.52253870     0.52253870     0.17189708
    -0.52253870    -0.52253870     0.17189708
New lattice vectors in NEW alat (for information only):
     0.50000000    -0.50000000     0.16448263
     0.50000000     0.50000000     0.16448263
    -0.50000000    -0.50000000     0.16448263
Discrepancy in bohr =     0.000000    0.000000    0.000000
     new conv_thr            =       0.0000000100 Ry

     new unit-cell volume =    323.87146 a.u.^3 (    47.99280 Ang^3 )
     density =      1.93238 g/cm^3

CELL_PARAMETERS (alat= 11.99321877)
   0.522538704  -0.522538704   0.171897076
   0.522538704   0.522538704   0.171897076
  -0.522538704  -0.522538704   0.171897076

ATOMIC_POSITIONS (crystal)
Li           -0.2021675276        0.2913475731       -0.0891800455
Li            0.2021675276        0.7086524269       -0.9108199545
Li            0.6194723814        0.0891800455       -0.7086524269
Li           -0.6194723814        0.9108199545       -0.2913475731
Si            0.0000000000        0.0000000000        0.0000000000



     Writing config-only to output data dir ./output/LiSi.save/
     NEW-OLD atomic charge density approx. for the potential
     extrapolated charge   16.70206, renormalised to   16.00000

     total cpu time spent up to now is       11.5 secs

     Self-consistent Calculation

     iteration #  1     ecut=    60.00 Ry     beta= 0.80
     Davidson diagonalization with overlap
     ethr =  1.00E-06,  avg # of iterations =  9.7

     total cpu time spent up to now is       14.6 secs

     total energy              =     -65.73143144 Ry
     estimated scf accuracy    <       0.04604922 Ry

     iteration #  2     ecut=    60.00 Ry     beta= 0.80
     Davidson diagonalization with overlap
     ethr =  2.88E-04,  avg # of iterations =  3.0

     total cpu time spent up to now is       16.0 secs

     total energy              =     -65.74357876 Ry
     estimated scf accuracy    <       0.11109126 Ry

     iteration #  3     ecut=    60.00 Ry     beta= 0.80
     Davidson diagonalization with overlap
     ethr =  2.88E-04,  avg # of iterations =  2.1

     total cpu time spent up to now is       17.1 secs

     total energy              =     -65.76155112 Ry
     estimated scf accuracy    <       0.00064241 Ry

     iteration #  4     ecut=    60.00 Ry     beta= 0.80
     Davidson diagonalization with overlap
     ethr =  4.02E-06,  avg # of iterations =  4.1

     total cpu time spent up to now is       18.4 secs

     total energy              =     -65.76162732 Ry
     estimated scf accuracy    <       0.00006594 Ry

     iteration #  5     ecut=    60.00 Ry     beta= 0.80
     Davidson diagonalization with overlap
     ethr =  4.12E-07,  avg # of iterations =  2.0

     total cpu time spent up to now is       19.6 secs

     total energy              =     -65.76163668 Ry
     estimated scf accuracy    <       0.00000279 Ry

     iteration #  6     ecut=    60.00 Ry     beta= 0.80
     Davidson diagonalization with overlap
     ethr =  1.74E-08,  avg # of iterations =  2.2

     total cpu time spent up to now is       20.7 secs

     total energy              =     -65.76163700 Ry
     estimated scf accuracy    <       0.00000006 Ry

     iteration #  7     ecut=    60.00 Ry     beta= 0.80
     Davidson diagonalization with overlap
     ethr =  3.62E-10,  avg # of iterations =  3.1

     total cpu time spent up to now is       22.0 secs

     End of self-consistent calculation

          k = 0.0000 0.0000 0.0000 (  2417 PWs)   bands (ev):

   -39.4951 -39.3355 -39.3355 -39.3164  -4.4916   2.7070   2.7070   4.3189
     4.7283   9.4968  11.7027  11.7027

          k =-0.0957 0.0000 0.2909 (  2432 PWs)   bands (ev):

   -39.4719 -39.3246 -39.3210 -39.2991  -4.2099   2.9071   2.9335   4.5924
     5.0901   9.6185  11.5515  11.8000

          k =-0.1914 0.0000 0.5817 (  2431 PWs)   bands (ev):

   -39.4090 -39.2928 -39.2842 -39.2571  -3.3700   3.5152   3.5959   5.4004
     6.1606   9.8787  11.7068  11.7868

          k =-0.2871 0.0000 0.8726 (  2431 PWs)   bands (ev):

   -39.3277 -39.2490 -39.2402 -39.2142  -1.9905   4.5206   4.6536   6.7329
     7.7970   8.9409  10.2966  11.5909

          k =-0.3827 0.0000 1.1635 (  2431 PWs)   bands (ev):

   -39.2517 -39.2114 -39.2042 -39.1897  -0.1356   5.6389   5.9004   6.1343
     8.4153   9.2083   9.6265  10.9035

          k = 0.4784-0.0000-1.4544 (  2442 PWs)   bands (ev):

   -39.2059 -39.2002 -39.1960 -39.1888   1.4486   3.6848   6.9862   7.5620
     7.9076   8.3604  10.0177  11.6961

          k =-0.0957 0.1914 0.8726 (  2427 PWs)   bands (ev):

   -39.3306 -39.2458 -39.2368 -39.2168  -2.0031   4.5478   4.9960   6.4556
     7.5841   8.9900  10.6163  11.1781

          k =-0.1914 0.1914 1.1635 (  2423 PWs)   bands (ev):

   -39.2552 -39.2089 -39.2009 -39.1896  -0.1687   5.7158   5.9230   6.7862
     8.0315   9.0196   9.5575  10.3113

          k =-0.2871 0.1914 1.4544 (  2422 PWs)   bands (ev):

   -39.2057 -39.1972 -39.1954 -39.1877   1.4483   3.6919   7.0173   7.1413
     8.1577   9.1775   9.4051  10.9412

          k =-0.3827 0.1914 1.7452 (  2429 PWs)   bands (ev):

   -39.2407 -39.2209 -39.2038 -39.1889  -0.0793   5.2757   5.6343   6.1440
     7.9197   9.9789  10.6120  10.8258

          k = 0.4784 0.1914-0.8726 (  2429 PWs)   bands (ev):

   -39.3141 -39.2662 -39.2406 -39.2085  -1.9482   3.8455   4.7035   6.6593
     8.7595   9.0875   9.9639  11.6493

          k = 0.3827 0.1914-0.5817 (  2428 PWs)   bands (ev):

   -39.3948 -39.3168 -39.2850 -39.2458  -3.3434   2.8349   3.5932   5.5247
     7.2766   9.2441  11.1208  12.5281

          k = 0.2871 0.1914-0.2909 (  2432 PWs)   bands (ev):

   -39.4578 -39.3526 -39.3203 -39.2826  -4.1940   2.2852   2.8899   4.8328
     5.9509   8.9559  10.9990  12.7674

          k = 0.1914 0.1914 0.0000 (  2413 PWs)   bands (ev):

   -39.4841 -39.3600 -39.3334 -39.3001  -4.4816   2.2204   2.6429   4.6313
     5.2631   8.9677  11.0265  12.1713

          k = 0.0957 0.1914 0.2909 (  2439 PWs)   bands (ev):

   -39.4671 -39.3371 -39.3217 -39.2906  -4.2039   2.6568   2.8611   4.8327
     5.3234   9.3239  11.3295  11.9290

          k =-0.0957 0.3827 1.4544 (  2430 PWs)   bands (ev):

   -39.2061 -39.1986 -39.1956 -39.1879   1.4485   3.6875   6.9554   7.4424
     8.0109   8.5073  10.1023  10.9933

          k =-0.2871 0.3827 2.0361 (  2417 PWs)   bands (ev):

   -39.3068 -39.2739 -39.2393 -39.2067  -1.9347   3.7001   4.6631   6.8912
     8.3815   8.7734  11.3113  11.8239

          k =-0.3827 0.3827 2.3270 (  2427 PWs)   bands (ev):

   -39.3795 -39.3358 -39.2848 -39.2416  -3.3265   2.5667   3.5165   5.8789
     7.1106   9.8705  11.2619  12.5791

          k = 0.4784 0.3827-0.2909 (  2432 PWs)   bands (ev):

   -39.4380 -39.3813 -39.3207 -39.2736  -4.1779   1.9041   2.7983   5.2658
     6.1242   9.3529  10.7650  12.1475

          k = 0.3827 0.3827-0.0000 (  2441 PWs)   bands (ev):

   -39.4644 -39.3943 -39.3345 -39.2883  -4.4654   1.7291   2.5511   5.1415
     5.6082   9.1333  10.5925  11.9966

          k = 0.2871 0.3827 0.2909 (  2440 PWs)   bands (ev):

   -39.4480 -39.3694 -39.3213 -39.2775  -4.1841   2.0542   2.7837   5.4323
     5.7132   9.3312  10.7481  12.2217

          k = 0.0957 0.3827 0.8726 (  2423 PWs)   bands (ev):

   -39.3216 -39.2564 -39.2400 -39.2104  -1.9696   4.1904   4.5816   7.0064
     7.9465   8.8757  10.3585  12.0999

          k = 0.0957 0.0000 0.8726 (  2420 PWs)   bands (ev):

   -39.3332 -39.2382 -39.2362 -39.2206  -2.0155   4.9471   4.9879   6.2366
     7.1967   9.0673  11.0959  11.4450

          k =-0.0000 0.0000 1.1635 (  2417 PWs)   bands (ev):

   -39.2582 -39.2004 -39.2004 -39.1913  -0.2011   5.8469   6.6994   6.6994
     7.6156   8.3836   9.9039   9.9039

          k =-0.0957 0.0000 1.4544 (  2420 PWs)   bands (ev):

   -39.2068 -39.1951 -39.1944 -39.1899   1.4419   3.7204   7.1021   7.1432
     8.2576   9.0975   9.6243   9.7614

          k =-0.1914 0.0000 1.7452 (  2435 PWs)   bands (ev):

   -39.2317 -39.2201 -39.2136 -39.1896  -0.0213   5.4355   5.4497   5.6248
     7.3455  10.7867  11.0404  11.6466

          k = 0.6698-0.0000-0.8726 (  2421 PWs)   bands (ev):

   -39.3009 -39.2678 -39.2554 -39.2039  -1.9037   3.9569   4.0189   6.2811
     8.6988  10.1276  11.0482  12.7193

          k = 0.5741-0.0000-0.5817 (  2436 PWs)   bands (ev):

   -39.3806 -39.3224 -39.3022 -39.2385  -3.3152   2.8797   2.9697   5.3598
     8.3622   9.7840  11.4469  12.4562

          k = 0.4784 0.0000-0.2909 (  2435 PWs)   bands (ev):

   -39.4456 -39.3595 -39.3369 -39.2727  -4.1773   2.2695   2.3866   4.7565
     6.9166   9.0665  11.4609  12.1081

          k = 0.3827 0.0000 0.0000 (  2427 PWs)   bands (ev):

   -39.4752 -39.3675 -39.3468 -39.2898  -4.4713   2.1609   2.2885   4.5684
     6.0313   8.8348  11.3080  11.9049

          k = 0.2871 0.0000 0.2909 (  2429 PWs)   bands (ev):

   -39.4619 -39.3415 -39.3259 -39.2842  -4.1977   2.5756   2.6893   4.8107
     5.7624   9.1230  11.4594  11.8837

          k = 0.0957 0.1914 1.4544 (  2426 PWs)   bands (ev):

   -39.2070 -39.1964 -39.1951 -39.1890   1.4444   3.7077   7.0920   7.1804
     8.1203   9.0447   9.4811  10.3793

          k =-0.0957 0.1914 2.0361 (  2415 PWs)   bands (ev):

   -39.2930 -39.2725 -39.2583 -39.2030  -1.8895   3.8325   4.0275   6.1313
     8.6707  10.4534  11.5926  13.1630

          k =-0.1914 0.1914 2.3270 (  2437 PWs)   bands (ev):

   -39.3647 -39.3354 -39.3080 -39.2356  -3.2972   2.6462   2.9692   5.1713
     9.0366  10.4769  11.2589  12.9821

          k = 0.6698 0.1914-0.2909 (  2433 PWs)   bands (ev):

   -39.4254 -39.3809 -39.3426 -39.2664  -4.1601   1.9424   2.3699   4.5907
     7.8829   9.4481  11.1942  12.5668

          k = 0.5741 0.1914-0.0000 (  2450 PWs)   bands (ev):

   -39.4550 -39.3945 -39.3514 -39.2821  -4.4544   1.7353   2.2638   4.4491
     7.1542   8.8733  11.0230  12.4974

          k = 0.4784 0.1914 0.2909 (  2436 PWs)   bands (ev):

   -39.4429 -39.3699 -39.3292 -39.2731  -4.1775   2.0327   2.6707   4.7675
     6.9369   8.8340  11.0965  12.8353

          k = 0.2871 0.1914 0.8726 (  2431 PWs)   bands (ev):

   -39.3248 -39.2558 -39.2366 -39.2127  -1.9826   4.1306   4.9983   6.6299
     8.1500   8.8700  10.1417  11.1887

          k = 0.0957-0.5741-0.8726 (  2431 PWs)   bands (ev):

   -39.3087 -39.2670 -39.2483 -39.2065  -1.9263   3.8984   4.3203   6.4871
     8.7431   9.7957  10.1858  12.1380

          k =-0.0957-0.5741-0.2909 (  2434 PWs)   bands (ev):

   -39.4352 -39.3698 -39.3417 -39.2686  -4.1667   2.1211   2.2931   4.7219
     7.2967   9.6704  11.1248  12.1209

          k = 0.6698-0.5741-2.6178 (  2439 PWs)   bands (ev):

   -39.4341 -39.3817 -39.3295 -39.2706  -4.1712   1.9334   2.5845   5.0027
     6.6572   9.9776  10.4919  12.1048

          k = 0.4784-0.5741-2.0361 (  2426 PWs)   bands (ev):

   -39.3098 -39.2743 -39.2352 -39.2092  -1.9483   3.6598   4.9668   7.1018
     8.0247   8.7094  10.7571  11.5524

          k = 0.3827-0.5741-1.7452 (  2427 PWs)   bands (ev):

   -39.2447 -39.2212 -39.1999 -39.1896  -0.1133   5.1863   5.6773   6.8276
     8.3351   9.0079   9.9519  11.0083

          k = 0.2871-0.5741-1.4544 (  2430 PWs)   bands (ev):

   -39.2040 -39.1986 -39.1976 -39.1878   1.4519   3.6818   6.9312   6.9761
     8.5193   9.1322   9.6064  11.1097

          k = 0.0957-0.3827-0.2909 (  2432 PWs)   bands (ev):

   -39.4533 -39.3545 -39.3282 -39.2780  -4.1877   2.2668   2.6953   4.7448
     6.4499   8.8448  11.2139  12.6161

          k = 0.6698-0.3827-2.0361 (  2424 PWs)   bands (ev):

   -39.3166 -39.2659 -39.2356 -39.2100  -1.9615   3.8308   4.9341   7.2297
     7.7177   8.7870  10.6356  11.3975

          k = 0.4784-0.3827-1.4544 (  2436 PWs)   bands (ev):

   -39.2030 -39.1997 -39.1991 -39.1879   1.4540   3.6782   6.8534   6.8789
     8.9885   9.0493   9.6969  10.9120

          k = 0.2871 0.0000 1.4544 (  2432 PWs)   bands (ev):

   -39.2067 -39.1980 -39.1952 -39.1886   1.4461   3.6982   7.0307   7.3512
     8.0429   8.6129   9.9025  10.6493

          k = 0.0957 0.0000 2.0361 (  2414 PWs)   bands (ev):

   -39.2834 -39.2721 -39.2669 -39.2030  -1.8750   3.8723   3.8805   5.9540
     8.6521  11.3548  11.5544  13.0455

          k =-0.0000 0.0000 2.3270 (  2414 PWs)   bands (ev):

   -39.3413 -39.3330 -39.3330 -39.2323  -3.2784   2.7038   2.7038   4.8964
    10.6617  10.6617  11.2481  13.5698

          k = 0.8612 0.0000-0.2909 (  2434 PWs)   bands (ev):

   -39.3997 -39.3802 -39.3731 -39.2610  -4.1418   2.0027   2.0107   4.2789
     9.6499   9.8704  11.4459  12.9912

          k = 0.7655 0.0000-0.0000 (  2438 PWs)   bands (ev):

   -39.4313 -39.3951 -39.3788 -39.2742  -4.4359   1.7915   1.8220   4.1360
     8.7701   9.4651  11.3030  12.6179

          k = 0.6698 0.0000 0.2909 (  2441 PWs)   bands (ev):

   -39.4241 -39.3731 -39.3532 -39.2659  -4.1558   2.0823   2.1431   4.4918
     8.3144   9.4706  11.4724  12.5103

          k = 0.4784 0.0000 0.8726 (  2428 PWs)   bands (ev):

   -39.3161 -39.2601 -39.2452 -39.2081  -1.9482   4.1657   4.2876   6.7175
     8.7309   8.8995  10.3663  12.0029

          k = 0.2871-0.7655-0.8726 (  2422 PWs)   bands (ev):

   -39.3015 -39.2736 -39.2482 -39.2050  -1.9124   3.7630   4.3117   6.4573
     8.6834   9.4299  11.4647  12.6452

          k = 0.0957-0.7655-0.2909 (  2438 PWs)   bands (ev):

   -39.4134 -39.3801 -39.3586 -39.2636  -4.1489   1.9756   2.1421   4.3901
     8.9154   9.5971  11.4574  12.7738

          k = 0.4784-0.7655-1.4544 (  2430 PWs)   bands (ev):

   -39.2049 -39.1988 -39.1961 -39.1882   1.4507   3.6823   6.9292   7.1638
     8.4373   8.5862   9.9429  11.2851

          k = 0.1914-0.0957-0.8726 (  2427 PWs)   bands (ev):

   -39.3308 -39.2461 -39.2366 -39.2165  -2.0031   4.5730   4.9439   6.5627
     7.4693   8.9983  10.5135  11.5772

          k = 0.1914-0.2871-1.4544 (  2422 PWs)   bands (ev):

   -39.2057 -39.1973 -39.1957 -39.1873   1.4483   3.6919   6.9360   7.2692
     8.1096   8.9075   9.9254  10.5838

          k = 0.1914-0.3827-1.7452 (  2429 PWs)   bands (ev):

   -39.2410 -39.2207 -39.2036 -39.1890  -0.0793   5.2473   5.6593   6.1616
     7.9660   9.7106  10.2250  11.7615

          k = 0.1914 0.4784 0.8726 (  2429 PWs)   bands (ev):

   -39.3143 -39.2666 -39.2402 -39.2083  -1.9483   3.8724   4.6172   7.0456
     8.0966   8.8103  10.9156  11.9566

          k = 0.1914 0.3827 0.5817 (  2428 PWs)   bands (ev):

   -39.3946 -39.3166 -39.2851 -39.2462  -3.3434   2.8807   3.4769   6.0020
     6.5822   9.8098  10.9818  12.7242

          k = 0.1914 0.2871 0.2909 (  2432 PWs)   bands (ev):

   -39.4580 -39.3523 -39.3206 -39.2824  -4.1940   2.3191   2.8148   5.1400
     5.5954   9.1659  11.0096  12.2017

          k = 0.1914 0.0957-0.2909 (  2439 PWs)   bands (ev):

   -39.4671 -39.3371 -39.3214 -39.2909  -4.2039   2.6135   2.9267   4.6974
     5.4582   9.2648  11.2241  12.4367

          k = 0.3827-0.0957-1.4544 (  2430 PWs)   bands (ev):

   -39.2052 -39.1990 -39.1954 -39.1887   1.4485   3.6875   7.0143   7.2992
     8.1251   8.5506   9.8369  11.3846

          k = 0.3827-0.2871-2.0361 (  2417 PWs)   bands (ev):

   -39.3065 -39.2737 -39.2397 -39.2068  -1.9347   3.6916   4.6980   6.7300
     8.6742   8.8572  10.6745  11.9668

          k = 0.3827 0.4784 0.2909 (  2432 PWs)   bands (ev):

   -39.4381 -39.3812 -39.3208 -39.2736  -4.1779   1.9106   2.7776   5.4766
     5.8666   9.5665  10.6350  12.0475

          k = 0.3827 0.2871-0.2909 (  2440 PWs)   bands (ev):

   -39.4479 -39.3696 -39.3209 -39.2779  -4.1841   2.0341   2.8403   5.0293
     6.2123   8.9907  10.8699  12.5682

          k = 0.3827 0.0957-0.8726 (  2423 PWs)   bands (ev):

   -39.3216 -39.2562 -39.2403 -39.2103  -1.9696   4.1428   4.6771   6.6876
     8.5532   8.8450  10.0183  11.4458

          k = 0.1914 0.0957-1.4544 (  2426 PWs)   bands (ev):

   -39.2069 -39.1962 -39.1953 -39.1891   1.4444   3.7077   7.0220   7.2817
     8.0853   8.9076   9.8533  10.1187

          k = 0.1914-0.0957-2.0361 (  2415 PWs)   bands (ev):

   -39.2926 -39.2727 -39.2582 -39.2032  -1.8895   3.8214   4.0425   6.1195
     8.6735  10.7860  11.0909  13.0644

          k = 0.1914 0.6698 0.2909 (  2433 PWs)   bands (ev):

   -39.4253 -39.3811 -39.3429 -39.2659  -4.1601   1.9656   2.3313   4.6454
     7.6269  10.2108  10.6379  12.3197

          k = 0.1914 0.5741-0.0000 (  2450 PWs)   bands (ev):

   -39.4554 -39.3943 -39.3515 -39.2817  -4.4543   1.7790   2.1834   4.6040
     6.7205   9.8590  10.4152  11.9570

          k = 0.1914 0.4784-0.2909 (  2436 PWs)   bands (ev):

   -39.4435 -39.3693 -39.3292 -39.2731  -4.1776   2.0868   2.5579   5.0761
     6.3551   9.6566  10.7902  12.0335

          k = 0.1914 0.2871-0.8726 (  2431 PWs)   bands (ev):

   -39.3248 -39.2559 -39.2363 -39.2130  -1.9826   4.1480   4.9331   6.8964
     7.7546   8.8916  10.2870  11.4979

          k =-0.5741 0.0957 0.8726 (  2431 PWs)   bands (ev):

   -39.3088 -39.2668 -39.2484 -39.2066  -1.9263   3.9354   4.2574   6.6032
     8.6989   9.1314  11.0833  12.6000

          k =-0.5741-0.0957 0.2909 (  2434 PWs)   bands (ev):

   -39.4350 -39.3700 -39.3416 -39.2687  -4.1667   2.0503   2.3919   4.6169
     7.7090   8.9574  11.3909  12.6980

          k =-0.5741 0.6698 2.6178 (  2439 PWs)   bands (ev):

   -39.4340 -39.3817 -39.3295 -39.2707  -4.1712   1.9156   2.6273   4.8708
     6.9258   9.3405  10.9318  12.3478

          k =-0.5741 0.4784 2.0361 (  2426 PWs)   bands (ev):

   -39.3101 -39.2742 -39.2356 -39.2087  -1.9482   3.6628   4.9467   7.4030
     7.6381   8.7190  11.1054  11.3796

          k =-0.5741 0.2871 1.4544 (  2430 PWs)   bands (ev):

   -39.2045 -39.1987 -39.1972 -39.1876   1.4519   3.6818   6.8746   7.0435
     8.5402   8.9465   9.9022  10.8669

          k =-0.3827 0.0957 0.2909 (  2432 PWs)   bands (ev):

   -39.4535 -39.3543 -39.3284 -39.2778  -4.1877   2.3577   2.5549   5.0035
     6.0681   9.2168  11.3374  11.8026

          k =-0.3827 0.6698 2.0361 (  2424 PWs)   bands (ev):

   -39.3163 -39.2662 -39.2355 -39.2102  -1.9615   3.8211   4.9870   6.8342
     8.3264   8.7648  10.2178  11.3572

          k =-0.7655 0.2871 0.8726 (  2422 PWs)   bands (ev):

   -39.3011 -39.2734 -39.2483 -39.2054  -1.9124   3.7511   4.3384   6.3987
     8.7006   9.7732  10.8275  12.5413

          k =-0.7655 0.0957 0.2909 (  2438 PWs)   bands (ev):

   -39.4131 -39.3803 -39.3590 -39.2634  -4.1489   1.9957   2.1180   4.4019
     8.6912  10.0427  11.1728  12.6646

     the Fermi energy is     6.8793 ev

!    total energy              =     -65.76163703 Ry
     estimated scf accuracy    <          1.9E-09 Ry
     smearing contrib. (-TS)   =      -0.00093398 Ry
     internal energy E=F+TS    =     -65.76070304 Ry

     The total energy is F=E-TS. E is the sum of the following terms:
     one-electron contribution =     -24.33024515 Ry
     hartree contribution      =      12.13226487 Ry
     xc contribution           =     -17.22119460 Ry
     ewald contribution        =     -36.34152816 Ry

     convergence has been achieved in   7 iterations

     Forces acting on atoms (cartesian axes, Ry/au):

     atom    1 type  1   force =     0.02638929    0.06474134    0.00000000
     atom    2 type  1   force =    -0.02638929   -0.06474134    0.00000000
     atom    3 type  1   force =    -0.06474134    0.02638929   -0.00000000
     atom    4 type  1   force =     0.06474134   -0.02638929    0.00000000
     atom    5 type  2   force =    -0.00000000    0.00000000    0.00000000
     The non-local contrib.  to forces
     atom    1 type  1   force =     0.02942340    0.00106346    0.00000000
     atom    2 type  1   force =    -0.02942340   -0.00106346   -0.00000000
     atom    3 type  1   force =    -0.00106346    0.02942340   -0.00000000
     atom    4 type  1   force =     0.00106346   -0.02942340   -0.00000000
     atom    5 type  2   force =     0.00000000    0.00000000    0.00000000
     The ionic contribution  to forces
     atom    1 type  1   force =     0.11079912    0.60891060   -0.00000000
     atom    2 type  1   force =    -0.11079912   -0.60891060   -0.00000000
     atom    3 type  1   force =    -0.60891060    0.11079912   -0.00000000
     atom    4 type  1   force =     0.60891060   -0.11079912   -0.00000000
     atom    5 type  2   force =    -0.00000000   -0.00000000    0.00000000
     The local contribution  to forces
     atom    1 type  1   force =    -0.11385584   -0.54521191    0.00000000
     atom    2 type  1   force =     0.11385584    0.54521191   -0.00000000
     atom    3 type  1   force =     0.54521191   -0.11385584   -0.00000000
     atom    4 type  1   force =    -0.54521191    0.11385584    0.00000000
     atom    5 type  2   force =    -0.00000000   -0.00000000   -0.00000000
     The core correction contribution to forces
     atom    1 type  1   force =     0.00000000    0.00000000    0.00000000
     atom    2 type  1   force =     0.00000000    0.00000000    0.00000000
     atom    3 type  1   force =     0.00000000    0.00000000    0.00000000
     atom    4 type  1   force =     0.00000000    0.00000000    0.00000000
     atom    5 type  2   force =     0.00000000   -0.00000000   -0.00000000
     The Hubbard contrib.    to forces
     atom    1 type  1   force =     0.00000000    0.00000000    0.00000000
     atom    2 type  1   force =     0.00000000    0.00000000    0.00000000
     atom    3 type  1   force =     0.00000000    0.00000000    0.00000000
     atom    4 type  1   force =     0.00000000    0.00000000    0.00000000
     atom    5 type  2   force =     0.00000000    0.00000000    0.00000000
     The SCF correction term to forces
     atom    1 type  1   force =     0.00002260   -0.00002081   -0.00000000
     atom    2 type  1   force =    -0.00002260    0.00002081   -0.00000000
     atom    3 type  1   force =     0.00002081    0.00002260   -0.00000000
     atom    4 type  1   force =    -0.00002081   -0.00002260    0.00000000
     atom    5 type  2   force =     0.00000000   -0.00000000   -0.00000000

     Total force =     0.139826     Total SCF correction =     0.000061


     Computing stress (Cartesian axis) and pressure

          total   stress  (Ry/bohr**3)                   (kbar)     P=      436.15
   0.00290225   0.00000000   0.00000000          426.94        0.00        0.00
  -0.00000000   0.00290225  -0.00000000           -0.00      426.94       -0.00
   0.00000000   0.00000000   0.00309007            0.00        0.00      454.57

     Energy error            =      1.2E-01 Ry
     Gradient error          =      6.5E-02 Ry/Bohr
     Cell gradient error     =      7.3E+01 kbar

     number of scf cycles    =   2
     number of bfgs steps    =   1

     enthalpy           old  =     -64.5443525352 Ry
     enthalpy           new  =     -64.6608203172 Ry

     CASE: enthalpy          _new < enthalpy          _old

     new trust radius        =       0.1226344817 bohr
ibrav =      7
 celldm(1) =     12.41947145
 celldm(3) =      0.32624723
Input lattice vectors:
     0.51777057    -0.51777057     0.16892122
     0.51777057     0.51777057     0.16892122
    -0.51777057    -0.51777057     0.16892122
New lattice vectors in INITIAL alat:
     0.51777057    -0.51777057     0.16892122
     0.51777057     0.51777057     0.16892122
    -0.51777057    -0.51777057     0.16892122
New lattice vectors in NEW alat (for information only):
     0.50000000    -0.50000000     0.16312362
     0.50000000     0.50000000     0.16312362
    -0.50000000    -0.50000000     0.16312362
Discrepancy in bohr =     0.000000    0.000000    0.000000
     new conv_thr            =       0.0000000006 Ry

     new unit-cell volume =    312.48285 a.u.^3 (    46.30518 Ang^3 )
     density =      2.00281 g/cm^3

CELL_PARAMETERS (alat= 11.99321877)
   0.517770570  -0.517770570   0.168921216
   0.517770570   0.517770570   0.168921216
  -0.517770570  -0.517770570   0.168921216

ATOMIC_POSITIONS (crystal)
Li           -0.2077644863        0.3004733325       -0.0927088462
Li            0.2077644863        0.6995266675       -0.9072911538
Li            0.6068178213        0.0927088462       -0.6995266675
Li           -0.6068178213        0.9072911538       -0.3004733325
Si           -0.0000000000        0.0000000000        0.0000000000



     Writing config-only to output data dir ./output/LiSi.save/
     NEW-OLD atomic charge density approx. for the potential
     extrapolated charge   15.41756, renormalised to   16.00000

     total cpu time spent up to now is       23.3 secs

     Self-consistent Calculation

     iteration #  1     ecut=    60.00 Ry     beta= 0.80
     Davidson diagonalization with overlap
     ethr =  1.00E-06,  avg # of iterations =  8.2

     total cpu time spent up to now is       26.0 secs

     total energy              =     -65.74708863 Ry
     estimated scf accuracy    <       0.00690340 Ry

     iteration #  2     ecut=    60.00 Ry     beta= 0.80
     Davidson diagonalization with overlap
     ethr =  4.31E-05,  avg # of iterations =  2.3

     total cpu time spent up to now is       27.4 secs

     total energy              =     -65.74998690 Ry
     estimated scf accuracy    <       0.01389571 Ry

     iteration #  3     ecut=    60.00 Ry     beta= 0.80
     Davidson diagonalization with overlap
     ethr =  4.31E-05,  avg # of iterations =  2.0

     total cpu time spent up to now is       28.5 secs

     total energy              =     -65.75274258 Ry
     estimated scf accuracy    <       0.00038079 Ry

     iteration #  4     ecut=    60.00 Ry     beta= 0.80
     Davidson diagonalization with overlap
     ethr =  2.38E-06,  avg # of iterations =  1.9

     total cpu time spent up to now is       29.6 secs

     total energy              =     -65.75275456 Ry
     estimated scf accuracy    <       0.00003337 Ry

     iteration #  5     ecut=    60.00 Ry     beta= 0.80
     Davidson diagonalization with overlap
     ethr =  2.09E-07,  avg # of iterations =  2.1

     total cpu time spent up to now is       30.7 secs

     total energy              =     -65.75275854 Ry
     estimated scf accuracy    <       0.00000051 Ry

     iteration #  6     ecut=    60.00 Ry     beta= 0.80
     Davidson diagonalization with overlap
     ethr =  3.18E-09,  avg # of iterations =  2.4

     total cpu time spent up to now is       31.8 secs

     total energy              =     -65.75275864 Ry
     estimated scf accuracy    <       0.00000004 Ry

     iteration #  7     ecut=    60.00 Ry     beta= 0.80
     Davidson diagonalization with overlap
     ethr =  2.44E-10,  avg # of iterations =  2.3

     total cpu time spent up to now is       32.9 secs

     End of self-consistent calculation

          k = 0.0000 0.0000 0.0000 (  2417 PWs)   bands (ev):

   -39.2044 -39.0059 -39.0059 -38.9716  -4.2733   2.9163   2.9163   4.7137
     5.0861   9.5417  12.3186  12.3186

          k =-0.0966 0.0000 0.2960 (  2432 PWs)   bands (ev):

   -39.1768 -38.9927 -38.9895 -38.9528  -3.9809   3.1320   3.1562   4.9767
     5.4570   9.7053  11.5330  12.3914

          k =-0.1931 0.0000 0.5920 (  2431 PWs)   bands (ev):

   -39.1021 -38.9556 -38.9473 -38.9067  -3.1096   3.7808   3.8543   5.7631
     6.5530  10.0589  11.7867  12.3689

          k =-0.2897 0.0000 0.8880 (  2431 PWs)   bands (ev):

   -39.0047 -38.9057 -38.8962 -38.8592  -1.6808   4.8366   4.9575   7.0954
     8.2212   9.4751  10.7172  11.9697

          k =-0.3863 0.0000 1.1840 (  2431 PWs)   bands (ev):

   -38.9126 -38.8623 -38.8550 -38.8346   0.2319   6.1742   6.2458   6.5794
     8.7853   9.5651   9.9974  11.4118

          k = 0.4828-0.0000-1.4800 (  2442 PWs)   bands (ev):

   -38.8541 -38.8502 -38.8439 -38.8394   1.8311   4.2881   7.3349   8.0112
     8.2014   8.7527  10.4989  12.1983

          k =-0.0966 0.1931 0.8880 (  2427 PWs)   bands (ev):

   -39.0080 -38.9019 -38.8918 -38.8633  -1.6944   4.8586   5.3123   6.8292
     7.9920   9.5369  11.0732  11.4891

          k =-0.1931 0.1931 1.1840 (  2423 PWs)   bands (ev):

   -38.9165 -38.8593 -38.8506 -38.8361   0.1957   6.1914   6.4149   7.2062
     8.3384   9.3980  10.0047  10.7195

          k =-0.2897 0.1931 1.4800 (  2422 PWs)   bands (ev):

   -38.8543 -38.8473 -38.8443 -38.8378   1.8307   4.2983   7.3675   7.5045
     8.5221   9.5491   9.9143  11.4132

          k =-0.3863 0.1931 1.7760 (  2429 PWs)   bands (ev):

   -38.9022 -38.8724 -38.8557 -38.8320   0.2937   5.6000   6.2451   6.5085
     8.2115  10.3521  11.0896  11.3405

          k = 0.4828 0.1931-0.8880 (  2429 PWs)   bands (ev):

   -38.9899 -38.9258 -38.8980 -38.8509  -1.6348   4.1380   5.0159   6.9822
     9.2732   9.5424  10.4863  11.9299

          k = 0.3863 0.1931-0.5920 (  2428 PWs)   bands (ev):

   -39.0864 -38.9843 -38.9489 -38.8916  -3.0811   3.0966   3.8482   5.8618
     7.6781   9.5448  11.3690  13.0819

          k = 0.2897 0.1931-0.2960 (  2432 PWs)   bands (ev):

   -39.1607 -39.0255 -38.9896 -38.9331  -3.9641   2.5222   3.1082   5.1849
     6.3220   9.2145  11.1574  13.0483

          k = 0.1931 0.1931 0.0000 (  2413 PWs)   bands (ev):

   -39.1921 -39.0337 -39.0049 -38.9531  -4.2628   2.4456   2.8520   4.9904
     5.6275   9.1660  11.1571  12.5184

          k = 0.0966 0.1931 0.2960 (  2439 PWs)   bands (ev):

   -39.1712 -39.0069 -38.9903 -38.9431  -3.9745   2.8886   3.0869   5.1912
     5.7007   9.4865  11.4193  12.3799

          k =-0.0966 0.3863 1.4800 (  2430 PWs)   bands (ev):

   -38.8547 -38.8487 -38.8436 -38.8384   1.8310   4.2920   7.3034   7.8401
     8.3437   8.9184  10.5775  11.4610

          k =-0.2897 0.3863 2.0720 (  2417 PWs)   bands (ev):

   -38.9830 -38.9333 -38.8968 -38.8493  -1.6202   3.9881   4.9759   7.1827
     8.8663   9.2810  11.8007  12.3402

          k =-0.3863 0.3863 2.3680 (  2427 PWs)   bands (ev):

   -39.0708 -39.0053 -38.9485 -38.8861  -3.0630   2.8239   3.7715   6.1835
     7.5075  10.1772  11.7649  12.6595

          k = 0.4828 0.3863-0.2960 (  2432 PWs)   bands (ev):

   -39.1404 -39.0581 -38.9892 -38.9216  -3.9470   2.1392   3.0164   5.5803
     6.4917   9.6954  11.1606  12.2016

          k = 0.3863 0.3863 0.0000 (  2441 PWs)   bands (ev):

   -39.1700 -39.0735 -39.0054 -38.9378  -4.2457   1.9559   2.7586   5.4520
     5.9781   9.4567  10.9560  12.0653

          k = 0.2897 0.3863 0.2960 (  2440 PWs)   bands (ev):

   -39.1498 -39.0450 -38.9903 -38.9263  -3.9536   2.2899   3.0059   5.7102
     6.1333   9.6097  11.0901  12.3718

          k = 0.0966 0.3863 0.8880 (  2423 PWs)   bands (ev):

   -38.9982 -38.9142 -38.8970 -38.8544  -1.6581   4.4931   4.8896   7.3352
     8.3960   9.4216  10.7524  12.6504

          k = 0.0966-0.0000 0.8880 (  2420 PWs)   bands (ev):

   -39.0108 -38.8931 -38.8912 -38.8685  -1.7078   5.2650   5.3017   6.6196
     7.5833   9.6407  11.5181  11.9197

          k =-0.0000-0.0000 1.1840 (  2417 PWs)   bands (ev):

   -38.9195 -38.8500 -38.8500 -38.8392   0.1606   6.5232   7.0814   7.0814
     7.9092   8.6772  10.4049  10.4049

          k =-0.0966-0.0000 1.4800 (  2420 PWs)   bands (ev):

   -38.8552 -38.8441 -38.8427 -38.8417   1.8250   4.3373   7.4691   7.5168
     8.4695   9.4567  10.1857  10.2916

          k =-0.1931 0.0000 1.7760 (  2435 PWs)   bands (ev):

   -38.8918 -38.8720 -38.8681 -38.8307   0.3589   5.7826   5.8025   6.2016
     7.5752  11.1369  11.6667  12.2624

          k = 0.6760-0.0000-0.8880 (  2421 PWs)   bands (ev):

   -38.9747 -38.9274 -38.9168 -38.8445  -1.5855   4.2503   4.3060   6.5489
     9.3174  10.6339  11.5950  13.0614

          k = 0.5794-0.0000-0.5920 (  2436 PWs)   bands (ev):

   -39.0697 -38.9898 -38.9711 -38.8817  -3.0505   3.1350   3.2194   5.6514
     8.8275  10.1418  11.9825  12.5505

          k = 0.4828-0.0000-0.2960 (  2435 PWs)   bands (ev):

   -39.1468 -39.0328 -39.0109 -38.9197  -3.9463   2.4986   2.6121   5.0628
     7.3391   9.3837  11.6614  12.3391

          k = 0.3863 0.0000 0.0000 (  2427 PWs)   bands (ev):

   -39.1818 -39.0421 -39.0210 -38.9402  -4.2519   2.3814   2.5056   4.8898
     6.4280   9.1003  11.4031  12.2521

          k = 0.2897-0.0000 0.2960 (  2429 PWs)   bands (ev):

   -39.1655 -39.0119 -38.9966 -38.9352  -3.9680   2.8082   2.9167   5.1513
     6.1517   9.3381  11.4958  12.3571

          k = 0.0966 0.1931 1.4800 (  2426 PWs)   bands (ev):

   -38.8551 -38.8460 -38.8437 -38.8401   1.8273   4.3197   7.4526   7.5580
     8.4019   9.3854  10.0426  10.8690

          k =-0.0966 0.1931 2.0720 (  2415 PWs)   bands (ev):

   -38.9665 -38.9329 -38.9202 -38.8428  -1.5697   4.1175   4.3171   6.3906
     9.2964  10.9704  12.2232  13.5955

          k =-0.1931 0.1931 2.3680 (  2437 PWs)   bands (ev):

   -39.0530 -39.0048 -38.9771 -38.8774  -3.0309   2.8938   3.2157   5.4541
     9.5035  10.9780  11.6747  13.0955

          k = 0.6760 0.1931-0.2960 (  2433 PWs)   bands (ev):

   -39.1241 -39.0578 -39.0172 -38.9116  -3.9281   2.1684   2.5866   4.8873
     8.3044   9.9272  11.4079  12.6435

          k = 0.5794 0.1931 0.0000 (  2450 PWs)   bands (ev):

   -39.1589 -39.0734 -39.0268 -38.9289  -4.2341   1.9563   2.4698   4.7561
     7.5436   9.3052  11.1974  12.6040

          k = 0.4828 0.1931 0.2960 (  2436 PWs)   bands (ev):

   -39.1441 -39.0454 -39.0004 -38.9204  -3.9466   2.2662   2.8884   5.0875
     7.3205   9.2077  11.2629  13.0226

          k = 0.2897 0.1931 0.8880 (  2431 PWs)   bands (ev):

   -39.0018 -38.9139 -38.8922 -38.8572  -1.6723   4.4317   5.3171   6.9927
     8.5795   9.3781  10.5998  11.4915

          k = 0.0966-0.5794-0.8880 (  2431 PWs)   bands (ev):

   -38.9834 -38.9261 -38.9078 -38.8483  -1.6106   4.1901   4.6202   6.7765
     9.3254  10.3028  10.6744  12.4247

          k =-0.0966-0.5794-0.2960 (  2434 PWs)   bands (ev):

   -39.1349 -39.0448 -39.0165 -38.9146  -3.9351   2.3455   2.5181   5.0147
     7.7356  10.0121  11.5918  12.0822

          k = 0.6760-0.5794-2.6640 (  2439 PWs)   bands (ev):

   -39.1351 -39.0580 -39.0005 -38.9175  -3.9399   2.1646   2.8052   5.2960
     7.0619  10.2665  11.0158  12.0836

          k = 0.4828-0.5794-2.0720 (  2426 PWs)   bands (ev):

   -38.9866 -38.9343 -38.8911 -38.8519  -1.6352   3.9486   5.2894   7.4399
     8.4276   9.1950  11.3072  11.9625

          k = 0.3863-0.5794-1.7760 (  2427 PWs)   bands (ev):

   -38.9067 -38.8727 -38.8500 -38.8337   0.2557   5.5076   6.2870   7.2559
     8.6331   9.3792  10.4571  11.3387

          k = 0.2897-0.5794-1.4800 (  2430 PWs)   bands (ev):

   -38.8530 -38.8485 -38.8458 -38.8379   1.8339   4.2849   7.2740   7.3246
     8.9491   9.6419   9.9862  11.5536

          k = 0.0966-0.3863-0.2960 (  2432 PWs)   bands (ev):

   -39.1555 -39.0276 -38.9995 -38.9270  -3.9574   2.5015   2.9165   5.0762
     6.8428   9.1375  11.3392  12.9224

          k = 0.6760-0.3863-2.0720 (  2424 PWs)   bands (ev):

   -38.9935 -38.9252 -38.8911 -38.8537  -1.6496   4.1241   5.2545   7.5647
     8.1382   9.3006  11.0819  11.8022

          k = 0.4828-0.3863-1.4800 (  2436 PWs)   bands (ev):

   -38.8512 -38.8495 -38.8479 -38.8380   1.8356   4.2806   7.1935   7.2201
     9.4800   9.5770  10.0825  11.2807

          k = 0.2897-0.0000 1.4800 (  2432 PWs)   bands (ev):

   -38.8549 -38.8476 -38.8433 -38.8398   1.8288   4.3066   7.3853   7.7532
     8.3276   9.0162  10.3988  11.1272

          k = 0.0966-0.0000 2.0720 (  2414 PWs)   bands (ev):

   -38.9567 -38.9327 -38.9297 -38.8423  -1.5536   4.1566   4.1640   6.2075
     9.2822  11.9582  12.1996  13.4108

          k =-0.0000-0.0000 2.3680 (  2414 PWs)   bands (ev):

   -39.0301 -39.0032 -39.0032 -38.8726  -3.0104   2.9442   2.9442   5.1764
    11.2844  11.2844  11.5471  13.7991

          k = 0.8691-0.0000-0.2960 (  2434 PWs)   bands (ev):

   -39.0958 -39.0570 -39.0527 -38.9041  -3.9085   2.2168   2.2246   4.5729
    10.2061  10.4298  11.5687  13.0771

          k = 0.7725 0.0000 0.0000 (  2438 PWs)   bands (ev):

   -39.1316 -39.0741 -39.0611 -38.9183  -4.2147   1.9986   2.0286   4.4329
     9.2708   9.9517  11.4796  12.6418

          k = 0.6760-0.0000 0.2960 (  2441 PWs)   bands (ev):

   -39.1216 -39.0490 -39.0310 -38.9100  -3.9234   2.3032   2.3622   4.7855
     8.7878   9.8946  11.7424  12.5614

          k = 0.4828-0.0000 0.8880 (  2428 PWs)   bands (ev):

   -38.9917 -38.9182 -38.9040 -38.8507  -1.6347   4.4714   4.5818   7.0263
     9.2887   9.3743  10.8292  12.3388

          k = 0.2897-0.7725-0.8880 (  2422 PWs)   bands (ev):

   -38.9761 -38.9334 -38.9079 -38.8462  -1.5953   4.0495   4.6121   6.7289
     9.3035   9.8793  12.0222  13.1621

          k = 0.0966-0.7725-0.2960 (  2438 PWs)   bands (ev):

   -39.1102 -39.0571 -39.0366 -38.9072  -3.9161   2.1948   2.3571   4.6837
     9.3923  10.1177  11.6332  12.8337

          k = 0.4828-0.7725-1.4800 (  2430 PWs)   bands (ev):

   -38.8532 -38.8494 -38.8447 -38.8380   1.8329   4.2853   7.2739   7.5227
     8.8620   8.9913  10.4007  11.7488

          k = 0.1931-0.0966-0.8880 (  2427 PWs)   bands (ev):

   -39.0083 -38.9020 -38.8917 -38.8630  -1.6944   4.8842   5.2599   6.9367
     7.8749   9.5531  10.8836  12.0547

          k = 0.1931-0.2897-1.4800 (  2422 PWs)   bands (ev):

   -38.8546 -38.8470 -38.8441 -38.8379   1.8307   4.2983   7.2834   7.6405
     8.4608   9.3378  10.3780  11.0603

          k = 0.1931-0.3863-1.7760 (  2429 PWs)   bands (ev):

   -38.9020 -38.8721 -38.8554 -38.8327   0.2938   5.5840   6.2187   6.5775
     8.2388  10.0538  10.7660  12.2946

          k = 0.1931 0.4828 0.8880 (  2429 PWs)   bands (ev):

   -38.9905 -38.9255 -38.8975 -38.8510  -1.6349   4.1654   4.9280   7.3402
     8.5688   9.3493  11.3322  12.4525

          k = 0.1931 0.3863 0.5920 (  2428 PWs)   bands (ev):

   -39.0863 -38.9837 -38.9490 -38.8922  -3.0811   3.1420   3.7360   6.2984
     7.0138  10.0635  11.3330  12.9715

          k = 0.1931 0.2897 0.2960 (  2432 PWs)   bands (ev):

   -39.1610 -39.0254 -38.9897 -38.9328  -3.9641   2.5546   3.0393   5.4669
     5.9867   9.3957  11.2312  12.4870

          k = 0.1931 0.0966-0.2960 (  2439 PWs)   bands (ev):

   -39.1712 -39.0071 -38.9900 -38.9433  -3.9745   2.8477   3.1469   5.0640
     5.8310   9.4389  11.3327  12.8202

          k = 0.3863-0.0966-1.4800 (  2430 PWs)   bands (ev):

   -38.8537 -38.8491 -38.8440 -38.8387   1.8310   4.2920   7.3639   7.6787
     8.4871   8.9414  10.3183  11.8602

          k = 0.3863-0.2897-2.0720 (  2417 PWs)   bands (ev):

   -38.9823 -38.9339 -38.8972 -38.8490  -1.6201   3.9795   5.0116   7.0339
     9.2311   9.2737  11.2189  12.3351

          k = 0.3863 0.4828 0.2960 (  2432 PWs)   bands (ev):

   -39.1403 -39.0581 -38.9895 -38.9214  -3.9470   2.1456   2.9973   5.7547
     6.2725   9.8648  11.1290  12.0486

          k = 0.3863 0.2897-0.2960 (  2440 PWs)   bands (ev):

   -39.1497 -39.0452 -38.9902 -38.9263  -3.9536   2.2705   3.0580   5.3651
     6.5740   9.3187  11.0973  12.7712

          k = 0.3863 0.0966-0.8880 (  2423 PWs)   bands (ev):

   -38.9980 -38.9143 -38.8977 -38.8539  -1.6581   4.4442   4.9869   7.0316
     9.0049   9.3580  10.5071  11.7240

          k = 0.1931 0.0966-1.4800 (  2426 PWs)   bands (ev):

   -38.8554 -38.8457 -38.8437 -38.8401   1.8273   4.3197   7.3785   7.6734
     8.3511   9.3035  10.3504  10.6244

          k = 0.1931-0.0966-2.0720 (  2415 PWs)   bands (ev):

   -38.9664 -38.9331 -38.9199 -38.8431  -1.5697   4.1062   4.3324   6.3795
     9.2961  11.3213  11.6710  13.4414

          k = 0.1931 0.6760 0.2960 (  2433 PWs)   bands (ev):

   -39.1245 -39.0575 -39.0174 -38.9113  -3.9281   2.1905   2.5505   4.9370
     8.0624  10.8117  10.8296  12.3154

          k = 0.1931 0.5794 0.0000 (  2450 PWs)   bands (ev):

   -39.1593 -39.0728 -39.0270 -38.9289  -4.2341   1.9976   2.3959   4.8955
     7.1390  10.1389  10.9451  11.8968

          k = 0.1931 0.4828-0.2960 (  2436 PWs)   bands (ev):

   -39.1446 -39.0444 -39.0004 -38.9209  -3.9466   2.3181   2.7833   5.3666
     6.7726   9.9181  11.2675  12.0681

          k = 0.1931 0.2897-0.8880 (  2431 PWs)   bands (ev):

   -39.0018 -38.9139 -38.8916 -38.8577  -1.6723   4.4494   5.2513   7.2569
     8.1745   9.4253  10.6631  11.9123

          k =-0.5794 0.0966 0.8880 (  2431 PWs)   bands (ev):

   -38.9839 -38.9260 -38.9077 -38.8480  -1.6106   4.2281   4.5559   6.8843
     9.3346   9.5599  11.5656  13.1020

          k =-0.5794-0.0966 0.2960 (  2434 PWs)   bands (ev):

   -39.1346 -39.0457 -39.0161 -38.9143  -3.9351   2.2782   2.6107   4.9191
     8.1365   9.3569  11.5587  12.8556

          k =-0.5794 0.6760 2.6640 (  2439 PWs)   bands (ev):

   -39.1349 -39.0584 -39.0006 -38.9173  -3.9399   2.1476   2.8450   5.1769
     7.3114   9.7501  11.2230  12.4313

          k =-0.5794 0.4828 2.0720 (  2426 PWs)   bands (ev):

   -38.9868 -38.9341 -38.8916 -38.8514  -1.6352   3.9517   5.2688   7.6960
     8.0843   9.2138  11.6269  11.8420

          k =-0.5794 0.2897 1.4800 (  2430 PWs)   bands (ev):

   -38.8532 -38.8488 -38.8458 -38.8374   1.8339   4.2850   7.2168   7.3929
     8.9656   9.4213  10.3299  11.2947

          k =-0.3863 0.0966 0.2960 (  2432 PWs)   bands (ev):

   -39.1561 -39.0269 -38.9997 -38.9269  -3.9574   2.5881   2.7854   5.3122
     6.4785   9.4663  11.6059  12.0323

          k =-0.3863 0.6760 2.0720 (  2424 PWs)   bands (ev):

   -38.9932 -38.9257 -38.8914 -38.8533  -1.6495   4.1143   5.3083   7.1860
     8.7405   9.2512  10.7355  11.6706

          k =-0.7725 0.2897 0.8880 (  2422 PWs)   bands (ev):

   -38.9758 -38.9336 -38.9079 -38.8464  -1.5953   4.0373   4.6393   6.6745
     9.2993  10.2468  11.3784  12.8765

          k =-0.7725 0.0966 0.2960 (  2438 PWs)   bands (ev):

   -39.1101 -39.0572 -39.0370 -38.9066  -3.9160   2.2138   2.3344   4.6944
     9.1725  10.6154  11.3473  12.6970

     the Fermi energy is     7.2541 ev

!    total energy              =     -65.75275865 Ry
     estimated scf accuracy    <          5.0E-10 Ry
     smearing contrib. (-TS)   =      -0.00106945 Ry
     internal energy E=F+TS    =     -65.75168920 Ry

     The total energy is F=E-TS. E is the sum of the following terms:
     one-electron contribution =     -23.34862431 Ry
     hartree contribution      =      11.85809044 Ry
     xc contribution           =     -17.25701782 Ry
     ewald contribution        =     -37.00413750 Ry

     convergence has been achieved in   7 iterations

     Forces acting on atoms (cartesian axes, Ry/au):

     atom    1 type  1   force =     0.02646165    0.03567758    0.00000000
     atom    2 type  1   force =    -0.02646165   -0.03567758   -0.00000000
     atom    3 type  1   force =    -0.03567758    0.02646165    0.00000000
     atom    4 type  1   force =     0.03567758   -0.02646165    0.00000000
     atom    5 type  2   force =     0.00000000    0.00000000    0.00000000
     The non-local contrib.  to forces
     atom    1 type  1   force =     0.03312458   -0.01204391    0.00000000
     atom    2 type  1   force =    -0.03312458    0.01204391   -0.00000000
     atom    3 type  1   force =     0.01204391    0.03312458   -0.00000000
     atom    4 type  1   force =    -0.01204391   -0.03312458    0.00000000
     atom    5 type  2   force =    -0.00000000    0.00000000   -0.00000000
     The ionic contribution  to forces
     atom    1 type  1   force =     0.13890616    0.31751773    0.00000000
     atom    2 type  1   force =    -0.13890616   -0.31751773   -0.00000000
     atom    3 type  1   force =    -0.31751773    0.13890616    0.00000000
     atom    4 type  1   force =     0.31751773   -0.13890616   -0.00000000
     atom    5 type  2   force =    -0.00000000   -0.00000000    0.00000000
     The local contribution  to forces
     atom    1 type  1   force =    -0.14557224   -0.26978284    0.00000000
     atom    2 type  1   force =     0.14557224    0.26978284   -0.00000000
     atom    3 type  1   force =     0.26978284   -0.14557224    0.00000000
     atom    4 type  1   force =    -0.26978284    0.14557224   -0.00000000
     atom    5 type  2   force =    -0.00000000    0.00000000    0.00000000
     The core correction contribution to forces
     atom    1 type  1   force =     0.00000000    0.00000000    0.00000000
     atom    2 type  1   force =     0.00000000    0.00000000    0.00000000
     atom    3 type  1   force =     0.00000000    0.00000000    0.00000000
     atom    4 type  1   force =     0.00000000    0.00000000    0.00000000
     atom    5 type  2   force =    -0.00000000   -0.00000000    0.00000000
     The Hubbard contrib.    to forces
     atom    1 type  1   force =     0.00000000    0.00000000    0.00000000
     atom    2 type  1   force =     0.00000000    0.00000000    0.00000000
     atom    3 type  1   force =     0.00000000    0.00000000    0.00000000
     atom    4 type  1   force =     0.00000000    0.00000000    0.00000000
     atom    5 type  2   force =     0.00000000    0.00000000    0.00000000
     The SCF correction term to forces
     atom    1 type  1   force =     0.00000314   -0.00001340   -0.00000000
     atom    2 type  1   force =    -0.00000314    0.00001340    0.00000000
     atom    3 type  1   force =     0.00001340    0.00000314    0.00000000
     atom    4 type  1   force =    -0.00001340   -0.00000314    0.00000000
     atom    5 type  2   force =     0.00000000   -0.00000000    0.00000000

     Total force =     0.088839     Total SCF correction =     0.000028


     Computing stress (Cartesian axis) and pressure

          total   stress  (Ry/bohr**3)                   (kbar)     P=      474.09
   0.00284909  -0.00000000   0.00000000          419.12       -0.00        0.00
   0.00000000   0.00284909  -0.00000000            0.00      419.12       -0.00
  -0.00000000   0.00000000   0.00397019           -0.00        0.00      584.04

     Energy error            =      3.0E-02 Ry
     Gradient error          =      3.6E-02 Ry/Bohr
     Cell gradient error     =      8.4E+01 kbar

     number of scf cycles    =   3
     number of bfgs steps    =   2

     enthalpy           old  =     -64.6608203172 Ry
     enthalpy           new  =     -64.6906510347 Ry

     CASE: enthalpy          _new < enthalpy          _old

     new trust radius        =       0.1822731746 bohr
ibrav =      7
 celldm(1) =     12.15839320
 celldm(3) =      0.33635290
Input lattice vectors:
     0.50688616    -0.50688616     0.17049263
     0.50688616     0.50688616     0.17049263
    -0.50688616    -0.50688616     0.17049263
New lattice vectors in INITIAL alat:
     0.50688616    -0.50688616     0.17049263
     0.50688616     0.50688616     0.17049263
    -0.50688616    -0.50688616     0.17049263
New lattice vectors in NEW alat (for information only):
     0.50000000    -0.50000000     0.16817645
     0.50000000     0.50000000     0.16817645
[...]
     8.9667   9.7595  11.4602  12.2089

          k =-0.2208 0.2208 1.0045 (  2234 PWs)   bands (ev):

   -37.8100 -37.7008 -37.6611 -37.6587   0.7002   4.9106   5.8952   6.7867
     8.6063  10.5775  11.0815  11.5382

          k =-0.3312 0.2208 1.2557 (  2220 PWs)   bands (ev):

   -37.7236 -37.7077 -37.6961 -37.6809   2.1494   3.1188   6.0375   6.3575
     8.4019  11.0229  11.2433  13.1701

          k =-0.4416 0.2208 1.5068 (  2219 PWs)   bands (ev):

   -37.7752 -37.7275 -37.6745 -37.6516   0.9012   4.6069   5.2195   6.4414
     8.0366  11.1934  12.8354  13.6469

          k = 0.5520 0.2208-0.7534 (  2217 PWs)   bands (ev):

   -37.8582 -37.7560 -37.6609 -37.6075  -0.5065   4.4904   5.8404   6.9937
     8.3455  11.0010  12.3794  13.4395

          k = 0.4416 0.2208-0.5023 (  2203 PWs)   bands (ev):

   -37.9395 -37.7724 -37.6465 -37.5889  -1.5240   4.0886   5.2423   8.2325
     8.7628  10.9043  12.8399  13.2224

          k = 0.3312 0.2208-0.2511 (  2194 PWs)   bands (ev):

   -38.0032 -37.7730 -37.6346 -37.5895  -2.1346   3.9305   4.8935   7.7235
     8.6679  11.9879  13.1076  14.9401

          k = 0.2208 0.2208 0.0000 (  2201 PWs)   bands (ev):

   -38.0347 -37.7579 -37.6297 -37.5997  -2.3427   4.0307   4.8351   7.2290
     8.4724  12.5232  13.0876  17.2267

          k = 0.1104 0.2208 0.2511 (  2190 PWs)   bands (ev):

   -38.0243 -37.7353 -37.6342 -37.6060  -2.1561   4.4223   4.9830   7.1652
     8.4576  12.3290  12.9736  15.5472

          k =-0.1104 0.4416 1.2557 (  2219 PWs)   bands (ev):

   -37.7226 -37.7110 -37.6929 -37.6817   2.1559   3.0964   6.0224   6.5196
     8.2262  10.3996  12.0990  12.9338

          k =-0.3312 0.4416 1.7580 (  2214 PWs)   bands (ev):

   -37.8401 -37.7753 -37.6618 -37.6049  -0.4753   4.2930   5.8500   6.9506
     8.1296  11.8361  12.3429  13.1073

          k =-0.4416 0.4416 2.0091 (  2200 PWs)   bands (ev):

   -37.9004 -37.8201 -37.6469 -37.5795  -1.4852   3.6463   5.3687   7.8021
     9.0640  11.6252  12.4540  13.8862

          k = 0.5520 0.4416-0.2511 (  2196 PWs)   bands (ev):

   -37.9493 -37.8444 -37.6345 -37.5720  -2.0981   3.3126   4.9277   8.0400
     8.8028  12.4323  13.3448  15.1716

          k = 0.4416 0.4416 0.0000 (  2199 PWs)   bands (ev):

   -37.9778 -37.8404 -37.6289 -37.5741  -2.3064   3.2660   4.7940   7.8373
     8.8035  12.3737  13.6775  16.7574

          k = 0.3312 0.4416 0.2511 (  2201 PWs)   bands (ev):

   -37.9753 -37.8128 -37.6347 -37.5782  -2.1123   3.5089   4.9873   7.4788
     9.5324  12.0453  12.5448  15.4118

          k = 0.1104 0.4416 0.7534 (  2213 PWs)   bands (ev):

   -37.8771 -37.7334 -37.6582 -37.6132  -0.5548   4.9766   5.5496   7.2490
     8.7437  10.4873  11.7131  12.7898

          k = 0.1104-0.0000 0.7534 (  2226 PWs)   bands (ev):

   -37.9077 -37.6926 -37.6441 -37.6390  -0.6528   5.9932   6.0729   6.9459
     8.5213   9.7774  11.7242  12.1067

          k = 0.0000 0.0000 1.0045 (  2214 PWs)   bands (ev):

   -37.8193 -37.6870 -37.6608 -37.6608   0.6346   5.0975   6.6289   6.6289
     8.2864  10.0783  11.0461  11.0461

          k =-0.1104 0.0000 1.2557 (  2215 PWs)   bands (ev):

   -37.7289 -37.6981 -37.6912 -37.6891   2.1121   3.2315   6.2765   6.3523
     7.7844  11.0624  11.5439  11.8662

          k =-0.2208 0.0000 1.5068 (  2217 PWs)   bands (ev):

   -37.7510 -37.7281 -37.6989 -37.6504   1.0510   4.4996   5.4943   5.6102
     7.3642  11.9585  12.9215  14.2470

          k = 0.7728 0.0000-0.7534 (  2219 PWs)   bands (ev):

   -37.8253 -37.7635 -37.6994 -37.5942  -0.3989   4.7455   4.8609   6.9494
     7.1682  12.7108  13.9862  14.8934

          k = 0.6624 0.0000-0.5023 (  2220 PWs)   bands (ev):

   -37.9048 -37.7879 -37.6932 -37.5635  -1.4576   4.2165   4.3735   7.0678
     9.5699  12.2878  13.2033  15.6908

          k = 0.5520 0.0000-0.2511 (  2204 PWs)   bands (ev):

   -37.9718 -37.7938 -37.6801 -37.5554  -2.0963   3.9501   4.1589   7.0465
    10.3805  12.1811  13.5723  15.4002

          k = 0.4416 0.0000 0.0000 (  2209 PWs)   bands (ev):

   -38.0114 -37.7804 -37.6641 -37.5667  -2.3196   3.9979   4.2229   7.1576
     9.4437  12.2381  14.0246  16.4390

          k = 0.3312 0.0000 0.2511 (  2194 PWs)   bands (ev):

   -38.0133 -37.7507 -37.6483 -37.5880  -2.1427   4.3872   4.5792   7.4095
     8.7992  11.9404  13.3963  15.2623

          k = 0.1104 0.2208 1.2557 (  2213 PWs)   bands (ev):

   -37.7271 -37.7026 -37.6926 -37.6850   2.1279   3.1796   6.1564   6.4356
     7.9413  10.9221  11.3731  12.5223

          k =-0.1104 0.2208 1.7580 (  2212 PWs)   bands (ev):

   -37.8063 -37.7737 -37.7100 -37.5914  -0.3626   4.5781   4.9247   6.7800
     6.9566  13.7306  13.9986  15.4473

          k =-0.2208 0.2208 2.0091 (  2221 PWs)   bands (ev):

   -37.8636 -37.8194 -37.7120 -37.5542  -1.4135   3.8647   4.4808   6.5243
     9.5716  13.4715  14.7842  15.1452

          k = 0.7728 0.2208-0.2511 (  2212 PWs)   bands (ev):

   -37.9180 -37.8435 -37.7018 -37.5388  -2.0556   3.4764   4.2012   6.5290
    11.1610  13.5357  14.3873  15.3006

          k = 0.6624 0.2208 0.0000 (  2206 PWs)   bands (ev):

   -37.9556 -37.8407 -37.6825 -37.5432  -2.2804   3.3913   4.1904   6.8479
    10.3492  13.9654  14.1776  16.2015

          k = 0.5520 0.2208 0.2511 (  2207 PWs)   bands (ev):

   -37.9645 -37.8141 -37.6622 -37.5609  -2.0970   3.5951   4.5284   7.4880
     9.4590  12.8346  13.6777  14.5707

          k = 0.3312 0.2208 0.7534 (  2211 PWs)   bands (ev):

   -37.8850 -37.7293 -37.6446 -37.6229  -0.5834   4.8638   6.1774   7.0645
     9.0046  10.1787  11.6296  12.1646

          k = 0.1104-0.6624-0.7534 (  2214 PWs)   bands (ev):

   -37.8439 -37.7579 -37.6809 -37.5992  -0.4544   4.6046   5.2869   6.9970
     7.7150  11.7622  13.1484  14.6523

          k =-0.1104-0.6624-0.2511 (  2209 PWs)   bands (ev):

   -37.9444 -37.8180 -37.6949 -37.5444  -2.0714   3.6270   4.2249   6.6317
    11.7550  12.0676  13.4833  15.6481

          k = 0.7728-0.6624-2.2602 (  2193 PWs)   bands (ev):

   -37.9383 -37.8438 -37.6627 -37.5548  -2.0821   3.3555   4.6720   7.0550
    10.3450  12.7260  13.0934  15.7976

          k = 0.5520-0.6624-1.7580 (  2210 PWs)   bands (ev):

   -37.8480 -37.7755 -37.6441 -37.6142  -0.5072   4.2180   6.3430   6.8831
     8.6311  11.0886  11.9824  12.5729

          k = 0.4416-0.6624-1.5068 (  2210 PWs)   bands (ev):

   -37.7848 -37.7278 -37.6585 -37.6565   0.8197   4.7290   5.0930   6.7493
     9.0647  11.1171  11.7361  12.5941

          k = 0.3312-0.6624-1.2557 (  2220 PWs)   bands (ev):

   -37.7189 -37.7109 -37.7003 -37.6781   2.1645   3.0849   5.9558   6.1480
     9.1963  10.8388  11.6943  13.2536

          k = 0.1104-0.4416-0.2511 (  2202 PWs)   bands (ev):

   -37.9924 -37.7791 -37.6577 -37.5718  -2.1202   3.9992   4.4694   7.5948
     9.1276  12.0771  13.8367  14.6430

          k = 0.7728-0.4416-1.7580 (  2209 PWs)   bands (ev):

   -37.8654 -37.7549 -37.6445 -37.6169  -0.5373   4.4571   6.1481   7.1108
     8.7247  11.1240  11.5863  12.1029

          k = 0.5520-0.4416-1.2557 (  2226 PWs)   bands (ev):

   -37.7145 -37.7126 -37.7047 -37.6772   2.1700   3.0776   5.9316   5.9750
    10.1361  10.6934  11.9519  12.3537

          k = 0.3312-0.0000 1.2557 (  2222 PWs)   bands (ev):

   -37.7259 -37.7069 -37.6915 -37.6843   2.1405   3.1392   6.0806   6.5704
     7.9453  10.5563  11.8549  12.6389

          k = 0.1104-0.0000 1.7580 (  2202 PWs)   bands (ev):

   -37.7861 -37.7747 -37.7312 -37.5884  -0.3247   4.6927   4.7107   6.5102
     6.8433  14.4747  14.9614  15.7799

          k = 0.0000 0.0000 2.0091 (  2222 PWs)   bands (ev):

   -37.8185 -37.8185 -37.7677 -37.5450  -1.3656   4.0650   4.0650   5.9221
     9.5707  16.3117  16.3117  16.3289

          k = 0.9936-0.0000-0.2511 (  2228 PWs)   bands (ev):

   -37.8617 -37.8456 -37.7749 -37.5222  -2.0103   3.6767   3.6954   5.6869
    12.5728  15.0729  15.8243  16.3518

          k = 0.8832 0.0000 0.0000 (  2210 PWs)   bands (ev):

   -37.9001 -37.8486 -37.7555 -37.5181  -2.2360   3.5554   3.6231   5.7947
    13.5849  14.4755  15.6702  15.7390

          k = 0.7728-0.0000 0.2511 (  2218 PWs)   bands (ev):

   -37.9174 -37.8273 -37.7249 -37.5334  -2.0449   3.7280   3.8519   6.2484
    12.0476  13.1478  14.5144  15.6992

          k = 0.5520-0.0000 0.7534 (  2213 PWs)   bands (ev):

   -37.8626 -37.7425 -37.6719 -37.6049  -0.5061   4.9711   5.1689   7.1250
     8.2500  10.9887  12.4194  13.7951

          k = 0.3312-0.8832-0.7534 (  2220 PWs)   bands (ev):

   -37.8259 -37.7747 -37.6851 -37.5970  -0.4208   4.4191   5.3391   6.8944
     7.4743  12.8272  13.0258  14.2179

          k = 0.1104-0.8832-0.2511 (  2219 PWs)   bands (ev):

   -37.8900 -37.8435 -37.7418 -37.5277  -2.0279   3.6003   3.8644   5.9893
    12.2410  13.9364  15.6799  15.7243

          k = 0.5520-0.8832-1.2557 (  2220 PWs)   bands (ev):

   -37.7197 -37.7125 -37.6967 -37.6795   2.1638   3.0809   5.9620   6.3344
     8.7335  10.5242  12.1334  13.0401

          k = 0.2208-0.1104-0.7534 (  2219 PWs)   bands (ev):

   -37.8999 -37.7072 -37.6451 -37.6304  -0.6270   5.4750   6.0052   7.1799
     8.7771  10.0121  11.3641  12.0958

          k = 0.2208-0.3312-1.2557 (  2220 PWs)   bands (ev):

   -37.7236 -37.7079 -37.6959 -37.6809   2.1494   3.1184   6.1300   6.2403
     8.4835  10.6224  11.6417  13.1709

          k = 0.2208-0.4416-1.5068 (  2219 PWs)   bands (ev):

   -37.7751 -37.7272 -37.6754 -37.6512   0.9008   4.6259   5.2944   6.1473
     8.4833  11.0241  11.9384  14.2932

          k = 0.2208 0.5520 0.7534 (  2217 PWs)   bands (ev):

   -37.8581 -37.7558 -37.6610 -37.6077  -0.5066   4.5358   5.6888   7.1183
     8.3591  11.2357  12.4636  12.5664

          k = 0.2208 0.4416 0.5023 (  2203 PWs)   bands (ev):

   -37.9397 -37.7727 -37.6464 -37.5886  -1.5240   4.0690   5.3329   7.5941
     9.9791  10.5510  11.8398  13.8939

          k = 0.2208 0.3312 0.2511 (  2194 PWs)   bands (ev):

   -38.0031 -37.7730 -37.6344 -37.5898  -2.1346   3.8987   4.9961   7.2943
     9.2635  11.8922  12.5830  15.4498

          k = 0.2208 0.1104-0.2511 (  2190 PWs)   bands (ev):

   -38.0243 -37.7353 -37.6343 -37.6058  -2.1561   4.4654   4.9025   7.3551
     8.2579  12.2025  13.4233  14.9788

          k = 0.4416-0.1104-1.2557 (  2219 PWs)   bands (ev):

   -37.7227 -37.7106 -37.6931 -37.6818   2.1558   3.0967   5.9860   6.5904
     8.1423  10.5652  11.9058  12.9670

          k = 0.4416-0.3312-1.7580 (  2214 PWs)   bands (ev):

   -37.8406 -37.7753 -37.6616 -37.6047  -0.4752   4.2782   5.9170   6.9038
     8.1016  11.6104  12.5975  13.3294

          k = 0.4416 0.5520 0.2511 (  2196 PWs)   bands (ev):

   -37.9495 -37.8444 -37.6342 -37.5720  -2.0981   3.3066   4.9603   7.7502
     9.2008  12.2568  13.1846  15.4785

          k = 0.4416 0.3312-0.2511 (  2201 PWs)   bands (ev):

   -37.9753 -37.8127 -37.6348 -37.5783  -2.1123   3.5270   4.9027   8.0299
     8.7111  12.5044  12.7796  14.9835

          k = 0.4416 0.1104-0.7534 (  2213 PWs)   bands (ev):

   -37.8773 -37.7334 -37.6583 -37.6130  -0.5547   4.8975   5.7123   7.1108
     8.8599  10.2228  11.8024  13.3327

          k = 0.2208 0.1104-1.2557 (  2213 PWs)   bands (ev):

   -37.7272 -37.7028 -37.6924 -37.6849   2.1279   3.1794   6.2268   6.3449
     7.9826  10.7378  11.5925  12.4789

          k = 0.2208-0.1104-1.7580 (  2212 PWs)   bands (ev):

   -37.8062 -37.7739 -37.7101 -37.5914  -0.3626   4.5598   4.9497   6.7851
     6.9418  13.4311  14.5479  15.6121

          k = 0.2208 0.7728 0.2511 (  2212 PWs)   bands (ev):

   -37.9180 -37.8438 -37.7014 -37.5389  -2.0556   3.4525   4.2552   6.4529
    11.6057  13.0419  13.8265  15.8128

          k = 0.2208 0.6624-0.0000 (  2206 PWs)   bands (ev):

   -37.9555 -37.8409 -37.6830 -37.5426  -2.2804   3.3417   4.3146   6.6215
    11.1294  12.8187  13.9302  16.2015

          k = 0.2208 0.5520-0.2511 (  2207 PWs)   bands (ev):

   -37.9648 -37.8143 -37.6617 -37.5608  -2.0970   3.5437   4.6825   7.0333
    10.6352  11.9137  12.7539  15.6361

          k = 0.2208 0.3312-0.7534 (  2211 PWs)   bands (ev):

   -37.8845 -37.7297 -37.6450 -37.6225  -0.5834   4.8935   6.0434   7.2353
     8.8118  10.6647  11.2903  11.9767

          k =-0.6624 0.1104 0.7534 (  2214 PWs)   bands (ev):

   -37.8438 -37.7578 -37.6809 -37.5995  -0.4545   4.6648   5.1852   7.0310
     7.7435  11.8987  13.1321  13.7735

          k =-0.6624-0.1104 0.2511 (  2209 PWs)   bands (ev):

   -37.9441 -37.8178 -37.6954 -37.5444  -2.0714   3.6984   4.1036   6.7776
    10.7605  13.0550  14.2953  14.9357

          k =-0.6624 0.7728 2.2602 (  2193 PWs)   bands (ev):

   -37.9382 -37.8437 -37.6630 -37.5548  -2.0821   3.3722   4.6083   7.2419
     9.8722  13.2082  13.4618  15.0898

          k =-0.6624 0.5520 1.7580 (  2210 PWs)   bands (ev):

   -37.8480 -37.7755 -37.6441 -37.6142  -0.5072   4.2234   6.2878   6.9335
     8.6425  11.1978  11.8393  12.5236

          k =-0.6624 0.3312 1.2557 (  2220 PWs)   bands (ev):

   -37.7191 -37.7110 -37.7001 -37.6780   2.1645   3.0847   6.0094   6.0871
     9.2662  10.6206  11.9089  13.2307

          k =-0.4416 0.1104 0.2511 (  2202 PWs)   bands (ev):

   -37.9926 -37.7792 -37.6575 -37.5718  -2.1203   3.9127   4.6352   7.1845
     9.8979  11.7588  12.8925  15.6401

          k =-0.4416 0.7728 1.7580 (  2209 PWs)   bands (ev):

   -37.8654 -37.7550 -37.6441 -37.6171  -0.5372   4.4405   6.2652   6.9858
     8.7548  10.7673  11.9519  12.2529

          k =-0.8832 0.3312 0.7534 (  2220 PWs)   bands (ev):

   -37.8261 -37.7747 -37.6852 -37.5967  -0.4207   4.3993   5.3844   6.8819
     7.4489  12.4642  13.4879  14.5443

          k =-0.8832 0.1104 0.2511 (  2219 PWs)   bands (ev):

   -37.8899 -37.8436 -37.7418 -37.5277  -2.0279   3.5771   3.8965   5.9718
    12.4177  13.7497  15.0913  15.8211

     the Fermi energy is     7.7415 ev

!    total energy              =     -65.88617588 Ry
     estimated scf accuracy    <          2.5E-11 Ry
     smearing contrib. (-TS)   =       0.00018296 Ry
     internal energy E=F+TS    =     -65.88635884 Ry

     The total energy is F=E-TS. E is the sum of the following terms:
     one-electron contribution =     -21.02852880 Ry
     hartree contribution      =      11.35536598 Ry
     xc contribution           =     -17.35075590 Ry
     ewald contribution        =     -38.86244012 Ry

     convergence has been achieved in   7 iterations

     Forces acting on atoms (cartesian axes, Ry/au):

     atom    1 type  1   force =    -0.00007106    0.00031020    0.00000000
     atom    2 type  1   force =     0.00007106   -0.00031020   -0.00000000
     atom    3 type  1   force =    -0.00031020   -0.00007106    0.00000000
     atom    4 type  1   force =     0.00031020    0.00007106    0.00000000
     atom    5 type  2   force =     0.00000000    0.00000000    0.00000000
     The non-local contrib.  to forces
     atom    1 type  1   force =     0.01024492   -0.02279935   -0.00000000
     atom    2 type  1   force =    -0.01024492    0.02279935    0.00000000
     atom    3 type  1   force =     0.02279935    0.01024492   -0.00000000
     atom    4 type  1   force =    -0.02279935   -0.01024492   -0.00000000
     atom    5 type  2   force =     0.00000000    0.00000000   -0.00000000
     The ionic contribution  to forces
     atom    1 type  1   force =    -0.19872512    0.10961561    0.00000000
     atom    2 type  1   force =     0.19872512   -0.10961561   -0.00000000
     atom    3 type  1   force =    -0.10961561   -0.19872512   -0.00000000
     atom    4 type  1   force =     0.10961561    0.19872512   -0.00000000
     atom    5 type  2   force =    -0.00000000   -0.00000000    0.00000000
     The local contribution  to forces
     atom    1 type  1   force =     0.18841274   -0.08650704    0.00000000
     atom    2 type  1   force =    -0.18841274    0.08650704    0.00000000
     atom    3 type  1   force =     0.08650704    0.18841274    0.00000000
     atom    4 type  1   force =    -0.08650704   -0.18841274   -0.00000000
     atom    5 type  2   force =    -0.00000000   -0.00000000    0.00000000
     The core correction contribution to forces
     atom    1 type  1   force =     0.00000000    0.00000000    0.00000000
     atom    2 type  1   force =     0.00000000    0.00000000    0.00000000
     atom    3 type  1   force =     0.00000000    0.00000000    0.00000000
     atom    4 type  1   force =     0.00000000    0.00000000    0.00000000
     atom    5 type  2   force =     0.00000000    0.00000000   -0.00000000
     The Hubbard contrib.    to forces
     atom    1 type  1   force =     0.00000000    0.00000000    0.00000000
     atom    2 type  1   force =     0.00000000    0.00000000    0.00000000
     atom    3 type  1   force =     0.00000000    0.00000000    0.00000000
     atom    4 type  1   force =     0.00000000    0.00000000    0.00000000
     atom    5 type  2   force =     0.00000000    0.00000000    0.00000000
     The SCF correction term to forces
     atom    1 type  1   force =    -0.00000359    0.00000098    0.00000000
     atom    2 type  1   force =     0.00000359   -0.00000098   -0.00000000
     atom    3 type  1   force =    -0.00000098   -0.00000359   -0.00000000
     atom    4 type  1   force =     0.00000098    0.00000359   -0.00000000
     atom    5 type  2   force =     0.00000000    0.00000000   -0.00000000

     Total force =     0.000636     Total SCF correction =     0.000007


     Computing stress (Cartesian axis) and pressure

          total   stress  (Ry/bohr**3)                   (kbar)     P=      506.48
   0.00329686   0.00000000  -0.00000000          484.99        0.00       -0.00
   0.00000000   0.00329686   0.00000000            0.00      484.99        0.00
   0.00000000   0.00000000   0.00373521            0.00        0.00      549.47


     Writing all to output data dir ./output/LiSi.save/

     init_run     :      1.25s CPU      1.57s WALL (       2 calls)
     electrons    :    136.01s CPU    144.22s WALL (      15 calls)
     update_pot   :      2.87s CPU      2.94s WALL (      13 calls)
     forces       :      2.54s CPU      2.65s WALL (      15 calls)
     stress       :     11.42s CPU     11.78s WALL (      15 calls)

     Called by init_run:
     wfcinit      :      0.58s CPU      0.61s WALL (       2 calls)
     potinit      :      0.21s CPU      0.40s WALL (       2 calls)
     hinit0       :      0.45s CPU      0.52s WALL (       2 calls)

     Called by electrons:
     c_bands      :    117.74s CPU    124.52s WALL (     111 calls)
     sum_band     :     17.18s CPU     17.86s WALL (     111 calls)
     v_of_rho     :      1.09s CPU      1.82s WALL (     124 calls)
     mix_rho      :      0.10s CPU      0.15s WALL (     111 calls)

     Called by c_bands:
     init_us_2    :      1.96s CPU      2.19s WALL (   21336 calls)
     init_us_2:cp :      1.93s CPU      2.16s WALL (   21336 calls)
     cegterg      :    113.66s CPU    117.30s WALL (    9324 calls)

     Called by *egterg:
     cdiaghg      :      6.60s CPU      6.90s WALL (   37246 calls)
     h_psi        :    100.76s CPU    103.87s WALL (   38674 calls)
     g_psi        :      0.27s CPU      0.27s WALL (   29182 calls)

     Called by h_psi:
     h_psi:calbec :      3.66s CPU      3.79s WALL (   38674 calls)
     vloc_psi     :     94.50s CPU     97.38s WALL (   38674 calls)
     add_vuspsi   :      2.32s CPU      2.40s WALL (   38674 calls)

     General routines
     calbec       :      4.55s CPU      4.72s WALL (   44974 calls)
     fft          :      1.14s CPU      2.06s WALL (    1615 calls)
     ffts         :      0.05s CPU      0.11s WALL (     111 calls)
     fftw         :    100.00s CPU    102.98s WALL (  777236 calls)

     Parallel routines

     PWSCF        :   2m34.53s CPU   2m44.12s WALL


   This run was terminated on:   0:19:56  22Jan2025            

=------------------------------------------------------------------------------=
   JOB DONE.
=------------------------------------------------------------------------------=
