
     Program PWSCF v.7.3.1 starts on 18Feb2025 at 16:30:15 

     This program is part of the open-source Quantum ESPRESSO suite
     for quantum simulation of materials; please cite
         "P. Giannozzi et al., J. Phys.:Condens. Matter 21 395502 (2009);
         "P. Giannozzi et al., J. Phys.:Condens. Matter 29 465901 (2017);
         "P. Giannozzi et al., J. Chem. Phys. 152 154105 (2020);
          URL http://www.quantum-espresso.org", 
     in publications or presentations arising from this work. More details at
     http://www.quantum-espresso.org/quote

     Parallel version (MPI & OpenMP), running on      16 processor cores
     Number of MPI processes:                16
     Threads/MPI process:                     1

     MPI processes distributed on     1 nodes
     492526 MiB available memory on the printing compute node when the environment starts

     Waiting for input...
     Reading input from standard input

     Current dimensions of program PWSCF are:
     Max number of different atomic species (ntypx) = 10
     Max number of k-points (npk) =  40000
     Max angular momentum in pseudopotentials (lmaxx) =  4

     R & G space division:  proc/nbgrp/npool/nimage =      16
     Subspace diagonalization in iterative solution of the eigenvalue problem:
     a serial algorithm will be used


     Parallelization info
     --------------------
     sticks:   dense  smooth     PW     G-vecs:    dense   smooth      PW
     Min         197     197     59                 4683     4683     769
     Max         198     198     60                 4685     4685     771
     Sum        3157    3157    951                74947    74947   12317

     Using Slab Decomposition



     bravais-lattice index     =            5
     lattice parameter (alat)  =      17.4911  a.u.
     unit-cell volume          =     774.9700 (a.u.)^3
     number of atoms/cell      =           10
     number of atomic types    =            2
     number of electrons       =        38.00
     number of Kohn-Sham states=           23
     kinetic-energy cutoff     =      80.0000  Ry
     charge density cutoff     =     320.0000  Ry
     scf convergence threshold =      1.0E-08
     mixing beta               =       0.8000
     number of iterations used =            8  plain     mixing
     energy convergence thresh.=      5.0E-04
     force convergence thresh. =      1.0E-03
     press convergence thresh. =      2.0E+00
     Exchange-correlation= PBE
                           (   1   4   3   4   0   0   0)
     nstep                     =           50


     celldm(1)=  17.491066  celldm(2)=   0.000000  celldm(3)=   0.000000
     celldm(4)=   0.913878  celldm(5)=   0.000000  celldm(6)=   0.000000

     crystal axes: (cart. coord. in units of alat)
               a(1) = (   0.207512  -0.119807   0.970868 )  
               a(2) = (   0.000000   0.239614   0.970868 )  
               a(3) = (  -0.207512  -0.119807   0.970868 )  

     reciprocal axes: (cart. coord. in units 2 pi/alat)
               b(1) = (  2.409503 -1.391127  0.343335 )  
               b(2) = ( -0.000000  2.782254  0.343335 )  
               b(3) = ( -2.409503 -1.391127  0.343335 )  


     PseudoPot. # 1 for Li read from file:
     ../pseudo/Li_ONCV_PBE_sr.upf
     MD5 check sum: 50ff420e78310ffa21704f3361e624a4
     Pseudo is Norm-conserving, Zval =  3.0
     Generated using ONCVPSP code by D. R. Hamann
     Using radial grid of 1944 points,  4 beta functions with: 
                l(1) =   0
                l(2) =   0
                l(3) =   1
                l(4) =   1

     PseudoPot. # 2 for Si read from file:
     ../pseudo/Si_ONCV_PBE_sr.upf
     MD5 check sum: e543d271109d17c80368dfa7c482276d
     Pseudo is Norm-conserving + core correction, Zval =  4.0
     Generated using ONCVPSP code by D. R. Hamann
     Using radial grid of 1510 points,  6 beta functions with: 
                l(1) =   0
                l(2) =   0
                l(3) =   1
                l(4) =   1
                l(5) =   2
                l(6) =   2

     atomic species   valence    mass     pseudopotential
     Li                3.00     6.94100     Li( 1.00)
     Si                4.00    28.08550     Si( 1.00)

     12 Sym. Ops., with inversion, found



   Cartesian axes

     site n.     atom                  positions (alat units)
         1        Li     tau(   1) = (   0.0000000  -0.0000000   0.5298441  )
         2        Li     tau(   2) = (  -0.0000000  -0.0000000   2.3827607  )
         3        Si     tau(   3) = (   0.0000000  -0.0000000   0.0694263  )
         4        Si     tau(   4) = (   0.0000000  -0.0000000   2.8431785  )
         5        Si     tau(   5) = (   0.0000000  -0.0000000   0.6712005  )
         6        Si     tau(   6) = (  -0.0000000  -0.0000000   2.2414043  )
         7        Si     tau(   7) = (   0.0000000  -0.0000000   1.0858419  )
         8        Si     tau(   8) = (  -0.0000000  -0.0000000   1.8267629  )
         9        Si     tau(   9) = (   0.0000000  -0.0000000   1.2247508  )
        10        Si     tau(  10) = (  -0.0000000  -0.0000000   1.6878540  )

     number of k points=    44  Marzari-Vanderbilt smearing, width (Ry)=  0.0200
                       cart. coord. in units 2pi/alat
        k(    1) = (   0.0000000   0.0000000   0.0000000), wk =   0.0058309
        k(    2) = (  -0.3442147  -0.1987324   0.0490479), wk =   0.0349854
        k(    3) = (  -0.6884293  -0.3974649   0.0980958), wk =   0.0349854
        k(    4) = (  -1.0326440  -0.5961973   0.1471437), wk =   0.0349854
        k(    5) = (  -0.3442147   0.1987324   0.0980958), wk =   0.0349854
        k(    6) = (  -0.6884293  -0.0000000   0.1471437), wk =   0.0699708
        k(    7) = (  -1.0326440  -0.1987324   0.1961916), wk =   0.0699708
        k(    8) = (   1.0326440   0.9936622  -0.0980958), wk =   0.0699708
        k(    9) = (   0.6884293   0.7949297  -0.0490479), wk =   0.0699708
        k(   10) = (   0.3442147   0.5961973   0.0000000), wk =   0.0349854
        k(   11) = (  -0.6884293   0.3974649   0.1961916), wk =   0.0349854
        k(   12) = (  -1.0326440   0.1987324   0.2452395), wk =   0.0699708
        k(   13) = (   1.0326440   1.3911270  -0.0490479), wk =   0.0699708
        k(   14) = (   0.6884293   1.1923946   0.0000000), wk =   0.0349854
        k(   15) = (  -1.0326440   0.5961973   0.2942874), wk =   0.0349854
        k(   16) = (   1.0326440   1.7885919   0.0000000), wk =   0.0349854
        k(   17) = (  -0.0000000   0.0000000   0.1471437), wk =   0.0116618
        k(   18) = (  -0.3442147  -0.1987324   0.1961916), wk =   0.0349854
        k(   19) = (  -0.6884293  -0.3974649   0.2452395), wk =   0.0349854
        k(   20) = (   1.3768587   0.7949297  -0.0490479), wk =   0.0349854
        k(   21) = (   1.0326440   0.5961973   0.0000000), wk =   0.0349854
        k(   22) = (   0.6884293   0.3974649   0.0490479), wk =   0.0349854
        k(   23) = (  -0.3442147   0.1987324   0.2452395), wk =   0.0349854
        k(   24) = (  -0.6884293   0.0000000   0.2942874), wk =   0.0699708
        k(   25) = (   1.3768587   1.1923946   0.0000000), wk =   0.0699708
        k(   26) = (   1.0326440   0.9936622   0.0490479), wk =   0.0699708
        k(   27) = (   0.6884293   0.7949297   0.0980958), wk =   0.0699708
        k(   28) = (  -0.6884293   0.3974649   0.3433353), wk =   0.0349854
        k(   29) = (   1.3768587   1.5898595   0.0490479), wk =   0.0699708
        k(   30) = (   1.0326440   1.3911270   0.0980958), wk =   0.0699708
        k(   31) = (   0.6884293   1.1923946   0.1471437), wk =   0.0699708
        k(   32) = (   1.3768587  -0.7949297  -0.2452395), wk =   0.0349854
        k(   33) = (   1.0326440  -0.9936622  -0.1961916), wk =   0.0699708
        k(   34) = (   1.0326440  -0.5961973  -0.1471437), wk =   0.0349854
        k(   35) = (  -0.0000000   0.0000000   0.2942874), wk =   0.0116618
        k(   36) = (  -0.3442147  -0.1987324   0.3433353), wk =   0.0349854
        k(   37) = (   1.7210734   0.9936622   0.0490479), wk =   0.0349854
        k(   38) = (   1.3768587   0.7949297   0.0980958), wk =   0.0349854
        k(   39) = (  -0.3442147   0.1987324   0.3923832), wk =   0.0349854
        k(   40) = (   1.7210734   1.3911270   0.0980958), wk =   0.0699708
        k(   41) = (   1.3768587   1.1923946   0.1471437), wk =   0.0699708
        k(   42) = (   1.7210734  -0.9936622  -0.1961916), wk =   0.0349854
        k(   43) = (  -0.0000000   0.0000000   0.4414311), wk =   0.0116618
        k(   44) = (   2.0652880   1.1923946   0.1471437), wk =   0.0349854

     Dense  grid:    74947 G-vectors     FFT dimensions: ( 100, 100, 100)

     Estimated max dynamical RAM per process >      30.03 MB

     Estimated total dynamical RAM >     480.45 MB

     Initial potential from superposition of free atoms

     starting charge      37.9860, renormalised to      38.0000
     Starting wfcs are   36 randomized atomic wfcs

     total cpu time spent up to now is        2.9 secs

     per-process dynamical memory:    47.5 Mb

     Self-consistent Calculation

     iteration #  1     ecut=    80.00 Ry     beta= 0.80
     Davidson diagonalization with overlap
     ethr =  1.00E-02,  avg # of iterations =  5.3

     total cpu time spent up to now is        8.9 secs

     total energy              =     -89.26161364 Ry
     estimated scf accuracy    <       0.98858188 Ry

     iteration #  2     ecut=    80.00 Ry     beta= 0.80
     Davidson diagonalization with overlap
     ethr =  2.60E-03,  avg # of iterations =  3.5

     total cpu time spent up to now is       13.7 secs

     total energy              =     -89.31877707 Ry
     estimated scf accuracy    <       0.54505800 Ry

     iteration #  3     ecut=    80.00 Ry     beta= 0.80
     Davidson diagonalization with overlap
     ethr =  1.43E-03,  avg # of iterations =  5.3

     total cpu time spent up to now is       19.0 secs

     total energy              =     -89.14973079 Ry
     estimated scf accuracy    <       4.25783765 Ry

     iteration #  4     ecut=    80.00 Ry     beta= 0.80
     Davidson diagonalization with overlap
     ethr =  1.43E-03,  avg # of iterations =  3.9

     total cpu time spent up to now is       23.8 secs

     total energy              =     -89.52888431 Ry
     estimated scf accuracy    <       0.03441267 Ry

     iteration #  5     ecut=    80.00 Ry     beta= 0.80
     Davidson diagonalization with overlap
     ethr =  9.06E-05,  avg # of iterations =  6.7

     total cpu time spent up to now is       29.4 secs

     total energy              =     -89.54340473 Ry
     estimated scf accuracy    <       0.00843502 Ry

     iteration #  6     ecut=    80.00 Ry     beta= 0.80
     Davidson diagonalization with overlap
     c_bands:  1 eigenvalues not converged
     c_bands:  1 eigenvalues not converged
     ethr =  2.22E-05,  avg # of iterations =  5.1

     total cpu time spent up to now is       33.6 secs

     total energy              =     -89.54388774 Ry
     estimated scf accuracy    <       0.00194960 Ry

     iteration #  7     ecut=    80.00 Ry     beta= 0.80
     Davidson diagonalization with overlap
     c_bands:  1 eigenvalues not converged
     ethr =  5.13E-06,  avg # of iterations =  4.5

     total cpu time spent up to now is       38.0 secs

     total energy              =     -89.54403232 Ry
     estimated scf accuracy    <       0.00019138 Ry

     iteration #  8     ecut=    80.00 Ry     beta= 0.80
     Davidson diagonalization with overlap
     ethr =  5.04E-07,  avg # of iterations =  4.6

     total cpu time spent up to now is       43.0 secs

     total energy              =     -89.54409042 Ry
     estimated scf accuracy    <       0.00005104 Ry

     iteration #  9     ecut=    80.00 Ry     beta= 0.80
     Davidson diagonalization with overlap
     ethr =  1.34E-07,  avg # of iterations =  1.6

     total cpu time spent up to now is       46.5 secs

     total energy              =     -89.54408972 Ry
     estimated scf accuracy    <       0.00001582 Ry

     iteration # 10     ecut=    80.00 Ry     beta= 0.80
     Davidson diagonalization with overlap
     ethr =  4.16E-08,  avg # of iterations =  2.8

     total cpu time spent up to now is       50.5 secs

     total energy              =     -89.54409162 Ry
     estimated scf accuracy    <       0.00000013 Ry

     iteration # 11     ecut=    80.00 Ry     beta= 0.80
     Davidson diagonalization with overlap
     ethr =  3.41E-10,  avg # of iterations =  6.4

     total cpu time spent up to now is       56.8 secs

     total energy              =     -89.54409185 Ry
     estimated scf accuracy    <       0.00000033 Ry

     iteration # 12     ecut=    80.00 Ry     beta= 0.80
     Davidson diagonalization with overlap
     ethr =  3.41E-10,  avg # of iterations =  2.3

     total cpu time spent up to now is       60.7 secs

     End of self-consistent calculation

          k = 0.0000 0.0000 0.0000 (  9379 PWs)   bands (ev):

   -39.4594 -39.3583  -5.1690  -3.3974  -0.7367   3.2394   5.0251   5.1072
     5.1072   5.8200   5.8200   7.2097   7.2097   9.3359   9.3359   9.3783
     9.5210  10.6644  11.2150  11.5514  11.5514  11.6028  11.6028

          k =-0.3442-0.1987 0.0490 (  9367 PWs)   bands (ev):

   -39.4548 -39.3626  -4.9271  -3.1726  -0.5594   3.2049   3.6990   4.4970
     4.6220   5.6752   5.7410   6.3197   7.3424   8.6045   9.6761   9.8688
    10.2515  10.4620  11.0480  11.0679  11.8193  12.1569  12.2784

          k =-0.6884-0.3975 0.0981 (  9362 PWs)   bands (ev):

   -39.4426 -39.3744  -4.2134  -2.5366  -0.2700   1.6215   2.6891   3.7733
     3.9702   4.7728   5.2143   6.2683   7.2125   7.4445   8.7592   9.2850
    10.0093  10.4390  11.6293  11.8088  12.2332  13.0702  13.3708

          k =-1.0326-0.5962 0.1471 (  9378 PWs)   bands (ev):

   -39.4282 -39.3885  -3.0938  -1.9473  -0.9157   0.9632   1.7798   3.0216
     3.3762   4.8566   4.9874   6.1007   6.7277   7.3376   8.0569   8.7322
     9.7038   9.9995  10.5462  12.7605  12.9489  13.7734  14.3645

          k =-0.3442 0.1987 0.0981 (  9382 PWs)   bands (ev):

   -39.4548 -39.3626  -4.9268  -3.1739  -0.5549   3.2245   3.6329   4.4921
     4.6387   5.7332   5.7584   6.3213   7.3330   8.5952   9.5877   9.7239
    10.2441  10.5431  11.0512  11.3217  11.7088  12.1734  12.3573

          k =-0.6884-0.0000 0.1471 (  9351 PWs)   bands (ev):

   -39.4464 -39.3707  -4.4483  -2.7416  -0.2794   2.4521   2.5730   3.9081
     3.9606   4.6658   5.8884   6.2931   6.6793   8.6887   8.8360   9.5219
    10.2751  10.7343  10.8666  11.6417  11.7946  12.9916  13.3104

          k =-1.0326-0.1987 0.1962 (  9361 PWs)   bands (ev):

   -39.4322 -39.3846  -3.5212  -2.0004  -0.4719   1.3201   1.8749   2.4754
     3.7004   4.4722   4.9156   6.1466   6.9443   7.6451   8.7612   9.2919
     9.4731  11.0815  11.3806  11.6024  12.2777  12.9076  13.5388

          k = 1.0326 0.9937-0.0981 (  9361 PWs)   bands (ev):

   -39.4218 -39.3948  -2.4257  -2.0891  -0.9112   0.7719   1.5940   2.5768
     3.3166   3.5247   5.7383   6.1029   6.3002   7.5355   8.4860   8.9886
     9.3846  10.5769  11.3991  11.7299  13.3582  13.6890  14.3725

          k = 0.6884 0.7949-0.0490 (  9378 PWs)   bands (ev):

   -39.4322 -39.3846  -3.5230  -1.9906  -0.4831   1.3160   1.8666   2.4528
     3.7191   4.5176   5.0715   6.0517   6.7541   7.6162   8.8653   9.2574
     9.4687  10.9992  11.1667  11.9130  12.3893  13.0622  13.8682

          k = 0.3442 0.5962 0.0000 (  9349 PWs)   bands (ev):

   -39.4464 -39.3707  -4.4491  -2.7371  -0.2924   2.4472   2.5760   3.9219
     4.0164   4.6774   5.8088   6.2716   6.6468   8.7860   8.8501   9.5924
    10.1417  10.6361  10.8285  11.6802  11.7048  13.2819  13.5355

          k =-0.6884 0.3975 0.1962 (  9389 PWs)   bands (ev):

   -39.4426 -39.3744  -4.2125  -2.5419  -0.2592   1.6454   2.6726   3.7615
     3.8011   4.9308   5.2740   6.4637   7.0908   7.2847   8.4912   9.3307
    10.3959  10.4319  11.3879  12.1459  12.7126  13.0153  13.3997

          k =-1.0326 0.1987 0.2452 (  9374 PWs)   bands (ev):

   -39.4322 -39.3846  -3.5206  -2.0017  -0.4752   1.3333   1.8772   2.4545
     3.7443   4.5777   4.7950   5.9674   7.0575   7.5613   9.1078   9.3282
     9.5814  10.5530  11.0686  11.7087  12.6902  13.3888  13.7316

          k = 1.0326 1.3911-0.0490 (  9342 PWs)   bands (ev):

   -39.4176 -39.3989  -2.4425  -1.4900  -1.1284   0.7561   1.4021   2.3613
     2.7175   3.9644   4.6145   5.7434   7.1060   7.9479   8.5946   9.3969
    10.0615  10.8219  11.4713  12.0289  12.7970  13.2793  13.8945

          k = 0.6884 1.1924 0.0000 (  9338 PWs)   bands (ev):

   -39.4176 -39.3989  -2.4477  -1.4702  -1.1384   0.7622   1.3941   2.3547
     2.6318   4.0685   4.6168   6.1753   6.6129   7.8600   8.3296   9.8387
     9.8879  10.9019  11.6041  12.1979  12.8760  13.2824  13.8841

          k =-1.0326 0.5962 0.2943 (  9345 PWs)   bands (ev):

   -39.4282 -39.3885  -3.0926  -1.9435  -0.9353   0.9572   1.8329   3.1238
     3.3602   4.5984   4.9413   6.0412   7.0604   7.3133   8.0612   8.4657
     9.9470  10.5508  10.6817  11.4281  13.5114  13.6240  14.4186

          k = 1.0326 1.7886 0.0000 (  9362 PWs)   bands (ev):

   -39.4218 -39.3948  -2.4320  -2.0701  -0.9429   0.7705   1.5978   2.7269
     3.2769   3.5690   5.1849   5.9500   6.4822   8.2145   8.8305   8.8874
     9.5717  10.3208  10.5206  11.4856  14.0641  14.1938  14.2592

          k =-0.0000 0.0000 0.1471 (  9379 PWs)   bands (ev):

   -39.4594 -39.3583  -5.1684  -3.4011  -0.7234   3.1663   5.1082   5.1082
     5.1238   5.8172   5.8172   7.2091   7.2091   9.3746   9.3746   9.3753
     9.5376  10.5530  11.1530  11.4172  11.4172  11.5783  11.5783

          k =-0.3442-0.1987 0.1962 (  9376 PWs)   bands (ev):

   -39.4548 -39.3626  -4.9260  -3.1787  -0.5381   3.1243   3.7015   4.5011
     4.6047   5.7218   5.8173   6.3297   7.3784   8.5645   9.6083   9.8737
    10.2555  10.4484  10.9213  11.1832  11.8289  12.2256  12.3106

          k =-0.6884-0.3975 0.2452 (  9352 PWs)   bands (ev):

   -39.4426 -39.3744  -4.2117  -2.5463  -0.2472   1.6290   2.6911   3.7750
     3.9066   4.6749   5.2034   6.4510   7.2105   7.5021   8.7788   9.4780
     9.7692  10.5481  11.3802  11.9056  12.0398  13.0692  13.4087

          k = 1.3769 0.7949-0.0490 (  9368 PWs)   bands (ev):

   -39.4282 -39.3885  -3.0908  -1.9575  -0.9117   0.9684   1.8091   3.0227
     3.3746   4.7910   4.8640   6.1553   6.8654   7.3169   8.1948   8.7405
     9.7217  10.0667  10.2936  12.6261  12.8717  13.6643  14.6410

          k = 1.0326 0.5962 0.0000 (  9364 PWs)   bands (ev):

   -39.4282 -39.3885  -3.0957  -1.9377  -0.9261   0.9570   1.7754   3.0535
     3.3717   4.8798   5.0048   6.0216   6.8079   7.2473   8.0275   8.5925
     9.9003   9.9501  10.8366  12.2821  13.2975  13.7336  14.3231

          k = 0.6884 0.3975 0.0490 (  9371 PWs)   bands (ev):

   -39.4426 -39.3744  -4.2138  -2.5346  -0.2753   1.6286   2.6808   3.7672
     3.9153   4.9061   5.2455   6.2476   7.1708   7.3488   8.6376   9.2301
    10.3382  10.3980  11.3028  12.2288  12.4716  13.0705  13.3593

          k =-0.3442 0.1987 0.2452 (  9383 PWs)   bands (ev):

   -39.4548 -39.3626  -4.9255  -3.1817  -0.5277   3.1508   3.5833   4.4901
     4.6332   5.7604   5.9527   6.3335   7.3584   8.5198   9.4405   9.5778
    10.2454  10.6643  11.0882  11.4661  11.6308  12.3047  12.3311

          k =-0.6884 0.0000 0.2943 (  9367 PWs)   bands (ev):

   -39.4464 -39.3707  -4.4465  -2.7515  -0.2500   2.4656   2.5640   3.7985
     3.9240   4.6530   6.0362   6.3156   6.7954   8.5633   8.7544   9.3441
    10.5727  10.9522  10.9973  11.6061  11.9561  12.5470  12.8260

          k = 1.3769 1.1924 0.0000 (  9373 PWs)   bands (ev):

   -39.4322 -39.3846  -3.5186  -2.0129  -0.4597   1.3310   1.8863   2.4972
     3.6912   4.4466   4.7353   6.1356   7.2793   7.5992   8.8116   9.3345
     9.4849  10.9961  11.3125  11.5040  12.3498  12.7632  13.2639

          k = 1.0326 0.9937 0.0490 (  9366 PWs)   bands (ev):

   -39.4218 -39.3948  -2.4280  -2.0823  -0.9225   0.7715   1.5954   2.6244
     3.3085   3.5400   5.4776   6.0421   6.4462   7.7139   8.5970   9.1440
     9.2491  10.4967  11.2164  11.5754  13.3443  13.8983  14.5027

          k = 0.6884 0.7949 0.0981 (  9376 PWs)   bands (ev):

   -39.4322 -39.3846  -3.5228  -1.9912  -0.4845   1.3221   1.8673   2.4435
     3.7389   4.5591   5.0146   5.9766   6.8151   7.5592   9.0774   9.2745
     9.4635  10.7278  11.0858  11.9710  12.5604  13.2727  13.9205

          k =-0.6884 0.3975 0.3433 (  9367 PWs)   bands (ev):

   -39.4426 -39.3744  -4.2105  -2.5528  -0.2338   1.6605   2.6706   3.7021
     3.7602   4.8669   5.2773   6.7360   7.0487   7.2957   8.3961   9.5420
    10.1409  10.5211  11.6099  11.8732  12.6065  12.9753  13.3114

          k = 1.3769 1.5899 0.0490 (  9373 PWs)   bands (ev):

   -39.4322 -39.3846  -3.5182  -2.0140  -0.4623   1.3412   1.8889   2.4804
     3.7253   4.5479   4.6326   5.9947   7.2902   7.6426   8.9982   9.2932
     9.6847  10.7242  10.9815  11.4678  12.7540  13.0328  13.3890

          k = 1.0326 1.3911 0.0981 (  9344 PWs)   bands (ev):

   -39.4176 -39.3989  -2.4396  -1.5006  -1.1233   0.7528   1.4066   2.3646
     2.7711   3.9071   4.6025   5.6073   7.3469   7.8799   8.8063   9.3893
     9.8744  10.7492  11.4653  11.9527  12.7557  13.2549  14.0569

          k = 0.6884 1.1924 0.1471 (  9347 PWs)   bands (ev):

   -39.4176 -39.3989  -2.4461  -1.4764  -1.1352   0.7603   1.3966   2.3568
     2.6570   4.0357   4.6193   5.9849   6.8153   7.8930   8.4125   9.5735
    10.0820  10.8736  11.5561  12.1353  12.8517  13.2891  13.8525

          k = 1.3769-0.7949-0.2452 (  9345 PWs)   bands (ev):

   -39.4282 -39.3885  -3.0898  -1.9546  -0.9273   0.9632   1.8530   3.1077
     3.3617   4.5114   4.9317   6.0799   7.0931   7.3105   8.2361   8.5259
     9.9532  10.3316  10.3887  11.8352  12.9618  13.5546  14.9766

          k = 1.0326-0.9937-0.1962 (  9366 PWs)   bands (ev):

   -39.4218 -39.3948  -2.4308  -2.0739  -0.9366   0.7708   1.5971   2.6924
     3.2898   3.5599   5.2634   5.9771   6.4853   8.0224   8.7512   9.0255
     9.4106  10.3778  10.7729  11.5214  13.6393  14.0379  14.6739

          k = 1.0326-0.5962-0.1471 (  9367 PWs)   bands (ev):

   -39.4282 -39.3885  -3.0952  -1.9360  -0.9349   0.9545   1.7984   3.0975
     3.3646   4.8117   4.9175   6.0176   7.0591   7.1257   8.0542   8.4514
     9.8929  10.3681  10.8343  11.7403  13.4653  13.8577  14.3575

          k =-0.0000 0.0000 0.2943 (  9414 PWs)   bands (ev):

   -39.4594 -39.3583  -5.1671  -3.4091  -0.6930   3.0206   5.1105   5.1105
     5.3306   5.8109   5.8109   7.2080   7.2080   9.3695   9.4725   9.4725
     9.5867  10.2798  11.0760  11.1476  11.1476  11.5244  11.5244

          k =-0.3442-0.1987 0.3433 (  9387 PWs)   bands (ev):

   -39.4548 -39.3626  -4.9245  -3.1876  -0.5064   3.0348   3.6595   4.5012
     4.6025   5.7152   6.0522   6.3389   7.4158   8.5086   9.4020   9.7115
    10.3810  10.4641  11.0461  11.1924  11.6702  12.3007  12.3495

          k = 1.7211 0.9937 0.0490 (  9360 PWs)   bands (ev):

   -39.4426 -39.3744  -4.2099  -2.5563  -0.2240   1.6468   2.6853   3.7707
     3.7710   4.6939   5.2201   6.6467   7.1949   7.4711   8.6421   9.7178
     9.7299  10.6263  11.0933  11.8125  12.3635  13.0583  13.4695

          k = 1.3769 0.7949 0.0981 (  9363 PWs)   bands (ev):

   -39.4282 -39.3885  -3.0890  -1.9608  -0.9169   0.9683   1.8422   3.0599
     3.3681   4.5928   4.8969   6.1285   7.1081   7.2040   8.3653   8.5902
     9.9239   9.9853  10.3305  12.4415  12.5874  13.5954  14.9721

          k =-0.3442 0.1987 0.3924 (  9381 PWs)   bands (ev):

   -39.4548 -39.3626  -4.9241  -3.1899  -0.4978   3.0437   3.5866   4.4924
     4.6189   5.7457   6.1720   6.3401   7.4009   8.4432   9.3049   9.5085
    10.3112  10.8178  10.9628  11.4240  11.5817  12.2028  12.4124

          k = 1.7211 1.3911 0.0981 (  9380 PWs)   bands (ev):

   -39.4464 -39.3707  -4.4451  -2.7595  -0.2261   2.4811   2.5526   3.6974
     3.9168   4.6492   6.1685   6.2709   6.9351   8.5144   8.6719   9.1778
    10.8157  11.1058  11.2491  11.5394  12.0660  12.2158  12.6265

          k = 1.3769 1.1924 0.1471 (  9357 PWs)   bands (ev):

   -39.4322 -39.3846  -3.5173  -2.0189  -0.4555   1.3403   1.8928   2.5006
     3.6993   4.4668   4.6376   6.0617   7.4305   7.6142   8.9552   9.1723
     9.6896  10.8531  11.0768  11.4824  12.5815  12.7479  13.2274

          k = 1.7211-0.9937-0.1962 (  9366 PWs)   bands (ev):

   -39.4426 -39.3744  -4.2093  -2.5591  -0.2181   1.6614   2.6762   3.6844
     3.7644   4.7749   5.2528   6.7672   7.1444   7.3768   8.4520   9.7445
     9.8793  10.6246  11.1344  12.1086  12.3228  13.0404  13.5676

          k =-0.0000 0.0000 0.4414 (  9381 PWs)   bands (ev):

   -39.4594 -39.3583  -5.1660  -3.4156  -0.6682   2.9167   5.1125   5.1125
     5.4877   5.8059   5.8059   7.2071   7.2071   9.3657   9.5669   9.5669
     9.6621  10.0271  10.9412  10.9412  11.0393  11.4843  11.4843

          k = 2.0653 1.1924 0.1471 (  9391 PWs)   bands (ev):

   -39.4548 -39.3626  -4.9236  -3.1926  -0.4882   2.9963   3.6162   4.4973
     4.6080   5.7257   6.2244   6.3319   7.4267   8.4496   9.2705   9.5561
    10.3773  10.6895  11.0219  11.2594  11.5808  12.2616  12.3640

     the Fermi energy is    11.3963 ev

!    total energy              =     -89.54409187 Ry
     estimated scf accuracy    <          8.5E-09 Ry
     smearing contrib. (-TS)   =       0.00057070 Ry
     internal energy E=F+TS    =     -89.54466257 Ry

     The total energy is F=E-TS. E is the sum of the following terms:
     one-electron contribution =      12.53322747 Ry
     hartree contribution      =      13.38473739 Ry
     xc contribution           =     -34.62089911 Ry
     ewald contribution        =     -80.84172832 Ry

     convergence has been achieved in  12 iterations

     Forces acting on atoms (cartesian axes, Ry/au):

     atom    1 type  1   force =     0.00000000   -0.00000000   -0.87667055
     atom    2 type  1   force =    -0.00000000    0.00000000    0.87667055
     atom    3 type  2   force =     0.00000000    0.00000000    3.15379879
     atom    4 type  2   force =    -0.00000000    0.00000000   -3.15379879
     atom    5 type  2   force =     0.00000000    0.00000000    0.82615163
     atom    6 type  2   force =    -0.00000000   -0.00000000   -0.82615163
     atom    7 type  2   force =     0.00000000    0.00000000   -3.15215945
     atom    8 type  2   force =     0.00000000   -0.00000000    3.15215945
     atom    9 type  2   force =     0.00000000   -0.00000000    3.20617947
     atom   10 type  2   force =     0.00000000    0.00000000   -3.20617947

     Total force =     7.951506     Total SCF correction =     0.000232


     Computing stress (Cartesian axis) and pressure

          total   stress  (Ry/bohr**3)                   (kbar)     P=     1940.70
   0.00192283  -0.00000000  -0.00000000          282.86       -0.00       -0.00
   0.00000000   0.00192283   0.00000000            0.00      282.86        0.00
   0.00000000   0.00000000   0.03573226            0.00        0.00     5256.40


     BFGS Geometry Optimization
     Energy error            =      0.0E+00 Ry
     Gradient error          =      3.2E+00 Ry/Bohr
     Cell gradient error     =      4.8E+03 kbar

     number of scf cycles    =   1
     number of bfgs steps    =   0

     enthalpy           new  =     -86.9100222201 Ry

     new trust radius        =       0.5000000000 bohr
ibrav =      5
 celldm(1) =     18.97138547
 celldm(4) =      0.92739254
Input lattice vectors:
     0.20666094    -0.11931575     1.05805650
    -0.00000000     0.23863150     1.05805650
    -0.20666094    -0.11931575     1.05805650
New lattice vectors in INITIAL alat:
     0.20666094    -0.11931575     1.05805650
     0.00000000     0.23863150     1.05805650
    -0.20666094    -0.11931575     1.05805650
New lattice vectors in NEW alat (for information only):
     0.19053538    -0.11000565     0.97549732
     0.00000000     0.22001130     0.97549732
    -0.19053538    -0.11000565     0.97549732
Discrepancy in bohr =     0.000000    0.000000    0.000000
     new conv_thr            =       0.0000000100 Ry

     new unit-cell volume =    837.65483 a.u.^3 (   124.12764 Ang^3 )
     density =      3.19146 g/cm^3

CELL_PARAMETERS (alat= 17.49106573)
   0.206660940  -0.119315749   1.058056497
   0.000000000   0.238631498   1.058056497
  -0.206660940  -0.119315749   1.058056497

ATOMIC_POSITIONS (crystal)
Li               0.1800023560        0.1800023560        0.1800023560
Li               0.8199976440        0.8199976440        0.8199976440
Si               0.0307141998        0.0307141998        0.0307141998
Si               0.9692858002        0.9692858002        0.9692858002
Si               0.2322484741        0.2322484741        0.2322484741
Si               0.7677515259        0.7677515259        0.7677515259
Si               0.3659337052        0.3659337052        0.3659337052
Si               0.6340662948        0.6340662948        0.6340662948
Si               0.4274920998        0.4274920998        0.4274920998
Si               0.5725079002        0.5725079002        0.5725079002



     Writing config-only to output data dir ./output/LiSi.save/ :
     XML data file
     NEW-OLD atomic charge density approx. for the potential

     negative rho (up, down):  1.887E-03 0.000E+00

     total cpu time spent up to now is       63.9 secs

     per-process dynamical memory:    58.6 Mb

     Self-consistent Calculation

     iteration #  1     ecut=    80.00 Ry     beta= 0.80
     Davidson diagonalization with overlap
     c_bands:  2 eigenvalues not converged
     c_bands:  2 eigenvalues not converged
     c_bands:  1 eigenvalues not converged
     c_bands:  1 eigenvalues not converged
     c_bands:  2 eigenvalues not converged
     c_bands:  1 eigenvalues not converged
     c_bands:  2 eigenvalues not converged
     c_bands:  1 eigenvalues not converged
     c_bands:  2 eigenvalues not converged
     c_bands:  1 eigenvalues not converged
     c_bands:  2 eigenvalues not converged
     c_bands:  1 eigenvalues not converged
     c_bands:  1 eigenvalues not converged
     c_bands:  1 eigenvalues not converged
     c_bands:  2 eigenvalues not converged
     c_bands:  1 eigenvalues not converged
     c_bands:  2 eigenvalues not converged
     c_bands:  2 eigenvalues not converged
     c_bands:  1 eigenvalues not converged
     c_bands:  2 eigenvalues not converged
     c_bands:  1 eigenvalues not converged
     c_bands:  1 eigenvalues not converged
     c_bands:  2 eigenvalues not converged
     c_bands:  2 eigenvalues not converged
     c_bands:  1 eigenvalues not converged
     c_bands:  1 eigenvalues not converged
     c_bands:  1 eigenvalues not converged
     c_bands:  1 eigenvalues not converged
     c_bands:  1 eigenvalues not converged
     c_bands:  1 eigenvalues not converged
     c_bands:  2 eigenvalues not converged
     c_bands:  1 eigenvalues not converged
     c_bands:  2 eigenvalues not converged
     c_bands:  2 eigenvalues not converged
     c_bands:  1 eigenvalues not converged
     c_bands:  3 eigenvalues not converged
     c_bands:  1 eigenvalues not converged
     ethr =  1.00E-06,  avg # of iterations = 19.6

     total cpu time spent up to now is       81.5 secs

     total energy              =     -94.72471897 Ry
     estimated scf accuracy    <       0.15376133 Ry

     iteration #  2     ecut=    80.00 Ry     beta= 0.80
     Davidson diagonalization with overlap
     ethr =  4.05E-04,  avg # of iterations =  2.9

     total cpu time spent up to now is       86.3 secs

     total energy              =     -94.68899078 Ry
     estimated scf accuracy    <       0.17480728 Ry

     iteration #  3     ecut=    80.00 Ry     beta= 0.80
     Davidson diagonalization with overlap
     ethr =  4.05E-04,  avg # of iterations =  4.5

     total cpu time spent up to now is       91.5 secs

     total energy              =     -94.62392539 Ry
     estimated scf accuracy    <       1.66744276 Ry

     iteration #  4     ecut=    80.00 Ry     beta= 0.80
     Davidson diagonalization with overlap
     ethr =  4.05E-04,  avg # of iterations =  3.7

     total cpu time spent up to now is       96.2 secs

     total energy              =     -94.75830320 Ry
     estimated scf accuracy    <       0.00738294 Ry

     iteration #  5     ecut=    80.00 Ry     beta= 0.80
     Davidson diagonalization with overlap
     ethr =  1.94E-05,  avg # of iterations =  5.6

     total cpu time spent up to now is      101.6 secs

     total energy              =     -94.76126934 Ry
     estimated scf accuracy    <       0.00341505 Ry

     iteration #  6     ecut=    80.00 Ry     beta= 0.80
     Davidson diagonalization with overlap
     ethr =  8.99E-06,  avg # of iterations =  2.0

     total cpu time spent up to now is      105.3 secs

     total energy              =     -94.76143083 Ry
     estimated scf accuracy    <       0.00081263 Ry

     iteration #  7     ecut=    80.00 Ry     beta= 0.80
     Davidson diagonalization with overlap
     ethr =  2.14E-06,  avg # of iterations =  4.5

     total cpu time spent up to now is      109.5 secs

     total energy              =     -94.76147260 Ry
     estimated scf accuracy    <       0.00010414 Ry

     iteration #  8     ecut=    80.00 Ry     beta= 0.80
     Davidson diagonalization with overlap
     ethr =  2.74E-07,  avg # of iterations =  4.4

     total cpu time spent up to now is      114.1 secs

     total energy              =     -94.76149884 Ry
     estimated scf accuracy    <       0.00002636 Ry

     iteration #  9     ecut=    80.00 Ry     beta= 0.80
     Davidson diagonalization with overlap
     ethr =  6.94E-08,  avg # of iterations =  1.4

     total cpu time spent up to now is      117.6 secs

     total energy              =     -94.76149755 Ry
     estimated scf accuracy    <       0.00001168 Ry

     iteration # 10     ecut=    80.00 Ry     beta= 0.80
     Davidson diagonalization with overlap
     ethr =  3.07E-08,  avg # of iterations =  2.4

     total cpu time spent up to now is      121.3 secs

     End of self-consistent calculation

          k = 0.0000 0.0000 0.0000 (  9379 PWs)   bands (ev):

   -38.3323 -38.2093  -5.1561  -3.6670  -1.6465   1.5421   3.6609   6.0466
     6.0466   6.5830   6.5830   7.5212   7.5212   8.2129   8.4145   8.7831
     8.7831   9.6371   9.6439  10.8765  10.8765  10.9790  11.8210

          k =-0.3456-0.1996 0.0450 (  9367 PWs)   bands (ev):

   -38.3268 -38.2146  -4.9057  -3.4278  -1.4283   1.7198   3.4189   4.4680
     5.2597   5.2895   6.2288   6.3453   7.5926   7.8196   8.5227   9.1977
     9.4031   9.7047  10.2569  10.8979  11.2119  11.3383  11.8029

          k =-0.6913-0.3991 0.0900 (  9362 PWs)   bands (ev):

   -38.3120 -38.2289  -4.1659  -2.7390  -0.8698   1.3827   2.4952   2.6972
     4.1830   4.4358   5.1543   5.6234   6.3067   7.3648   7.9437   8.3819
     9.2952   9.3451   9.9725  11.1146  12.2480  12.3940  12.6215

          k =-1.0369-0.5987 0.1350 (  9378 PWs)   bands (ev):

   -38.2944 -38.2460  -3.0024  -1.9388  -1.0036   0.7690   0.9546   2.2830
     3.6424   3.9972   4.9418   5.2014   5.7306   7.0865   7.1129   7.6974
     8.9059   9.0396   9.3599  10.9813  12.1825  12.4746  13.0197

          k =-0.3456 0.1996 0.0900 (  9382 PWs)   bands (ev):

   -38.3268 -38.2146  -4.9055  -3.4290  -1.4245   1.7081   3.4105   4.5088
     5.2520   5.2814   6.2508   6.3802   7.5491   7.7582   8.4136   9.1773
     9.6245   9.7526  10.2879  10.5573  11.3075  11.3659  11.9805

          k =-0.6913-0.0000 0.1350 (  9351 PWs)   bands (ev):

   -38.3166 -38.2244  -4.4096  -2.9641  -1.0181   1.9100   2.4342   3.3455
     3.9103   4.8803   4.9730   5.8492   6.4296   7.9749   8.1879   8.8370
     9.6321  10.1128  10.2859  10.6067  10.8929  12.1273  12.2903

          k =-1.0369-0.1996 0.1800 (  9361 PWs)   bands (ev):

   -38.2993 -38.2413  -3.4468  -2.1248  -0.6256   0.9485   1.5291   2.3221
     3.2305   3.9159   4.2096   5.4523   5.9589   6.7195   7.8527   8.6688
     8.9208  10.1290  10.3205  10.8698  11.5229  12.2749  12.7063

          k = 1.0369 0.9978-0.0900 (  9361 PWs)   bands (ev):

   -38.2866 -38.2538  -2.3068  -1.9842  -0.9676   0.5139   1.2992   1.6715
     2.9834   3.3904   4.6396   5.0934   5.4732   6.5876   7.6845   8.0756
     8.6543   9.9325  10.1585  11.5036  11.5650  12.1973  13.0550

          k = 0.6913 0.7982-0.0450 (  9378 PWs)   bands (ev):

   -38.2993 -38.2413  -3.4485  -2.1157  -0.6408   0.9465   1.5284   2.2906
     3.3204   3.9886   4.2271   5.2585   5.9064   6.6803   7.9356   8.6832
     8.9980  10.0641  10.4224  11.0468  11.6101  12.2505  12.7286

          k = 0.3456 0.5987 0.0000 (  9349 PWs)   bands (ev):

   -38.3166 -38.2244  -4.4103  -2.9600  -1.0297   1.9383   2.4268   3.3733
     3.9127   4.8423   4.9142   5.8527   6.4327   8.0952   8.1063   8.9682
     9.5727  10.1713  10.2108  10.4823  10.8840  12.3952  12.4855

          k =-0.6913 0.3991 0.1800 (  9389 PWs)   bands (ev):

   -38.3120 -38.2289  -4.1650  -2.7442  -0.8567   1.4066   2.4373   2.6146
     4.3921   4.4190   5.1977   5.7133   6.1842   7.1529   7.6968   8.4233
     9.3238   9.6111  10.4559  11.3301  11.7385  12.1089  12.4467

          k =-1.0369 0.1996 0.2250 (  9374 PWs)   bands (ev):

   -38.2993 -38.2413  -3.4462  -2.1272  -0.6252   0.9732   1.5229   2.2567
     3.2902   3.9855   4.1854   5.3043   6.0034   6.6282   8.2191   8.6516
     8.9407   9.6989  10.2923  11.0403  11.9647  12.2772  12.5641

          k = 1.0369 1.3969-0.0450 (  9342 PWs)   bands (ev):

   -38.2815 -38.2588  -2.3249  -1.4374  -1.0060   0.5617   1.1060   1.9287
     2.1971   3.1364   4.0714   4.5583   5.8493   6.6819   7.4336   8.4611
     9.0774  10.5314  11.2115  11.8488  12.0410  12.3832  12.9510

          k = 0.6913 1.1973 0.0000 (  9338 PWs)   bands (ev):

   -38.2815 -38.2588  -2.3299  -1.4162  -1.0181   0.5650   1.1045   1.8462
     2.1923   3.2484   4.0729   4.8274   5.4679   6.6454   7.2425   8.8561
     9.0158  10.7743  11.2381  12.0637  12.0812  12.2904  12.6358

          k =-1.0369 0.5987 0.2700 (  9345 PWs)   bands (ev):

   -38.2944 -38.2460  -3.0010  -1.9382  -1.0192   0.7597   1.0083   2.3538
     3.3901   3.9753   4.9199   5.3215   6.1030   6.7831   7.1884   7.4020
     8.8887   9.3456   9.5935  11.3293  11.8822  12.1001  12.4852

          k = 1.0369 1.7960 0.0000 (  9362 PWs)   bands (ev):

   -38.2866 -38.2538  -2.3131  -1.9641  -1.0025   0.5130   1.3029   1.8080
     2.8699   3.4448   4.2676   5.3073   5.3410   7.1250   7.6659   8.4120
     8.4501   9.5673   9.6854  11.2633  12.2051  12.2267  12.9144

          k = 0.0000 0.0000 0.1350 (  9379 PWs)   bands (ev):

   -38.3323 -38.2093  -5.1556  -3.6702  -1.6361   1.5017   3.7245   6.0481
     6.0481   6.5795   6.5795   7.5193   7.5193   8.0968   8.4910   8.8039
     8.8039   9.3211   9.8934  10.8603  10.8603  11.1238  11.6829

          k =-0.3456-0.1996 0.1800 (  9376 PWs)   bands (ev):

   -38.3268 -38.2146  -4.9048  -3.4333  -1.4111   1.6574   3.4814   4.4520
     5.2654   5.3664   6.2203   6.3153   7.6561   7.8127   8.3817   9.1406
     9.2776   9.7252  10.3202  11.0646  11.2475  11.3153  11.8304

          k =-0.6913-0.3991 0.2250 (  9352 PWs)   bands (ev):

   -38.3120 -38.2289  -4.1644  -2.7479  -0.8464   1.3728   2.4767   2.6657
     4.1421   4.4377   5.3029   5.6122   6.3284   7.4094   7.9467   8.4386
     9.1972   9.3887   9.6331  10.8435  12.3090  12.7560  12.8250

          k = 1.3825 0.7982-0.0450 (  9368 PWs)   bands (ev):

   -38.2944 -38.2460  -2.9996  -1.9505  -0.9957   0.7699   0.9807   2.2879
     3.4865   3.9948   5.0372   5.2128   5.8495   7.0555   7.1653   7.6462
     8.9568   9.0810   9.1932  10.6848  12.0863  12.9331  13.0807

          k = 1.0369 0.5987 0.0000 (  9364 PWs)   bands (ev):

   -38.2944 -38.2460  -3.0042  -1.9291  -1.0157   0.7647   0.9533   2.3016
     3.6865   3.9911   4.8443   5.2322   5.7619   6.9956   7.1152   7.6265
     8.8358   9.1955   9.5711  11.3307  11.9231  12.4890  12.8181

          k = 0.6913 0.3991 0.0450 (  9371 PWs)   bands (ev):

   -38.3120 -38.2289  -4.1662  -2.7374  -0.8743   1.3971   2.4823   2.6671
     4.3076   4.4274   5.0913   5.6673   6.2503   7.2502   7.8335   8.3735
     9.3107   9.4817  10.4115  11.3339  11.8569  12.1456  12.4659

          k =-0.3456 0.1996 0.2250 (  9383 PWs)   bands (ev):

   -38.3268 -38.2146  -4.9044  -3.4360  -1.4026   1.6324   3.4595   4.5394
     5.2481   5.3583   6.2771   6.3922   7.5580   7.6188   8.2539   9.1021
     9.5775   9.9959  10.2601  10.4517  11.3556  11.3740  12.3192

          k =-0.6913 0.0000 0.2700 (  9367 PWs)   bands (ev):

   -38.3166 -38.2244  -4.4080  -2.9733  -0.9917   1.8484   2.4487   3.2928
     3.9042   4.9056   5.1732   5.8307   6.4234   7.8794   8.1941   8.5586
     9.7805  10.1638  10.3182  10.8089  10.9399  11.7875  12.1052

          k = 1.3825 1.1973 0.0000 (  9373 PWs)   bands (ev):

   -38.2993 -38.2413  -3.4445  -2.1371  -0.6065   0.9622   1.5273   2.3356
     3.1381   3.8754   4.1906   5.5479   6.1269   6.7118   7.8716   8.7025
     8.7608   9.9832  10.2732  10.7875  11.5253  12.2731  12.6380

          k = 1.0369 0.9978 0.0450 (  9366 PWs)   bands (ev):

   -38.2866 -38.2538  -2.3091  -1.9771  -0.9801   0.5136   1.3004   1.7167
     2.9482   3.4084   4.4638   5.2204   5.4215   6.7332   7.7121   8.1852
     8.5812   9.8327   9.9831  11.4201  11.5510  12.4317  13.1380

          k = 0.6913 0.7982 0.0900 (  9376 PWs)   bands (ev):

   -38.2993 -38.2413  -3.4482  -2.1168  -0.6406   0.9572   1.5256   2.2636
     3.3467   4.0271   4.2069   5.2098   5.9073   6.6383   8.0977   8.7265
     8.9478   9.8632  10.4083  11.1968  11.8400  12.1343  12.5954

          k =-0.6913 0.3991 0.3150 (  9367 PWs)   bands (ev):

   -38.3120 -38.2289  -4.1632  -2.7543  -0.8299   1.4032   2.3867   2.5891
     4.3667   4.4168   5.4118   5.7239   6.1623   7.1400   7.5875   8.5241
     9.3431   9.5801  10.0993  11.0564  12.0514  12.3576  12.5505

          k = 1.3825 1.5964 0.0450 (  9373 PWs)   bands (ev):

   -38.2993 -38.2413  -3.4440  -2.1390  -0.6063   0.9827   1.5222   2.2774
     3.1879   3.9239   4.1823   5.4067   6.1910   6.6437   8.1280   8.5685
     8.9531   9.6977  10.1774  10.8735  11.7590  12.3561  12.6819

          k = 1.0369 1.3969 0.0900 (  9344 PWs)   bands (ev):

   -38.2815 -38.2588  -2.3220  -1.4486  -0.9997   0.5599   1.1069   1.9822
     2.1977   3.0699   4.0655   4.4635   6.0450   6.6509   7.5872   8.3391
     8.9645  10.3977  11.2572  11.8082  12.0680  12.2713  13.1498

          k = 0.6913 1.1973 0.1350 (  9347 PWs)   bands (ev):

   -38.2815 -38.2588  -2.3284  -1.4228  -1.0142   0.5640   1.1049   1.8701
     2.1941   3.2146   4.0737   4.7205   5.6040   6.6627   7.2959   8.6694
     9.1112  10.6944  11.2168  11.9510  12.0497  12.4119  12.7203

          k = 1.3825-0.7982-0.2250 (  9345 PWs)   bands (ev):

   -38.2944 -38.2460  -2.9985  -1.9500  -1.0082   0.7622   1.0251   2.3484
     3.2991   3.9772   4.9901   5.3090   6.1799   6.8125   7.2552   7.3633
     8.9202   9.1795   9.5182  10.9134  11.9122  12.2639  12.9319

          k = 1.0369-0.9978-0.1800 (  9366 PWs)   bands (ev):

   -38.2866 -38.2538  -2.3119  -1.9681  -0.9956   0.5132   1.3021   1.7783
     2.8963   3.4330   4.3199   5.2908   5.3647   6.9735   7.7102   8.3342
     8.4878   9.6774   9.7578  11.3072  11.8114  12.4867  13.0764

          k = 1.0369-0.5987-0.1350 (  9367 PWs)   bands (ev):

   -38.2944 -38.2460  -3.0035  -1.9287  -1.0227   0.7607   0.9767   2.3314
     3.5635   3.9814   4.8536   5.2855   5.9113   6.8620   7.1534   7.4984
     8.8362   9.4402   9.5653  11.5587  11.7825  12.3244  12.4083

          k = 0.0000 0.0000 0.2700 (  9414 PWs)   bands (ev):

   -38.3323 -38.2093  -5.1545  -3.6773  -1.6125   1.4162   3.8655   6.0515
     6.0515   6.5714   6.5714   7.5154   7.5154   7.8995   8.6025   8.8523
     8.8523   9.0537  10.0093  10.8281  10.8281  11.4406  11.4406

          k =-0.3456-0.1996 0.3150 (  9387 PWs)   bands (ev):

   -38.3268 -38.2146  -4.9035  -3.4413  -1.3856   1.5737   3.5411   4.4715
     5.2647   5.4750   6.2262   6.3114   7.6961   7.7395   8.0999   9.0490
     9.3927   9.7029  10.3820  10.9375  11.3409  11.4830  11.9718

          k = 1.7282 0.9978 0.0450 (  9360 PWs)   bands (ev):

   -38.3120 -38.2289  -4.1627  -2.7572  -0.8215   1.3746   2.4272   2.6166
     4.1925   4.4315   5.4527   5.6405   6.3068   7.3429   7.7686   8.5593
     9.2580   9.2822   9.6890  10.6869  12.2659  12.8878  13.0770

          k = 1.3825 0.7982 0.0900 (  9363 PWs)   bands (ev):

   -38.2944 -38.2460  -2.9978  -1.9554  -0.9979   0.7666   1.0128   2.3166
     3.3427   3.9858   5.0415   5.2594   6.0551   6.9307   7.2515   7.4776
     8.9020   9.1904   9.2879  10.6397  11.9806  12.7533  13.0655

          k =-0.3456 0.1996 0.3600 (  9381 PWs)   bands (ev):

   -38.3268 -38.2146  -4.9031  -3.4434  -1.3787   1.5547   3.5209   4.5371
     5.2507   5.4797   6.2820   6.3715   7.5046   7.6165   8.1160   9.0253
     9.5770   9.8642  10.2925  10.6392  11.3803  11.4187  12.4038

          k = 1.7282 1.3969 0.0900 (  9380 PWs)   bands (ev):

   -38.3166 -38.2244  -4.4068  -2.9805  -0.9702   1.8007   2.4586   3.2576
     3.8990   4.9180   5.3696   5.7849   6.4250   7.8376   8.1509   8.3573
     9.9155  10.2450  10.3279  10.9101  11.0302  11.5379  11.9937

          k = 1.3825 1.1973 0.1350 (  9357 PWs)   bands (ev):

   -38.2993 -38.2413  -3.4432  -2.1433  -0.5980   0.9777   1.5242   2.3146
     3.1186   3.8826   4.1830   5.4963   6.2814   6.6653   7.9635   8.5759
     8.8707   9.8268  10.1805  10.7995  11.5915  12.3030  12.6304

          k = 1.7282-0.9978-0.1800 (  9366 PWs)   bands (ev):

   -38.3120 -38.2289  -4.1622  -2.7601  -0.8141   1.3883   2.3818   2.5908
     4.2834   4.4222   5.5172   5.6899   6.2302   7.2223   7.5961   8.6040
     9.3023   9.4239   9.8227  10.7802  12.2055  12.8001  12.8453

          k =-0.0000 0.0000 0.4051 (  9381 PWs)   bands (ev):

   -38.3323 -38.2093  -5.1536  -3.6830  -1.5933   1.3518   3.9782   6.0542
     6.0542   6.5649   6.5649   7.5125   7.5125   7.7540   8.7132   8.8709
     8.8928   8.8928  10.0428  10.8074  10.8074  11.2780  11.2780

          k = 2.0738 1.1973 0.1350 (  9391 PWs)   bands (ev):

   -38.3268 -38.2146  -4.9028  -3.4457  -1.3711   1.5299   3.5551   4.5083
     5.2580   5.5374   6.2519   6.3357   7.5630   7.6798   8.0337   8.9990
     9.5526   9.6973  10.3710  10.8030  11.3734  11.5124  12.1804

     the Fermi energy is    10.6595 ev

!    total energy              =     -94.76149889 Ry
     estimated scf accuracy    <          6.5E-09 Ry
     smearing contrib. (-TS)   =       0.00176430 Ry
     internal energy E=F+TS    =     -94.76326319 Ry

     The total energy is F=E-TS. E is the sum of the following terms:
     one-electron contribution =      14.08497353 Ry
     hartree contribution      =      11.50517514 Ry
     xc contribution           =     -33.56298027 Ry
     ewald contribution        =     -86.79043158 Ry

     convergence has been achieved in  10 iterations

     Forces acting on atoms (cartesian axes, Ry/au):

     atom    1 type  1   force =    -0.00000000    0.00000000   -0.47725709
     atom    2 type  1   force =    -0.00000000    0.00000000    0.47725709
     atom    3 type  2   force =     0.00000000    0.00000000    0.54550044
     atom    4 type  2   force =    -0.00000000    0.00000000   -0.54550044
     atom    5 type  2   force =    -0.00000000    0.00000000    0.49180712
     atom    6 type  2   force =     0.00000000    0.00000000   -0.49180712
     atom    7 type  2   force =    -0.00000000   -0.00000000   -0.47277055
     atom    8 type  2   force =     0.00000000    0.00000000    0.47277055
     atom    9 type  2   force =    -0.00000000   -0.00000000    0.58411579
     atom   10 type  2   force =     0.00000000    0.00000000   -0.58411579

     Total force =     1.632129     Total SCF correction =     0.000112


     Computing stress (Cartesian axis) and pressure

          total   stress  (Ry/bohr**3)                   (kbar)     P=      763.27
   0.00263159   0.00000000  -0.00000000          387.12        0.00       -0.00
   0.00000000   0.00263159   0.00000000            0.00      387.12        0.00
  -0.00000000   0.00000000   0.01030257           -0.00        0.00     1515.56

     Energy error            =      5.0E+00 Ry
     Gradient error          =      5.8E-01 Ry/Bohr
     Cell gradient error     =      1.0E+03 kbar

     number of scf cycles    =   2
     number of bfgs steps    =   1

     enthalpy           old  =     -86.9100222201 Ry
     enthalpy           new  =     -91.9143679892 Ry

     CASE: enthalpy          _new < enthalpy          _old

     new trust radius        =       0.3000000000 bohr
ibrav =      5
 celldm(1) =     19.31062355
 celldm(4) =      0.93133577
Input lattice vectors:
     0.20456452    -0.11810538     1.07846277
     0.00000000     0.23621076     1.07846277
    -0.20456452    -0.11810538     1.07846277
New lattice vectors in INITIAL alat:
     0.20456452    -0.11810538     1.07846277
     0.00000000     0.23621076     1.07846277
    -0.20456452    -0.11810538     1.07846277
New lattice vectors in NEW alat (for information only):
     0.18528927    -0.10697681     0.97684382
     0.00000000     0.21395362     0.97684382
    -0.18528927    -0.10697681     0.97684382
Discrepancy in bohr =     0.000000    0.000000    0.000000
     new conv_thr            =       0.0000000100 Ry

     new unit-cell volume =    836.57562 a.u.^3 (   123.96772 Ang^3 )
     density =      3.19558 g/cm^3

CELL_PARAMETERS (alat= 17.49106573)
   0.204564517  -0.118105379   1.078462773
   0.000000000   0.236210758   1.078462773
  -0.204564517  -0.118105379   1.078462773

ATOMIC_POSITIONS (crystal)
Li               0.1749395125        0.1749395125        0.1749395125
Li               0.8250604875        0.8250604875        0.8250604875
Si               0.0313112848        0.0313112848        0.0313112848
Si               0.9686887152        0.9686887152        0.9686887152
Si               0.2376519705        0.2376519705        0.2376519705
Si               0.7623480295        0.7623480295        0.7623480295
Si               0.3664264132        0.3664264132        0.3664264132
Si               0.6335735868        0.6335735868        0.6335735868
Si               0.4285435678        0.4285435678        0.4285435678
Si               0.5714564322        0.5714564322        0.5714564322



     Writing config-only to output data dir ./output/LiSi.save/ :
     XML data file
     NEW-OLD atomic charge density approx. for the potential

     total cpu time spent up to now is      124.2 secs

     per-process dynamical memory:    59.4 Mb

     Self-consistent Calculation

     iteration #  1     ecut=    80.00 Ry     beta= 0.80
     Davidson diagonalization with overlap
     c_bands:  1 eigenvalues not converged
     c_bands:  2 eigenvalues not converged
     c_bands:  1 eigenvalues not converged
     c_bands:  1 eigenvalues not converged
     c_bands:  1 eigenvalues not converged
     c_bands:  1 eigenvalues not converged
     c_bands:  1 eigenvalues not converged
     c_bands:  1 eigenvalues not converged
     c_bands:  1 eigenvalues not converged
     c_bands:  1 eigenvalues not converged
     c_bands:  1 eigenvalues not converged
     c_bands:  2 eigenvalues not converged
     c_bands:  1 eigenvalues not converged
     ethr =  1.00E-06,  avg # of iterations = 17.0

     total cpu time spent up to now is      138.6 secs

     total energy              =     -95.27344505 Ry
     estimated scf accuracy    <       0.02454679 Ry

     iteration #  2     ecut=    80.00 Ry     beta= 0.80
     Davidson diagonalization with overlap
     ethr =  6.46E-05,  avg # of iterations =  6.2

     total cpu time spent up to now is      144.6 secs

     total energy              =     -95.21326902 Ry
     estimated scf accuracy    <       0.73698233 Ry

     iteration #  3     ecut=    80.00 Ry     beta= 0.80
     Davidson diagonalization with overlap
     ethr =  6.46E-05,  avg # of iterations =  6.3

     total cpu time spent up to now is      150.5 secs

     total energy              =     -95.28099511 Ry
     estimated scf accuracy    <       0.03465538 Ry

     iteration #  4     ecut=    80.00 Ry     beta= 0.80
     Davidson diagonalization with overlap
     ethr =  6.46E-05,  avg # of iterations =  2.1

     total cpu time spent up to now is      154.6 secs

     total energy              =     -95.28535363 Ry
     estimated scf accuracy    <       0.00211431 Ry

     iteration #  5     ecut=    80.00 Ry     beta= 0.80
     Davidson diagonalization with overlap
     ethr =  5.56E-06,  avg # of iterations =  4.0

     total cpu time spent up to now is      159.1 secs

     total energy              =     -95.28571393 Ry
     estimated scf accuracy    <       0.00009220 Ry

     iteration #  6     ecut=    80.00 Ry     beta= 0.80
     Davidson diagonalization with overlap
     ethr =  2.43E-07,  avg # of iterations =  4.6

     total cpu time spent up to now is      164.2 secs

     total energy              =     -95.28575269 Ry
     estimated scf accuracy    <       0.00000558 Ry

     iteration #  7     ecut=    80.00 Ry     beta= 0.80
     Davidson diagonalization with overlap
     ethr =  1.47E-08,  avg # of iterations =  3.9

     total cpu time spent up to now is      168.5 secs

     total energy              =     -95.28575386 Ry
     estimated scf accuracy    <       0.00000054 Ry

     iteration #  8     ecut=    80.00 Ry     beta= 0.80
     Davidson diagonalization with overlap
     ethr =  1.43E-09,  avg # of iterations =  4.1

     total cpu time spent up to now is      173.0 secs

     total energy              =     -95.28575398 Ry
     estimated scf accuracy    <       0.00000001 Ry

     iteration #  9     ecut=    80.00 Ry     beta= 0.80
     Davidson diagonalization with overlap
     ethr =  2.92E-11,  avg # of iterations =  5.5

     total cpu time spent up to now is      178.9 secs

     total energy              =     -95.28575400 Ry
     estimated scf accuracy    <       0.00000001 Ry

     iteration # 10     ecut=    80.00 Ry     beta= 0.80
     Davidson diagonalization with overlap
     ethr =  2.66E-11,  avg # of iterations =  1.6

     total cpu time spent up to now is      182.5 secs

     End of self-consistent calculation

          k = 0.0000 0.0000 0.0000 (  9379 PWs)   bands (ev):

   -37.0556 -36.8628  -5.1778  -3.8685  -1.6472   1.4777   3.6531   6.2760
     6.2760   6.6917   6.6917   7.6754   7.6754   8.0738   8.7223   9.0178
     9.0178   9.5848   9.9811  10.8945  10.9696  10.9696  12.1025

          k =-0.3492-0.2016 0.0442 (  9367 PWs)   bands (ev):

   -37.0471 -36.8712  -4.9196  -3.6193  -1.4182   1.6794   3.5381   4.5038
     5.2836   5.4232   6.3981   6.4099   7.8727   8.0396   8.3567   9.4450
     9.5425   9.8187  10.4480  11.0810  11.3859  11.4024  12.2326

          k =-0.6983-0.4032 0.0883 (  9362 PWs)   bands (ev):

   -37.0240 -36.8938  -4.1557  -2.8961  -0.8201   1.4780   2.5529   2.6163
     4.2536   4.5656   5.1618   5.6447   6.4948   7.6274   7.8727   8.5369
     9.2787   9.6037   9.8056  11.1755  12.2015  12.7723  12.8211

          k =-1.0475-0.6048 0.1325 (  9378 PWs)   bands (ev):

   -36.9967 -36.9209  -2.9463  -1.9750  -0.9840   0.6352   0.9983   2.3904
     3.6693   4.1122   5.0790   5.2105   5.7923   7.0836   7.3207   7.6806
     8.7018   9.3624   9.4319  10.7897  12.0300  12.5729  13.2913

          k =-0.3492 0.2016 0.0883 (  9382 PWs)   bands (ev):

   -37.0471 -36.8712  -4.9194  -3.6202  -1.4151   1.6678   3.5350   4.5364
     5.2850   5.4171   6.4207   6.4227   7.8411   7.9266   8.3263   9.4394
     9.6432  10.0088  10.4322  10.7646  11.3974  11.4293  12.0845

          k =-0.6983-0.0000 0.1325 (  9351 PWs)   bands (ev):

   -37.0312 -36.8868  -4.4077  -3.1331  -0.9847   1.9413   2.6180   3.3055
     3.9391   4.8419   4.9416   6.0682   6.5975   8.1610   8.4055   8.7810
     9.9367  10.1697  10.2957  10.7257  10.8462  12.1650  12.3458

          k =-1.0475-0.2016 0.1766 (  9361 PWs)   bands (ev):

   -37.0042 -36.9134  -3.4112  -2.2353  -0.5270   0.9882   1.5124   2.3658
     3.1832   3.9773   4.2402   5.5106   6.1415   6.7505   8.0384   8.7569
     8.9998  10.0809  10.1919  10.9060  11.8629  12.3577  12.6712

          k = 1.0475 1.0080-0.0883 (  9361 PWs)   bands (ev):

   -36.9845 -36.9330  -2.1870  -1.9715  -0.9858   0.3505   1.3180   1.7877
     3.0616   3.3309   4.6625   5.2278   5.5844   6.6299   7.7736   8.1572
     8.7103   9.8090  10.2554  11.3522  11.7352  12.1490  13.1036

          k = 0.6983 0.8064-0.0442 (  9378 PWs)   bands (ev):

   -37.0042 -36.9134  -3.4127  -2.2287  -0.5392   0.9863   1.5116   2.3409
     3.2561   4.0525   4.2424   5.3448   6.0922   6.6855   8.1381   8.7616
     9.1229  10.0718  10.3538  10.9498  11.8972  12.2641  12.6768

          k = 0.3492 0.6048 0.0000 (  9349 PWs)   bands (ev):

   -37.0312 -36.8868  -4.4083  -3.1301  -0.9943   1.9701   2.6111   3.3250
     3.9410   4.7836   4.9113   6.0726   6.5986   8.2853   8.3289   8.8922
     9.8959  10.2464  10.2814  10.5362  10.8261  12.3492  12.4013

          k =-0.6983 0.4032 0.1766 (  9389 PWs)   bands (ev):

   -37.0240 -36.8938  -4.1549  -2.9001  -0.8084   1.4973   2.4985   2.5483
     4.4506   4.5529   5.1979   5.6989   6.3657   7.4802   7.6601   8.5881
     9.1939   9.8559  10.2574  11.3878  11.7274  12.5266  12.6498

          k =-1.0475 0.2016 0.2208 (  9374 PWs)   bands (ev):

   -37.0042 -36.9134  -3.4106  -2.2378  -0.5244   1.0060   1.5065   2.3087
     3.2311   4.0268   4.2333   5.4073   6.2077   6.6069   8.3788   8.7005
     9.1065   9.7581  10.1874  10.9583  12.0570  12.3726  12.5146

          k = 1.0475 1.4112-0.0442 (  9342 PWs)   bands (ev):

   -36.9765 -36.9409  -2.2426  -1.4432  -0.8616   0.4714   1.0020   2.0170
     2.0592   3.2879   4.1024   4.6011   5.9881   6.8898   7.2703   8.4335
     9.3171  10.4484  11.2550  11.9049  12.0281  12.3722  12.9860

          k = 0.6983 1.2096 0.0000 (  9338 PWs)   bands (ev):

   -36.9765 -36.9409  -2.2474  -1.4265  -0.8709   0.4730   1.0008   1.9540
     2.0533   3.3820   4.1001   4.8291   5.6639   6.8541   7.0503   8.8298
     9.2794  10.7854  11.2324  11.9952  12.1457  12.2957  12.5165

          k =-1.0475 0.6048 0.2649 (  9345 PWs)   bands (ev):

   -36.9967 -36.9209  -2.9446  -1.9777  -0.9913   0.6275   1.0392   2.4523
     3.4582   4.0956   5.0067   5.2826   6.1863   7.1100   7.1401   7.4830
     8.7088   9.2147   9.8095  11.1492  11.8079  12.4599  12.7174

          k = 1.0475 1.8144 0.0000 (  9362 PWs)   bands (ev):

   -36.9845 -36.9330  -2.1935  -1.9550  -1.0112   0.3498   1.3203   1.9005
     2.9760   3.3677   4.3273   5.3842   5.4884   7.2305   7.6872   8.4607
     8.5076   9.6293   9.6515  11.1817  12.0016  12.2152  13.2120

          k =-0.0000-0.0000 0.1325 (  9379 PWs)   bands (ev):

   -37.0556 -36.8628  -5.1773  -3.8708  -1.6387   1.4408   3.7179   6.2774
     6.2774   6.6886   6.6886   7.6760   7.6760   7.9430   8.7800   9.0295
     9.0295   9.4517  10.0701  10.9532  10.9532  11.0679  12.0216

          k =-0.3492-0.2016 0.1766 (  9376 PWs)   bands (ev):

   -37.0471 -36.8712  -4.9188  -3.6232  -1.4042   1.6216   3.6092   4.4944
     5.3373   5.4273   6.3808   6.4068   7.9130   8.0475   8.1708   9.4029
     9.4336   9.8375  10.5334  11.2713  11.3930  11.4026  11.9713

          k =-0.6983-0.4032 0.2208 (  9352 PWs)   bands (ev):

   -37.0240 -36.8938  -4.1544  -2.9026  -0.8009   1.4672   2.5475   2.5717
     4.2402   4.5668   5.2867   5.6390   6.5295   7.6530   7.8654   8.5905
     9.1862   9.5383   9.5536  10.9554  12.4571  13.0539  13.1560

          k = 1.3967 0.8064-0.0442 (  9368 PWs)   bands (ev):

   -36.9967 -36.9209  -2.9436  -1.9848  -0.9772   0.6356   1.0202   2.3941
     3.5345   4.1103   5.1375   5.2181   5.9543   7.1389   7.2978   7.6230
     8.6647   9.2772   9.3995  10.5479  12.1177  12.9317  13.3025

          k = 1.0475 0.6048 0.0000 (  9364 PWs)   bands (ev):

   -36.9967 -36.9209  -2.9477  -1.9680  -0.9923   0.6320   0.9956   2.4073
     3.7092   4.1077   4.9892   5.2293   5.8039   7.0832   7.2589   7.6425
     8.7032   9.4843   9.5551  11.1152  11.7320  12.5857  13.1423

          k = 0.6983 0.4032 0.0442 (  9371 PWs)   bands (ev):

   -37.0240 -36.8938  -4.1560  -2.8950  -0.8234   1.4910   2.5477   2.5873
     4.3548   4.5594   5.1124   5.6710   6.4298   7.5496   7.7822   8.5347
     9.2364   9.7461  10.2408  11.3505  11.7447  12.5630  12.7021

          k =-0.3492 0.2016 0.2208 (  9383 PWs)   bands (ev):

   -37.0471 -36.8712  -4.9184  -3.6252  -1.3972   1.5968   3.5979   4.5672
     5.3509   5.4136   6.4313   6.4384   7.7002   7.8410   8.2441   9.3934
     9.6015  10.2961  10.4507  10.6121  11.3871  11.4369  12.3833

          k =-0.6983 0.0000 0.2649 (  9367 PWs)   bands (ev):

   -37.0312 -36.8868  -4.4063  -3.1398  -0.9629   1.8787   2.6316   3.2678
     3.9346   4.8899   5.0991   6.0529   6.5969   8.0034   8.4171   8.5758
    10.0428  10.1685  10.3111  10.8885  10.9837  11.9719  12.1086

          k = 1.3967 1.2096 0.0000 (  9373 PWs)   bands (ev):

   -37.0042 -36.9134  -3.4091  -2.2446  -0.5108   0.9986   1.5107   2.3733
     3.1096   3.9301   4.2322   5.6195   6.2860   6.7726   8.0038   8.7779
     8.8341   9.9103  10.1432  10.8766  11.8470  12.3269  12.6769

          k = 1.0475 1.0080 0.0442 (  9366 PWs)   bands (ev):

   -36.9845 -36.9330  -2.1894  -1.9656  -0.9949   0.3503   1.3188   1.8256
     3.0347   3.3434   4.5108   5.3234   5.5468   6.7801   7.8019   8.2557
     8.6377   9.7511  10.0302  11.2833  11.6731  12.4113  13.2034

          k = 0.6983 0.8064 0.0883 (  9376 PWs)   bands (ev):

   -37.0042 -36.9134  -3.4124  -2.2298  -0.5380   0.9940   1.5090   2.3171
     3.2766   4.0811   4.2324   5.3094   6.1046   6.6271   8.2891   8.7738
     9.1254   9.9071  10.3412  11.0777  11.9474  12.1611  12.6000

          k =-0.6983 0.4032 0.3091 (  9367 PWs)   bands (ev):

   -37.0240 -36.8938  -4.1533  -2.9076  -0.7861   1.4914   2.4306   2.5446
     4.4527   4.5509   5.3786   5.7067   6.3581   7.4675   7.5499   8.6880
     9.1417   9.8459   9.9178  11.1881  12.1904  12.6570  12.7254

          k = 1.3967 1.6128 0.0442 (  9373 PWs)   bands (ev):

   -37.0042 -36.9134  -3.4086  -2.2465  -0.5087   1.0133   1.5059   2.3230
     3.1507   3.9649   4.2326   5.5183   6.3887   6.6298   8.2244   8.6513
     9.0761   9.7341  10.0658  10.8335  11.9288  12.4228  12.8242

          k = 1.0475 1.4112 0.0883 (  9344 PWs)   bands (ev):

   -36.9765 -36.9409  -2.2398  -1.4523  -0.8567   0.4706   1.0027   2.0527
     2.0657   3.2327   4.0999   4.5134   6.1535   6.8630   7.4705   8.2409
     9.2325  10.2915  11.3223  11.8731  12.0618  12.2760  13.2307

          k = 0.6983 1.2096 0.1325 (  9347 PWs)   bands (ev):

   -36.9765 -36.9409  -2.2459  -1.4317  -0.8680   0.4725   1.0012   1.9727
     2.0550   3.3536   4.1018   4.7437   5.7755   6.8716   7.1079   8.6766
     9.3392  10.6630  11.2302  11.9615  12.0596  12.3911  12.6577

          k = 1.3967-0.8064-0.2208 (  9345 PWs)   bands (ev):

   -36.9967 -36.9209  -2.9423  -1.9870  -0.9830   0.6294   1.0538   2.4467
     3.3757   4.0970   5.0647   5.2759   6.2999   7.1290   7.2122   7.4159
     8.6640   9.0856   9.7545  10.8000  11.9918  12.5916  13.0423

          k = 1.0475-1.0080-0.1766 (  9366 PWs)   bands (ev):

   -36.9845 -36.9330  -2.1923  -1.9582  -1.0062   0.3500   1.3198   1.8764
     2.9957   3.3599   4.3768   5.3745   5.5054   7.0443   7.7736   8.3911
     8.5434   9.6672   9.7692  11.2165  11.7885  12.4210  13.2840

          k = 1.0475-0.6048-0.1325 (  9367 PWs)   bands (ev):

   -36.9967 -36.9209  -2.9470  -1.9692  -0.9955   0.6285   1.0135   2.4335
     3.6082   4.1003   4.9690   5.2614   5.9639   7.1117   7.1656   7.5597
     8.7054   9.4653   9.6822  11.3723  11.5528  12.6762  12.7258

          k =-0.0000-0.0000 0.2649 (  9414 PWs)   bands (ev):

   -37.0557 -36.8629  -5.1763  -3.8759  -1.6195   1.3623   3.8637   6.2806
     6.2806   6.6815   6.6815   7.6773   7.6773   7.6871   8.8838   9.0563
     9.0563   9.2732  10.1413  10.9186  10.9186  11.5084  11.8622

          k =-0.3492-0.2016 0.3091 (  9387 PWs)   bands (ev):

   -37.0471 -36.8712  -4.9176  -3.6290  -1.3834   1.5432   3.6848   4.5161
     5.4240   5.4261   6.3815   6.4129   7.7862   7.9330   8.0852   9.3455
     9.4669   9.8991  10.6093  11.1619  11.3861  11.5456  12.1362

          k = 1.7459 1.0080 0.0442 (  9360 PWs)   bands (ev):

   -37.0240 -36.8938  -4.1529  -2.9095  -0.7800   1.4660   2.4779   2.5523
     4.3019   4.5619   5.4195   5.6579   6.5177   7.6033   7.6948   8.7188
     9.0162   9.5838   9.5955  10.8547  12.4842  13.1532  13.1785

          k = 1.3967 0.8064 0.0883 (  9363 PWs)   bands (ev):

   -36.9967 -36.9209  -2.9419  -1.9901  -0.9768   0.6330   1.0454   2.4189
     3.4105   4.1035   5.1194   5.2468   6.1849   7.2104   7.2357   7.4669
     8.6259   9.1513   9.5692  10.5527  12.0734  13.0267  13.1619

          k =-0.3492 0.2016 0.3532 (  9381 PWs)   bands (ev):

   -37.0471 -36.8712  -4.9173  -3.6306  -1.3777   1.5245   3.6718   4.5733
     5.4152   5.4485   6.4216   6.4419   7.5094   7.8742   8.1679   9.3411
     9.5583  10.1768  10.5466  10.8116  11.3843  11.4628  12.3467

          k = 1.7459 1.4112 0.0883 (  9380 PWs)   bands (ev):

   -37.0312 -36.8868  -4.4052  -3.1452  -0.9451   1.8303   2.6412   3.2424
     3.9311   4.9034   5.2646   6.0286   6.6024   7.8652   8.3699   8.4813
    10.1485  10.1906  10.3345  10.9754  11.0802  11.8623  11.9252

          k = 1.3967 1.2096 0.1325 (  9357 PWs)   bands (ev):

   -37.0042 -36.9134  -3.4080  -2.2495  -0.5026   1.0100   1.5078   2.3532
     3.0953   3.9292   4.2300   5.5988   6.4370   6.7142   8.0424   8.6584
     8.9631   9.8014  10.0698  10.8281  11.8475  12.3562  12.7320

          k = 1.7459-1.0080-0.1766 (  9366 PWs)   bands (ev):

   -37.0241 -36.8938  -4.1524  -2.9118  -0.7733   1.4768   2.4223   2.5466
     4.3876   4.5549   5.4749   5.6880   6.4396   7.5205   7.5388   8.7779
     9.0359   9.6725   9.7295  10.9566  12.4512  12.8948  13.0783

          k =-0.0000 0.0000 0.3974 (  9381 PWs)   bands (ev):

   -37.0556 -36.8629  -5.1755  -3.8800  -1.6038   1.3032   3.9824   6.2832
     6.2832   6.6758   6.6758   7.4993   7.6784   7.6784   8.9788   9.0784
     9.0784   9.1465  10.1625  10.8929  10.8929  11.7504  11.7504

          k = 2.0950 1.2096 0.1325 (  9391 PWs)   bands (ev):

   -37.0471 -36.8712  -4.9170  -3.6323  -1.3714   1.5019   3.7086   4.5514
     5.4207   5.4851   6.3994   6.4270   7.5293   7.9159   8.1100   9.3188
     9.5184  10.0121  10.6159  11.0148  11.3851  11.5267  12.2740

     the Fermi energy is    10.7115 ev

!    total energy              =     -95.28575400 Ry
     estimated scf accuracy    <          7.4E-10 Ry
     smearing contrib. (-TS)   =       0.00114647 Ry
     internal energy E=F+TS    =     -95.28690047 Ry

     The total energy is F=E-TS. E is the sum of the following terms:
     one-electron contribution =      14.54618268 Ry
     hartree contribution      =      11.49779707 Ry
     xc contribution           =     -33.50977601 Ry
     ewald contribution        =     -87.82110420 Ry

     convergence has been achieved in  10 iterations

     Forces acting on atoms (cartesian axes, Ry/au):

     atom    1 type  1   force =    -0.00000000   -0.00000000   -0.17027818
     atom    2 type  1   force =    -0.00000000    0.00000000    0.17027818
     atom    3 type  2   force =    -0.00000000   -0.00000000    0.39921884
     atom    4 type  2   force =    -0.00000000   -0.00000000   -0.39921884
     atom    5 type  2   force =     0.00000000   -0.00000000    0.17547728
     atom    6 type  2   force =    -0.00000000   -0.00000000   -0.17547728
     atom    7 type  2   force =    -0.00000000   -0.00000000   -0.37453396
     atom    8 type  2   force =    -0.00000000   -0.00000000    0.37453396
     atom    9 type  2   force =    -0.00000000   -0.00000000    0.49655795
     atom   10 type  2   force =    -0.00000000    0.00000000   -0.49655795

     Total force =     1.100916     Total SCF correction =     0.000065


     Computing stress (Cartesian axis) and pressure

          total   stress  (Ry/bohr**3)                   (kbar)     P=      669.41
   0.00315871   0.00000000   0.00000000          464.66        0.00        0.00
   0.00000000   0.00315871   0.00000000            0.00      464.66        0.00
  -0.00000000   0.00000000   0.00733429           -0.00        0.00     1078.91

     Energy error            =      5.3E-01 Ry
     Gradient error          =      5.0E-01 Ry/Bohr
     Cell gradient error     =      5.8E+02 kbar

     number of scf cycles    =   3
     number of bfgs steps    =   2

     enthalpy           old  =     -91.9143679892 Ry
     enthalpy           new  =     -92.4422912376 Ry

     CASE: enthalpy          _new < enthalpy          _old

     new trust radius        =       0.3000000000 bohr
ibrav =      5
 celldm(1) =     19.18171841
 celldm(4) =      0.93116051
Input lattice vectors:
     0.20345814    -0.11746661     1.07119807
    -0.00000000     0.23493323     1.07119807
    -0.20345814    -0.11746661     1.07119807
New lattice vectors in INITIAL alat:
     0.20345814    -0.11746661     1.07119807
     0.00000000     0.23493323     1.07119807
    -0.20345814    -0.11746661     1.07119807
New lattice vectors in NEW alat (for information only):
     0.18552560    -0.10711325     0.97678401
     0.00000000     0.21422651     0.97678401
    -0.18552560    -0.10711325     0.97678401
Discrepancy in bohr =     0.000000    0.000000    0.000000
     new conv_thr            =       0.0000000100 Ry

     new unit-cell volume =    821.97644 a.u.^3 (   121.80434 Ang^3 )
     density =      3.25233 g/cm^3

CELL_PARAMETERS (alat= 17.49106573)
   0.203458142  -0.117466613   1.071198070
   0.000000000   0.234933226   1.071198070
  -0.203458142  -0.117466613   1.071198070

ATOMIC_POSITIONS (crystal)
Li               0.1712407319        0.1712407319        0.1712407319
Li               0.8287592681        0.8287592681        0.8287592681
Si               0.0329941302        0.0329941302        0.0329941302
Si               0.9670058698        0.9670058698        0.9670058698
Si               0.2418389883        0.2418389883        0.2418389883
Si               0.7581610117        0.7581610117        0.7581610117
Si               0.3658992798        0.3658992798        0.3658992798
Si               0.6341007202        0.6341007202        0.6341007202
Si               0.4338448213        0.4338448213        0.4338448213
Si               0.5661551787        0.5661551787        0.5661551787



     Writing config-only to output data dir ./output/LiSi.save/ :
     XML data file
     NEW-OLD atomic charge density approx. for the potential

     total cpu time spent up to now is      185.5 secs

     per-process dynamical memory:    59.4 Mb

     Self-consistent Calculation

     iteration #  1     ecut=    80.00 Ry     beta= 0.80
     Davidson diagonalization with overlap
     c_bands:  1 eigenvalues not converged
     c_bands:  1 eigenvalues not converged
     c_bands:  1 eigenvalues not converged
     c_bands:  1 eigenvalues not converged
     c_bands:  1 eigenvalues not converged
     c_bands:  1 eigenvalues not converged
     c_bands:  1 eigenvalues not converged
     c_bands:  1 eigenvalues not converged
     c_bands:  1 eigenvalues not converged
     c_bands:  1 eigenvalues not converged
     c_bands:  1 eigenvalues not converged
     c_bands:  1 eigenvalues not converged
     c_bands:  1 eigenvalues not converged
     c_bands:  1 eigenvalues not converged
     c_bands:  1 eigenvalues not converged
     c_bands:  1 eigenvalues not converged
     c_bands:  1 eigenvalues not converged
     ethr =  1.00E-06,  avg # of iterations = 17.0

     total cpu time spent up to now is      200.7 secs

     total energy              =     -95.63178173 Ry
     estimated scf accuracy    <       0.02911578 Ry

     iteration #  2     ecut=    80.00 Ry     beta= 0.80
     Davidson diagonalization with overlap
     ethr =  7.66E-05,  avg # of iterations =  6.2

     total cpu time spent up to now is      206.8 secs

     total energy              =     -95.57588957 Ry
     estimated scf accuracy    <       0.62632578 Ry

     iteration #  3     ecut=    80.00 Ry     beta= 0.80
     Davidson diagonalization with overlap
     ethr =  7.66E-05,  avg # of iterations =  5.7

     total cpu time spent up to now is      212.4 secs

     total energy              =     -95.64069425 Ry
     estimated scf accuracy    <       0.03799196 Ry

     iteration #  4     ecut=    80.00 Ry     beta= 0.80
     Davidson diagonalization with overlap
     ethr =  7.66E-05,  avg # of iterations =  2.0

     total cpu time spent up to now is      216.4 secs

     total energy              =     -95.64473612 Ry
     estimated scf accuracy    <       0.00236393 Ry

     iteration #  5     ecut=    80.00 Ry     beta= 0.80
     Davidson diagonalization with overlap
     ethr =  6.22E-06,  avg # of iterations =  4.4

     total cpu time spent up to now is      221.0 secs

     total energy              =     -95.64524774 Ry
     estimated scf accuracy    <       0.00002014 Ry

     iteration #  6     ecut=    80.00 Ry     beta= 0.80
     Davidson diagonalization with overlap
     ethr =  5.30E-08,  avg # of iterations =  5.8

     total cpu time spent up to now is      226.9 secs

     total energy              =     -95.64527616 Ry
     estimated scf accuracy    <       0.00003856 Ry

     iteration #  7     ecut=    80.00 Ry     beta= 0.80
     Davidson diagonalization with overlap
     ethr =  5.30E-08,  avg # of iterations =  2.0

     total cpu time spent up to now is      230.4 secs

     total energy              =     -95.64527678 Ry
     estimated scf accuracy    <       0.00000640 Ry

     iteration #  8     ecut=    80.00 Ry     beta= 0.80
     Davidson diagonalization with overlap
     ethr =  1.68E-08,  avg # of iterations =  3.1

     total cpu time spent up to now is      234.4 secs

     total energy              =     -95.64527786 Ry
     estimated scf accuracy    <       0.00000040 Ry

     iteration #  9     ecut=    80.00 Ry     beta= 0.80
     Davidson diagonalization with overlap
     ethr =  1.04E-09,  avg # of iterations =  4.1

     total cpu time spent up to now is      238.6 secs

     total energy              =     -95.64527790 Ry
     estimated scf accuracy    <       0.00000025 Ry

     iteration # 10     ecut=    80.00 Ry     beta= 0.80
     Davidson diagonalization with overlap
     ethr =  6.49E-10,  avg # of iterations =  1.4

     total cpu time spent up to now is      242.0 secs

     total energy              =     -95.64527790 Ry
     estimated scf accuracy    <       0.00000004 Ry

     iteration # 11     ecut=    80.00 Ry     beta= 0.80
     Davidson diagonalization with overlap
     ethr =  1.12E-10,  avg # of iterations =  3.9

     total cpu time spent up to now is      246.1 secs

     End of self-consistent calculation

          k = 0.0000 0.0000 0.0000 (  9379 PWs)   bands (ev):

   -36.5181 -36.2825  -4.9559  -3.6532  -1.3734   1.7549   3.9935   6.7212
     6.7212   7.1059   7.1059   7.9937   7.9937   8.5442   9.2003   9.2900
     9.2900   9.8872  10.3797  10.9958  11.1076  11.1076  12.4133

          k =-0.3511-0.2027 0.0445 (  9367 PWs)   bands (ev):

   -36.5077 -36.2928  -4.6907  -3.3949  -1.1356   1.9748   3.9922   4.7642
     5.5568   5.7695   6.7671   6.7721   8.2943   8.3813   8.6796   9.7654
     9.7845  10.1722  10.7847  11.4903  11.5007  11.6527  12.0931

          k =-0.7021-0.4054 0.0889 (  9362 PWs)   bands (ev):

   -36.4797 -36.3205  -3.9041  -2.6387  -0.4996   1.8179   2.7788   3.0019
     4.4838   4.8706   5.4559   5.9540   6.8503   7.9366   8.0522   8.8256
     9.5909   9.9351   9.9523  11.6330  12.4553  12.9885  13.2577

          k =-1.0532-0.6081 0.1334 (  9378 PWs)   bands (ev):

   -36.4463 -36.3537  -2.6441  -1.6115  -0.6960   0.8381   1.2488   2.7344
     3.9475   4.4012   5.3961   5.4993   6.1252   7.1227   7.7290   7.9316
     8.7567   9.6590   9.7940  11.0700  12.2455  13.2461  14.0352

          k =-0.3511 0.2027 0.0889 (  9382 PWs)   bands (ev):

   -36.5077 -36.2928  -4.6905  -3.3962  -1.1310   1.9569   3.9931   4.8067
     5.5548   5.7625   6.7860   6.7938   8.2482   8.2534   8.6449   9.7894
     9.8430  10.4327  10.7516  11.1721  11.4661  11.6589  12.1847

          k =-0.7021-0.0000 0.1334 (  9351 PWs)   bands (ev):

   -36.4884 -36.3119  -4.1638  -2.8891  -0.6767   2.2925   3.0680   3.5053
     4.2338   5.0008   5.1932   6.4413   6.9962   8.4832   8.8124   9.0822
    10.1038  10.3529  10.4573  11.1586  11.2211  12.4439  12.7101

          k =-1.0532-0.2027 0.1778 (  9361 PWs)   bands (ev):

   -36.4555 -36.3445  -3.1327  -1.9330  -0.1526   1.2453   1.8366   2.6294
     3.3579   4.2232   4.5113   5.8075   6.4747   7.0699   8.3370   8.9302
     9.2780  10.3159  10.4321  11.3881  12.2584  12.7258  13.0536

          k = 1.0532 1.0135-0.0889 (  9361 PWs)   bands (ev):

   -36.4314 -36.3685  -1.8220  -1.6183  -0.6577   0.4954   1.6466   2.0220
     3.3012   3.5677   4.9227   5.4790   5.9366   6.8912   8.1201   8.4080
     8.8483   9.9762  10.6567  11.6100  12.3053  12.5131  13.6061

          k = 0.7021 0.8108-0.0445 (  9378 PWs)   bands (ev):

   -36.4555 -36.3445  -3.1348  -1.9238  -0.1699   1.2403   1.8329   2.6030
     3.4617   4.3105   4.5106   5.5847   6.4297   6.9740   8.4603   8.9241
     9.4960  10.3818  10.5723  11.3645  12.3308  12.5458  13.0101

          k = 0.3511 0.6081 0.0000 (  9349 PWs)   bands (ev):

   -36.4883 -36.3119  -4.1648  -2.8847  -0.6909   2.3393   3.0595   3.5261
     4.2340   4.9037   5.1744   6.4491   6.9988   8.6169   8.7379   9.1912
    10.1350  10.3848  10.4438  10.9680  11.1927  12.5372  12.7113

          k =-0.7021 0.4054 0.1778 (  9389 PWs)   bands (ev):

   -36.4797 -36.3205  -3.9028  -2.6447  -0.4815   1.8414   2.6603   2.9628
     4.7451   4.8565   5.4698   6.0125   6.6989   7.7650   7.8826   8.8974
     9.4069  10.2205  10.3496  11.9110  12.0003  12.8170  13.3609

          k =-1.0532 0.2027 0.2223 (  9374 PWs)   bands (ev):

   -36.4555 -36.3445  -3.1318  -1.9371  -0.1461   1.2647   1.8211   2.5683
     3.4196   4.2544   4.5264   5.6948   6.5424   6.8827   8.7777   8.8693
     9.4474   9.9990  10.3874  11.3519  12.2957  12.7339  12.8113

          k = 1.0532 1.4188-0.0445 (  9342 PWs)   bands (ev):

   -36.4217 -36.3782  -1.9068  -1.0271  -0.4504   0.6299   1.2292   2.2051
     2.2534   3.5502   4.3962   4.8124   6.2615   7.2100   7.5217   8.7120
     9.7506  10.7777  11.5585  12.0966  12.3130  12.7324  13.4744

          k = 0.7021 1.2162 0.0000 (  9338 PWs)   bands (ev):

   -36.4217 -36.3782  -1.9132  -1.0026  -0.4639   0.6322   1.2241   2.1598
     2.2111   3.6804   4.3879   5.0919   5.8773   7.1549   7.2304   9.2818
     9.6609  11.1185  11.5010  12.2823  12.4749  12.6680  12.8698

          k =-1.0532 0.6081 0.2667 (  9345 PWs)   bands (ev):

   -36.4463 -36.3537  -2.6413  -1.6177  -0.7021   0.8242   1.3054   2.8212
     3.6821   4.3830   5.2961   5.5763   6.6013   7.1195   7.4890   7.8486
     8.8426   9.3708  10.1560  11.4134  12.0316  12.8105  13.1780

          k = 1.0532 1.8242 0.0000 (  9362 PWs)   bands (ev):

   -36.4314 -36.3685  -1.8301  -1.5959  -0.6938   0.4942   1.6494   2.1725
     3.2000   3.6129   4.5040   5.6443   5.8214   7.7553   7.9185   8.6418
     8.7684   9.8335   9.8585  11.5986  12.2234  12.4343  13.7591

          k =-0.0000 0.0000 0.1334 (  9379 PWs)   bands (ev):

   -36.5181 -36.2825  -4.9552  -3.6567  -1.3608   1.7019   4.0884   6.7229
     6.7229   7.1016   7.1016   7.9966   7.9966   8.3229   9.2784   9.2998
     9.2998   9.7893  10.4473  11.0824  11.0824  11.2209  12.3787

[...]

     total cpu time spent up to now is     1280.9 secs

     total energy              =     -95.95657452 Ry
     estimated scf accuracy    <       0.00650605 Ry

     iteration #  5     ecut=    80.00 Ry     beta= 0.80
     Davidson diagonalization with overlap
     ethr =  1.71E-05,  avg # of iterations =  2.3

     total cpu time spent up to now is     1283.7 secs

     total energy              =     -95.95707702 Ry
     estimated scf accuracy    <       0.00106540 Ry

     iteration #  6     ecut=    80.00 Ry     beta= 0.80
     Davidson diagonalization with overlap
     ethr =  2.80E-06,  avg # of iterations =  5.4

     total cpu time spent up to now is     1287.0 secs

     total energy              =     -95.95716125 Ry
     estimated scf accuracy    <       0.00015066 Ry

     iteration #  7     ecut=    80.00 Ry     beta= 0.80
     Davidson diagonalization with overlap
     ethr =  3.96E-07,  avg # of iterations =  3.9

     total cpu time spent up to now is     1290.2 secs

     total energy              =     -95.95719609 Ry
     estimated scf accuracy    <       0.00000424 Ry

     iteration #  8     ecut=    80.00 Ry     beta= 0.80
     Davidson diagonalization with overlap
     ethr =  1.12E-08,  avg # of iterations =  5.0

     total cpu time spent up to now is     1293.9 secs

     total energy              =     -95.95721480 Ry
     estimated scf accuracy    <       0.00000559 Ry

     iteration #  9     ecut=    80.00 Ry     beta= 0.80
     Davidson diagonalization with overlap
     ethr =  1.12E-08,  avg # of iterations =  1.0

     total cpu time spent up to now is     1296.4 secs

     total energy              =     -95.95721344 Ry
     estimated scf accuracy    <       0.00000494 Ry

     iteration # 10     ecut=    80.00 Ry     beta= 0.80
     Davidson diagonalization with overlap
     ethr =  1.12E-08,  avg # of iterations =  2.0

     total cpu time spent up to now is     1299.2 secs

     total energy              =     -95.95721375 Ry
     estimated scf accuracy    <       0.00000039 Ry

     iteration # 11     ecut=    80.00 Ry     beta= 0.80
     Davidson diagonalization with overlap
     ethr =  1.03E-09,  avg # of iterations =  4.0

     total cpu time spent up to now is     1302.5 secs

     total energy              =     -95.95721381 Ry
     estimated scf accuracy    <       0.00000009 Ry

     iteration # 12     ecut=    80.00 Ry     beta= 0.80
     Davidson diagonalization with overlap
     ethr =  2.26E-10,  avg # of iterations =  2.2

     total cpu time spent up to now is     1305.2 secs

     total energy              =     -95.95721380 Ry
     estimated scf accuracy    <       0.00000005 Ry

     iteration # 13     ecut=    80.00 Ry     beta= 0.80
     Davidson diagonalization with overlap
     ethr =  1.38E-10,  avg # of iterations =  2.8

     total cpu time spent up to now is     1308.1 secs

     total energy              =     -95.95721381 Ry
     estimated scf accuracy    <          2.4E-09 Ry

     iteration # 14     ecut=    80.00 Ry     beta= 0.80
     Davidson diagonalization with overlap
     ethr =  6.24E-12,  avg # of iterations =  5.3

     total cpu time spent up to now is     1311.7 secs

     total energy              =     -95.95721381 Ry
     estimated scf accuracy    <          4.0E-09 Ry

     iteration # 15     ecut=    80.00 Ry     beta= 0.80
     Davidson diagonalization with overlap
     ethr =  6.24E-12,  avg # of iterations =  2.2

     total cpu time spent up to now is     1314.5 secs

     End of self-consistent calculation

          k = 0.0000 0.0000 0.0000 (  8509 PWs)   bands (ev):

   -32.8735 -32.7399  -3.3009  -1.0162   0.9537   6.2003   6.6095   8.5280
     8.5280   8.6057   8.6057   9.7798   9.7798  10.2850  10.4353  10.5896
    10.5896  11.5944  12.5016  12.5016  13.2255  13.2595  13.2595

          k =-0.3405-0.1966 0.0556 (  8485 PWs)   bands (ev):

   -32.8674 -32.7456  -3.0414  -0.7701   1.1796   5.8252   6.1979   6.8396
     7.1219   7.7151   8.1276   8.6481  10.0849  10.4258  10.4825  11.6232
    11.7788  12.0471  12.4230  12.9555  13.4037  13.5225  13.8690

          k =-0.6811-0.3932 0.1111 (  8450 PWs)   bands (ev):

   -32.8511 -32.7610  -2.2658  -0.0365   1.7958   3.1844   5.0327   6.1597
     6.3321   7.0297   7.2738   7.6615   8.8293   9.2726  10.7548  10.8201
    12.3533  12.5922  12.9278  14.0696  14.5856  15.0644  15.3870

          k =-1.0216-0.5898 0.1667 (  8418 PWs)   bands (ev):

   -32.8319 -32.7795  -0.9851   0.7809   1.1660   2.6269   3.2454   5.2490
     5.6790   6.7967   7.1599   7.1865   8.3492   9.1462  10.3078  10.4470
    11.7292  11.8778  13.5246  14.4662  15.7426  16.9047  17.7691

          k =-0.3405 0.1966 0.1111 (  8457 PWs)   bands (ev):

   -32.8674 -32.7456  -3.0384  -0.7962   1.2379   5.7762   5.8831   7.0777
     7.2436   7.6510   8.1132   8.8485  10.1526  10.5051  10.7129  11.0766
    11.7659  11.9778  12.1092  12.8186  13.2747  13.5412  14.5622

          k =-0.6811-0.0000 0.1667 (  8453 PWs)   bands (ev):

   -32.8561 -32.7562  -2.5175  -0.3333   1.7334   4.5606   4.6772   5.6312
     6.3575   6.8850   7.7664   9.1639   9.5724   9.9175  10.1892  10.9253
    11.4802  11.8087  13.2152  14.1834  14.7790  14.8465  15.1708

          k =-1.0216-0.1966 0.2223 (  8454 PWs)   bands (ev):

   -32.8372 -32.7743  -1.4846   0.6027   1.9391   2.8146   3.8595   4.2005
     5.4498   6.1827   6.8537   8.8313   9.1635   9.4415  10.4928  10.6651
    11.9492  12.5080  13.1567  14.3991  14.8499  15.4304  16.1665

          k = 1.0216 0.9830-0.1111 (  8426 PWs)   bands (ev):

   -32.8233 -32.7878  -0.0464   0.1189   1.9137   2.2590   3.4700   3.6315
     5.1786   5.4552   7.4753   8.1797   8.9674   9.0311  10.3040  10.6421
    11.6934  12.4762  14.2880  15.3911  15.6330  15.7891  16.6577

          k = 0.6811 0.7864-0.0556 (  8428 PWs)   bands (ev):

   -32.8372 -32.7743  -1.5011   0.7442   1.9173   2.5314   3.8723   4.0802
     5.6730   6.5016   7.4339   8.2619   8.9020   9.2864  10.0394  10.6310
    11.8974  12.5448  13.8022  14.5436  14.9445  15.7744  16.6868

          k = 0.3405 0.5898 0.0000 (  8461 PWs)   bands (ev):

   -32.8561 -32.7562  -2.5269  -0.2532   1.5596   4.5834   4.6792   5.9162
     6.5468   7.0941   7.1344   9.1288   9.6255   9.9022  10.1880  10.9587
    11.2748  11.6890  13.1127  14.3084  14.8863  14.9700  15.1898

          k =-0.6811 0.3932 0.2223 (  8472 PWs)   bands (ev):

   -32.8511 -32.7610  -2.2528  -0.1432   2.0674   3.1588   4.7127   6.0144
     6.0781   7.1180   8.0836   8.1990   8.4998   9.2616   9.7396  10.4263
    12.5378  12.9636  13.6121  14.0758  14.7955  15.4057  15.4381

          k =-1.0216 0.1966 0.2779 (  8448 PWs)   bands (ev):

   -32.8372 -32.7743  -1.4739   0.5191   2.1070   2.7635   3.8856   3.9839
     5.9674   6.1072   6.9492   7.8470   9.2007   9.3183  10.3939  11.3129
    12.5454  12.5888  13.4142  14.2139  14.4711  15.6008  16.6163

          k = 1.0216 1.3762-0.0556 (  8426 PWs)   bands (ev):

   -32.8178 -32.7932  -0.1909   1.4200   1.6148   1.6953   3.1903   3.9884
     4.2636   5.5054   6.8025   6.8825   9.1552  10.9601  11.3799  12.0553
    12.1046  12.8403  13.8627  14.1624  14.5315  15.4041  16.0218

          k = 0.6811 1.1796 0.0000 (  8404 PWs)   bands (ev):

   -32.8178 -32.7932  -0.2357   1.5709   1.5809   1.9844   2.6708   3.9258
     4.0088   6.1808   6.5338   7.6904   8.8165  10.2825  10.5454  12.0970
    12.1091  13.7854  14.2279  14.3141  14.3632  15.3788  16.4031

          k =-1.0216 0.5898 0.3334 (  8439 PWs)   bands (ev):

   -32.8319 -32.7795  -0.9512   0.8503   0.8762   2.6843   3.6837   5.4322
     5.5762   6.1270   6.8754   7.7422   8.3999   9.0353   9.3992  10.0419
    12.5365  13.8251  14.2815  15.3571  15.7262  15.9388  16.0178

          k = 1.0216 1.7694 0.0000 (  8428 PWs)   bands (ev):

   -32.8233 -32.7878   0.0594   0.0985   1.4094   2.4467   3.4576   4.7409
     4.7449   5.8031   6.2636   7.6003   8.8348   9.0107  11.1088  11.3839
    12.8845  12.9649  13.1309  15.1145  15.6329  15.7111  16.1065

          k =-0.0000 0.0000 0.1667 (  8488 PWs)   bands (ev):

   -32.8735 -32.7399  -3.2926  -1.0859   1.1142   5.3357   7.5651   8.4970
     8.4970   8.6156   8.6156   9.8279   9.8279  10.2752  10.4378  10.6627
    10.6627  11.6089  12.1438  12.1438  13.1527  13.5673  13.5673

          k =-0.3405-0.1966 0.2223 (  8468 PWs)   bands (ev):

   -32.8674 -32.7456  -3.0277  -0.8797   1.4400   5.1852   5.8247   7.1357
     7.6671   8.0726   8.1368   8.5991  10.0050  10.2030  10.4325  11.7177
    11.7560  12.3989  12.5664  13.1273  13.3685  13.5449  13.7042

          k =-0.6811-0.3932 0.2779 (  8457 PWs)   bands (ev):

   -32.8511 -32.7610  -2.2463  -0.1861   2.1268   3.1968   5.2203   5.3866
     6.1591   6.8878   7.3790   7.6648   9.3047   9.7493  10.7768  11.1447
    12.4661  12.5560  12.8970  13.8067  14.1807  14.7390  15.0910

          k = 1.3621 0.7864-0.0556 (  8438 PWs)   bands (ev):

   -32.8319 -32.7795  -0.9582   0.7341   1.0063   3.0207   3.3445   4.9691
     5.6635   6.4688   6.8244   7.2205   8.8092   9.5529  10.1786  10.7223
    11.3821  12.2229  13.3976  14.3174  15.6885  16.5896  17.2422

          k = 1.0216 0.5898 0.0000 (  8435 PWs)   bands (ev):

   -32.8319 -32.7795  -0.9941   0.8169   1.2382   2.3901   3.2427   5.6031
     5.6503   6.7440   7.2756   7.3513   8.1623   8.9932   9.7455  10.0007
    12.0977  12.4418  14.1864  14.5961  15.7961  16.9498  17.0810

          k = 0.6811 0.3932 0.0556 (  8457 PWs)   bands (ev):

   -32.8511 -32.7610  -2.2685  -0.0135   1.7638   3.1788   4.8594   6.1212
     6.7037   7.1191   7.4461   7.8257   8.4461   9.2131  10.2840  10.4051
    12.5751  12.9393  12.9662  14.1047  14.8814  15.0980  15.6846

          k =-0.3405 0.1966 0.2779 (  8451 PWs)   bands (ev):

   -32.8674 -32.7456  -3.0207  -0.9297   1.5819   4.8575   5.8624   7.0400
     7.5386   8.0942   8.5021   9.1039  10.2244  10.3742  10.5289  10.7205
    11.7356  12.0305  12.3745  12.7216  13.0173  13.3752  14.9368

          k =-0.6811 0.0000 0.3334 (  8461 PWs)   bands (ev):

   -32.8561 -32.7562  -2.4957  -0.4869   2.1570   4.4567   4.6653   4.9780
     6.3519   6.9657   8.0022   9.2054   9.7852   9.9196  10.1802  11.3088
    11.6550  12.0465  13.3485  13.8010  14.2407  14.6676  14.9370

          k = 1.3621 1.1796 0.0000 (  8440 PWs)   bands (ev):

   -32.8372 -32.7743  -1.4581   0.4261   1.9922   3.2738   3.8200   4.2761
     5.0622   6.0604   6.4788   8.4558   9.2420  10.4730  10.8073  11.1141
    12.1704  12.3385  12.5955  14.1482  14.8294  14.8588  15.6614

          k = 1.0216 0.9830 0.0556 (  8421 PWs)   bands (ev):

   -32.8233 -32.7878  -0.0178   0.1195   1.6636   2.4182   3.4399   3.8357
     5.3169   5.5253   6.7798   8.0138   9.0033   9.4440  10.2432  10.6756
    11.8498  13.1650  14.2450  15.1067  15.4899  15.6461  16.0856

          k = 0.6811 0.7864 0.1111 (  8436 PWs)   bands (ev):

   -32.8372 -32.7743  -1.4965   0.6955   2.0306   2.4817   3.8725   4.0010
     5.8567   6.6423   7.3045   7.9046   8.8979   9.2784   9.8795  11.0212
    12.0722  12.5576  13.7320  14.5311  15.3752  15.6944  16.3639

          k =-0.6811 0.3932 0.3890 (  8456 PWs)   bands (ev):

   -32.8511 -32.7610  -2.2292  -0.2957   2.5528   3.1208   4.4711   5.5163
     6.0601   7.0461   7.8495   8.2451   9.3404   9.4731   9.5695  10.8467
    12.6010  12.9383  13.5587  14.1128  14.2588  15.3128  15.4473

          k = 1.3621 1.5728 0.0556 (  8440 PWs)   bands (ev):

   -32.8372 -32.7743  -1.4489   0.3720   2.0840   3.2522   3.9416   3.9855
     5.2690   6.1410   6.6605   7.8248   9.2477   9.9018  11.0539  11.5353
    12.5361  12.9137  13.1964  13.3154  14.2644  14.9418  15.9076

          k = 1.0216 1.3762 0.1111 (  8434 PWs)   bands (ev):

   -32.8178 -32.7932  -0.1633   1.3205   1.6195   1.6358   3.4531   3.9059
     4.6619   5.1141   6.5911   6.6685   9.6590  10.7617  11.7855  12.0855
    12.1189  13.4244  13.4346  13.9349  14.2518  15.2497  15.4143

          k = 0.6811 1.1796 0.1667 (  8419 PWs)   bands (ev):

   -32.8178 -32.7932  -0.2225   1.5214   1.6039   1.8508   2.8620   3.9790
     4.0423   5.8833   6.7590   7.3657   8.9211  10.3310  11.0490  12.0714
    12.1116  13.2910  13.8137  14.2250  15.2783  15.3852  15.7781

          k = 1.3621-0.7864-0.2779 (  8442 PWs)   bands (ev):

   -32.8319 -32.7795  -0.9292   0.7234   0.8734   2.8819   4.1052   4.7234
     5.5821   5.9843   6.8522   7.6874   8.6916   9.1197   9.5844  10.3297
    12.7371  13.2580  14.0859  14.7512  15.3138  16.0714  16.1235

          k = 1.0216-0.9830-0.2223 (  8421 PWs)   bands (ev):

   -32.8233 -32.7878   0.0276   0.1124   1.4773   2.4528   3.4515   4.2188
     5.2236   5.6938   6.3398   7.7212   8.9921   9.0968  10.8792  11.0083
    12.2757  13.1768  14.0400  14.9242  15.2934  15.6311  16.0373

          k = 1.0216-0.5898-0.1667 (  8434 PWs)   bands (ev):

   -32.8319 -32.7795  -0.9798   0.8423   1.0870   2.4786   3.3640   5.6045
     5.8623   6.3950   6.9428   7.5174   8.3441   9.2498   9.4221   9.5832
    12.2770  13.3403  14.4488  15.2994  15.8315  16.1955  16.5400

          k =-0.0000 0.0000 0.3334 (  8479 PWs)   bands (ev):

   -32.8735 -32.7399  -3.2730  -1.2228   1.5075   4.4276   8.4555   8.4555
     8.6067   8.6067   8.7580   9.9842   9.9842  10.2556  10.4414  10.7856
    10.7856  11.5976  11.6932  11.6932  12.7228  13.5494  13.6311

          k =-0.3405-0.1966 0.3890 (  8461 PWs)   bands (ev):

   -32.8674 -32.7456  -3.0067  -1.0179   1.8818   4.3357   5.8048   7.1057
     7.9075   8.0951   8.7242   8.8083  10.1397  10.2780  10.3865  11.3381
    11.6667  12.2067  12.5809  12.9801  13.2893  13.8837  13.9860

          k = 1.7027 0.9830 0.0556 (  8454 PWs)   bands (ev):

   -32.8511 -32.7610  -2.2237  -0.3251   2.5637   3.2360   4.5703   5.3530
     6.1202   6.8152   7.4425   7.8347   9.3586  10.2327  10.8060  11.1617
    12.2945  12.8856  13.2468  13.5557  13.7561  14.5125  14.9614

          k = 1.3621 0.7864 0.1111 (  8435 PWs)   bands (ev):

   -32.8319 -32.7795  -0.9325   0.6928   0.9087   3.0407   3.8482   4.7097
     5.6190   6.0148   6.8363   7.4315   8.8709   9.5951  10.0576  10.1685
    12.0004  13.0875  13.7666  13.9536  15.6121  16.1652  17.1099

          k =-0.3405 0.1966 0.4446 (  8465 PWs)   bands (ev):

   -32.8674 -32.7456  -3.0007  -1.0526   2.0355   4.0950   5.8376   7.0328
     7.6819   8.0761   9.1848   9.4769  10.0731  10.2318  10.4280  10.6969
    11.7053  12.2029  12.2425  12.6983  13.0605  13.2305  14.6483

          k = 1.7027 1.3762 0.1111 (  8470 PWs)   bands (ev):

   -32.8561 -32.7562  -2.4773  -0.5932   2.6158   4.0791   4.6569   4.6952
     6.4409   6.9820   8.0766   8.8747   9.8708  10.0375  10.9224  11.5760
    11.8530  12.1532  12.7456  13.6004  13.9682  14.4459  14.6829

          k = 1.3621 1.1796 0.1667 (  8458 PWs)   bands (ev):

   -32.8372 -32.7743  -1.4414   0.3352   2.0399   3.5985   3.8366   4.1330
     4.8549   6.1061   6.4427   8.0531   9.2464  10.6581  11.1019  11.4717
    12.4299  12.5133  12.6180  13.7167  14.2800  14.7913  15.5402

          k = 1.7027-0.9830-0.2223 (  8453 PWs)   bands (ev):

   -32.8511 -32.7610  -2.2157  -0.3687   2.8334   3.1895   4.2051   5.3868
     6.0773   6.9108   7.5757   8.0943   9.3753   9.7077  10.5106  11.3580
    12.4409  12.9042  12.9417  14.0834  14.1353  14.7356  14.7519

          k = 0.0000-0.0000 0.5002 (  8454 PWs)   bands (ev):

   -32.8735 -32.7399  -3.2567  -1.3193   1.9171   3.7780   8.4343   8.4343
     8.5863   8.5863   9.9466  10.2114  10.2114  10.2418  10.4429  10.7192
    10.7192  11.1932  11.5255  11.5255  12.1575  13.3920  13.3920

          k = 2.0432 1.1796 0.1667 (  8454 PWs)   bands (ev):

   -32.8674 -32.7456  -2.9942  -1.0882   2.2262   3.8333   5.8121   7.0601
     7.8633   8.0629   8.9708   9.3234  10.1788  10.3247  10.9032  11.0374
    11.1461  11.8428  12.4349  12.8046  13.1843  13.7233  14.4242

     the Fermi energy is    13.5423 ev

!    total energy              =     -95.95721381 Ry
     estimated scf accuracy    <          4.9E-11 Ry
     smearing contrib. (-TS)   =       0.00071557 Ry
     internal energy E=F+TS    =     -95.95792938 Ry

     The total energy is F=E-TS. E is the sum of the following terms:
     one-electron contribution =      33.46194524 Ry
     hartree contribution      =       5.92828026 Ry
     xc contribution           =     -33.70441017 Ry
     ewald contribution        =    -101.64374470 Ry

     convergence has been achieved in  15 iterations

     Forces acting on atoms (cartesian axes, Ry/au):

     atom    1 type  1   force =    -0.00000000    0.00000000   -0.00080286
     atom    2 type  1   force =     0.00000000    0.00000000    0.00080286
     atom    3 type  2   force =    -0.00000000    0.00000000   -0.00021247
     atom    4 type  2   force =    -0.00000000    0.00000000    0.00021247
     atom    5 type  2   force =     0.00000000   -0.00000000    0.00039960
     atom    6 type  2   force =    -0.00000000    0.00000000   -0.00039960
     atom    7 type  2   force =    -0.00000000   -0.00000000    0.00048282
     atom    8 type  2   force =    -0.00000000    0.00000000   -0.00048282
     atom    9 type  2   force =    -0.00000000   -0.00000000   -0.00055215
     atom   10 type  2   force =     0.00000000   -0.00000000    0.00055215

     Total force =     0.001666     Total SCF correction =     0.000017


     Computing stress (Cartesian axis) and pressure

          total   stress  (Ry/bohr**3)                   (kbar)     P=      500.16
   0.00340068   0.00000000   0.00000000          500.26        0.00        0.00
   0.00000000   0.00340068   0.00000000            0.00      500.26        0.00
   0.00000000   0.00000000   0.00339868            0.00        0.00      499.96


     Writing all to output data dir ./output/LiSi.save/ :
     XML data file, charge density, pseudopotentials, collected wavefunctions

     init_run     :      4.36s CPU      4.58s WALL (       2 calls)
     electrons    :   1208.94s CPU   1235.18s WALL (      26 calls)
     update_pot   :      1.00s CPU      1.13s WALL (      24 calls)
     forces       :      8.18s CPU      8.50s WALL (      26 calls)
     stress       :     65.73s CPU     66.48s WALL (      26 calls)

     Called by init_run:
     wfcinit      :      3.48s CPU      3.55s WALL (       2 calls)
     potinit      :      0.08s CPU      0.09s WALL (       2 calls)
     hinit0       :      0.72s CPU      0.86s WALL (       2 calls)

     Called by electrons:
     c_bands      :   1064.18s CPU   1086.12s WALL (     252 calls)
     sum_band     :    136.05s CPU    138.52s WALL (     252 calls)
     v_of_rho     :      8.97s CPU      9.73s WALL (     272 calls)
     mix_rho      :      0.35s CPU      0.58s WALL (     252 calls)

     Called by c_bands:
     init_us_2    :      9.22s CPU     10.41s WALL (   24552 calls)
     cegterg      :   1037.20s CPU   1053.69s WALL (   11088 calls)

     Called by *egterg:
     cdiaghg      :     40.54s CPU     41.48s WALL (   61248 calls)
     h_psi        :    944.79s CPU    959.42s WALL (   62656 calls)
     g_psi        :      1.32s CPU      1.35s WALL (   51480 calls)

     Called by h_psi:
     h_psi:calbec :     48.25s CPU     49.13s WALL (   62656 calls)
     vloc_psi     :    856.37s CPU    869.53s WALL (   62656 calls)
     add_vuspsi   :     39.01s CPU     39.51s WALL (   62656 calls)

     General routines
     calbec       :     55.29s CPU     56.28s WALL (   68376 calls)
     fft          :      2.92s CPU      3.79s WALL (    3374 calls)
     ffts         :      0.19s CPU      0.25s WALL (     252 calls)
     fftw         :    868.22s CPU    881.18s WALL ( 1937518 calls)

     Parallel routines

     PWSCF        :   1288.89s CPU   1317.69s WALL


   This run was terminated on:  16:52:12  18Feb2025            

=------------------------------------------------------------------------------=
   JOB DONE.
=------------------------------------------------------------------------------=
