
     Program PWSCF v.7.2 starts on 29Dec2024 at 20:29:42 

     This program is part of the open-source Quantum ESPRESSO suite
     for quantum simulation of materials; please cite
         "P. Giannozzi et al., J. Phys.:Condens. Matter 21 395502 (2009);
         "P. Giannozzi et al., J. Phys.:Condens. Matter 29 465901 (2017);
         "P. Giannozzi et al., J. Chem. Phys. 152 154105 (2020);
          URL http://www.quantum-espresso.org", 
     in publications or presentations arising from this work. More details at
     http://www.quantum-espresso.org/quote

     Parallel version (MPI & OpenMP), running on       8 processor cores
     Number of MPI processes:                 8
     Threads/MPI process:                     1

     MPI processes distributed on     1 nodes
     482252 MiB available memory on the printing compute node when the environment starts

     Waiting for input...
     Reading input from standard input

     Current dimensions of program PWSCF are:
     Max number of different atomic species (ntypx) = 10
     Max number of k-points (npk) =  40000
     Max angular momentum in pseudopotentials (lmaxx) =  4

     R & G space division:  proc/nbgrp/npool/nimage =       8
     Subspace diagonalization in iterative solution of the eigenvalue problem:
     a serial algorithm will be used


     Parallelization info
     --------------------
     sticks:   dense  smooth     PW     G-vecs:    dense   smooth      PW
     Min         212     212     65                 4660     4660     802
     Max         213     213     67                 4662     4662     803
     Sum        1701    1701    529                37291    37291    6423

     Using Slab Decomposition



     bravais-lattice index     =            7
     lattice parameter (alat)  =      10.5708  a.u.
     unit-cell volume          =     385.1551 (a.u.)^3
     number of atoms/cell      =            5
     number of atomic types    =            2
     number of electrons       =        16.00
     number of Kohn-Sham states=           12
     kinetic-energy cutoff     =      80.0000  Ry
     charge density cutoff     =     320.0000  Ry
     scf convergence threshold =      1.0E-08
     mixing beta               =       0.7000
     number of iterations used =            8  plain     mixing
     energy convergence thresh.=      1.0E-04
     force convergence thresh. =      1.0E-03
     press convergence thresh. =      1.0E+00
     Exchange-correlation= PBE
                           (   1   4   3   4   0   0   0)
     nstep                     =           50


     celldm(1)=  10.570826  celldm(2)=   0.000000  celldm(3)=   0.652137
     celldm(4)=   0.000000  celldm(5)=   0.000000  celldm(6)=   0.000000

     crystal axes: (cart. coord. in units of alat)
               a(1) = (   0.500000  -0.500000   0.326069 )  
               a(2) = (   0.500000   0.500000   0.326069 )  
               a(3) = (  -0.500000  -0.500000   0.326069 )  

     reciprocal axes: (cart. coord. in units 2 pi/alat)
               b(1) = (  1.000000 -1.000000  0.000000 )  
               b(2) = (  0.000000  1.000000  1.533420 )  
               b(3) = ( -1.000000  0.000000  1.533420 )  


     PseudoPot. # 1 for Li read from file:
     ../pseudo/Li_ONCV_PBE_sr.upf
     MD5 check sum: 50ff420e78310ffa21704f3361e624a4
     Pseudo is Norm-conserving, Zval =  3.0
     Generated using ONCVPSP code by D. R. Hamann
     Using radial grid of 1944 points,  4 beta functions with: 
                l(1) =   0
                l(2) =   0
                l(3) =   1
                l(4) =   1

     PseudoPot. # 2 for Si read from file:
     ../pseudo/Si_ONCV_PBE_sr.upf
     MD5 check sum: e543d271109d17c80368dfa7c482276d
     Pseudo is Norm-conserving + core correction, Zval =  4.0
     Generated using ONCVPSP code by D. R. Hamann
     Using radial grid of 1510 points,  6 beta functions with: 
                l(1) =   0
                l(2) =   0
                l(3) =   1
                l(4) =   1
                l(5) =   2
                l(6) =   2

     atomic species   valence    mass     pseudopotential
        Li             3.00     6.94100     Li( 1.00)
        Si             4.00    28.08550     Si( 1.00)

      8 Sym. Ops., with inversion, found



   Cartesian axes

     site n.     atom                  positions (alat units)
         1           Li  tau(   1) = (   0.1025200   0.2985040   0.3260685  )
         2           Li  tau(   2) = (   0.8974800   0.7014960   0.3260685  )
         3           Li  tau(   3) = (   0.7014960   0.1025200   0.3260685  )
         4           Li  tau(   4) = (   0.2985040   0.8974800   0.3260685  )
         5           Si  tau(   5) = (   0.0000000   0.0000000   0.0000000  )

     number of k points=    92  Marzari-Vanderbilt smearing, width (Ry)=  0.0200
                       cart. coord. in units 2pi/alat
        k(    1) = (   0.0000000   0.0000000   0.0000000), wk =   0.0178571
        k(    2) = (  -0.1428571   0.0000000   0.2190600), wk =   0.0357143
        k(    3) = (  -0.2857143   0.0000000   0.4381200), wk =   0.0357143
        k(    4) = (  -0.4285714   0.0000000   0.6571800), wk =   0.0357143
        k(    5) = (   0.0000000   0.2500000   0.3833550), wk =   0.0714286
        k(    6) = (  -0.1428571   0.2500000   0.6024150), wk =   0.0178571
        k(    7) = (  -0.2857143   0.2500000   0.8214750), wk =   0.0178571
        k(    8) = (  -0.4285714   0.2500000   1.0405350), wk =   0.0178571
        k(    9) = (   0.4285714   0.2500000  -0.2738250), wk =   0.0178571
        k(   10) = (   0.2857143   0.2500000  -0.0547650), wk =   0.0178571
        k(   11) = (   0.1428571   0.2500000   0.1642950), wk =   0.0178571
        k(   12) = (   0.0000000  -0.5000000  -0.7667100), wk =   0.0357143
        k(   13) = (  -0.1428571  -0.5000000  -0.5476500), wk =   0.0178571
        k(   14) = (  -0.2857143  -0.5000000  -0.3285900), wk =   0.0178571
        k(   15) = (  -0.4285714  -0.5000000  -0.1095300), wk =   0.0178571
        k(   16) = (   0.2500000  -0.2500000   0.0000000), wk =   0.0357143
        k(   17) = (   0.1071429  -0.2500000   0.2190600), wk =   0.0178571
        k(   18) = (  -0.0357143  -0.2500000   0.4381200), wk =   0.0178571
        k(   19) = (  -0.1785714  -0.2500000   0.6571800), wk =   0.0178571
        k(   20) = (   0.6785714  -0.2500000  -0.6571800), wk =   0.0178571
        k(   21) = (   0.5357143  -0.2500000  -0.4381200), wk =   0.0178571
        k(   22) = (   0.3928571  -0.2500000  -0.2190600), wk =   0.0178571
        k(   23) = (   0.1071429   0.0000000   0.6024150), wk =   0.0357143
        k(   24) = (  -0.0357143   0.0000000   0.8214750), wk =   0.0357143
        k(   25) = (  -0.1785714   0.0000000   1.0405350), wk =   0.0357143
        k(   26) = (   0.6785714   0.0000000  -0.2738250), wk =   0.0357143
        k(   27) = (   0.5357143   0.0000000  -0.0547650), wk =   0.0357143
        k(   28) = (   0.3928571   0.0000000   0.1642950), wk =   0.0357143
        k(   29) = (   0.2500000  -0.7500000  -0.7667100), wk =   0.0357143
        k(   30) = (   0.1071429  -0.7500000  -0.5476500), wk =   0.0178571
        k(   31) = (  -0.0357143  -0.7500000  -0.3285900), wk =   0.0178571
        k(   32) = (  -0.1785714  -0.7500000  -0.1095300), wk =   0.0178571
        k(   33) = (   0.6785714  -0.7500000  -1.4238900), wk =   0.0178571
        k(   34) = (   0.5357143  -0.7500000  -1.2048300), wk =   0.0178571
        k(   35) = (   0.3928571  -0.7500000  -0.9857700), wk =   0.0178571
        k(   36) = (   0.2500000  -0.5000000  -0.3833550), wk =   0.0357143
        k(   37) = (   0.1071429  -0.5000000  -0.1642950), wk =   0.0178571
        k(   38) = (  -0.0357143  -0.5000000   0.0547650), wk =   0.0178571
        k(   39) = (  -0.1785714  -0.5000000   0.2738250), wk =   0.0178571
        k(   40) = (   0.6785714  -0.5000000  -1.0405350), wk =   0.0178571
        k(   41) = (   0.5357143  -0.5000000  -0.8214750), wk =   0.0178571
        k(   42) = (   0.3928571  -0.5000000  -0.6024150), wk =   0.0178571
        k(   43) = (  -0.5000000   0.5000000   0.0000000), wk =   0.0178571
        k(   44) = (  -0.6428571   0.5000000   0.2190600), wk =   0.0178571
        k(   45) = (  -0.7857143   0.5000000   0.4381200), wk =   0.0178571
        k(   46) = (  -0.9285714   0.5000000   0.6571800), wk =   0.0178571
        k(   47) = (  -0.6428571   0.7500000   0.6024150), wk =   0.0178571
        k(   48) = (  -0.7857143   0.7500000   0.8214750), wk =   0.0178571
        k(   49) = (  -0.9285714   0.7500000   1.0405350), wk =   0.0178571
        k(   50) = (  -0.0714286   0.7500000  -0.2738250), wk =   0.0178571
        k(   51) = (  -0.2142857   0.7500000  -0.0547650), wk =   0.0178571
        k(   52) = (  -0.3571429   0.7500000   0.1642950), wk =   0.0178571
        k(   53) = (  -0.6428571   0.0000000  -0.5476500), wk =   0.0357143
        k(   54) = (  -0.7857143   0.0000000  -0.3285900), wk =   0.0357143
        k(   55) = (  -0.9285714   0.0000000  -0.1095300), wk =   0.0357143
        k(   56) = (   0.2500000  -0.1428571  -0.6024150), wk =   0.0178571
        k(   57) = (   0.2500000  -0.2857143  -0.8214750), wk =   0.0178571
        k(   58) = (   0.2500000  -0.4285714  -1.0405350), wk =   0.0178571
        k(   59) = (   0.2500000   0.4285714   0.2738250), wk =   0.0178571
        k(   60) = (   0.2500000   0.2857143   0.0547650), wk =   0.0178571
        k(   61) = (   0.2500000   0.1428571  -0.1642950), wk =   0.0178571
        k(   62) = (  -0.5000000  -0.1428571   0.5476500), wk =   0.0178571
        k(   63) = (  -0.5000000  -0.2857143   0.3285900), wk =   0.0178571
        k(   64) = (  -0.5000000  -0.4285714   0.1095300), wk =   0.0178571
        k(   65) = (  -0.2500000   0.1071429  -0.2190600), wk =   0.0178571
        k(   66) = (  -0.2500000  -0.0357143  -0.4381200), wk =   0.0178571
        k(   67) = (  -0.2500000  -0.1785714  -0.6571800), wk =   0.0178571
        k(   68) = (  -0.2500000   0.6785714   0.6571800), wk =   0.0178571
        k(   69) = (  -0.2500000   0.5357143   0.4381200), wk =   0.0178571
        k(   70) = (  -0.2500000   0.3928571   0.2190600), wk =   0.0178571
        k(   71) = (  -0.7500000   0.1071429   0.5476500), wk =   0.0178571
        k(   72) = (  -0.7500000  -0.0357143   0.3285900), wk =   0.0178571
        k(   73) = (  -0.7500000  -0.1785714   0.1095300), wk =   0.0178571
        k(   74) = (  -0.7500000   0.6785714   1.4238900), wk =   0.0178571
        k(   75) = (  -0.7500000   0.5357143   1.2048300), wk =   0.0178571
        k(   76) = (  -0.7500000   0.3928571   0.9857700), wk =   0.0178571
        k(   77) = (  -0.5000000   0.2500000   0.3833550), wk =   0.0357143
        k(   78) = (  -0.5000000   0.1071429   0.1642950), wk =   0.0178571
        k(   79) = (  -0.5000000  -0.0357143  -0.0547650), wk =   0.0178571
        k(   80) = (  -0.5000000  -0.1785714  -0.2738250), wk =   0.0178571
        k(   81) = (  -0.5000000   0.6785714   1.0405350), wk =   0.0178571
        k(   82) = (  -0.5000000   0.5357143   0.8214750), wk =   0.0178571
        k(   83) = (  -0.5000000   0.3928571   0.6024150), wk =   0.0178571
        k(   84) = (   0.5000000  -0.6428571  -0.2190600), wk =   0.0178571
        k(   85) = (   0.5000000  -0.7857143  -0.4381200), wk =   0.0178571
        k(   86) = (   0.5000000  -0.9285714  -0.6571800), wk =   0.0178571
        k(   87) = (   0.7500000  -0.6428571  -0.6024150), wk =   0.0178571
        k(   88) = (   0.7500000  -0.7857143  -0.8214750), wk =   0.0178571
        k(   89) = (   0.7500000  -0.9285714  -1.0405350), wk =   0.0178571
        k(   90) = (   0.7500000  -0.0714286   0.2738250), wk =   0.0178571
        k(   91) = (   0.7500000  -0.2142857   0.0547650), wk =   0.0178571
        k(   92) = (   0.7500000  -0.3571429  -0.1642950), wk =   0.0178571

     Dense  grid:    37291 G-vectors     FFT dimensions: (  48,  48,  48)

     Estimated max dynamical RAM per process >      25.32 MB

     Estimated total dynamical RAM >     202.53 MB

     Initial potential from superposition of free atoms

     starting charge      15.9811, renormalised to      16.0000
     Starting wfcs are   12 randomized atomic wfcs

     total cpu time spent up to now is        1.6 secs

     Self-consistent Calculation

     iteration #  1     ecut=    80.00 Ry     beta= 0.70
     Davidson diagonalization with overlap
     ethr =  1.00E-02,  avg # of iterations =  5.6

     Threshold (ethr) on eigenvalues was too large:
     Diagonalizing with lowered threshold

     Davidson diagonalization with overlap
     ethr =  2.29E-04,  avg # of iterations =  3.3

     total cpu time spent up to now is        4.7 secs

     total energy              =     -66.10454134 Ry
     estimated scf accuracy    <       0.03427533 Ry

     iteration #  2     ecut=    80.00 Ry     beta= 0.70
     Davidson diagonalization with overlap
     ethr =  2.14E-04,  avg # of iterations =  2.1

     total cpu time spent up to now is        6.0 secs

     total energy              =     -66.11002253 Ry
     estimated scf accuracy    <       0.01388989 Ry

     iteration #  3     ecut=    80.00 Ry     beta= 0.70
     Davidson diagonalization with overlap
     ethr =  8.68E-05,  avg # of iterations =  2.1

     total cpu time spent up to now is        7.3 secs

     total energy              =     -66.11284063 Ry
     estimated scf accuracy    <       0.00044457 Ry

     iteration #  4     ecut=    80.00 Ry     beta= 0.70
     Davidson diagonalization with overlap
     ethr =  2.78E-06,  avg # of iterations =  4.7

     total cpu time spent up to now is        8.7 secs

     total energy              =     -66.11287185 Ry
     estimated scf accuracy    <       0.00001186 Ry

     iteration #  5     ecut=    80.00 Ry     beta= 0.70
     Davidson diagonalization with overlap
     ethr =  7.41E-08,  avg # of iterations =  2.0

     total cpu time spent up to now is       10.0 secs

     total energy              =     -66.11287539 Ry
     estimated scf accuracy    <       0.00000039 Ry

     iteration #  6     ecut=    80.00 Ry     beta= 0.70
     Davidson diagonalization with overlap
     ethr =  2.44E-09,  avg # of iterations =  2.0

     total cpu time spent up to now is       11.2 secs

     total energy              =     -66.11287543 Ry
     estimated scf accuracy    <       0.00000003 Ry

     iteration #  7     ecut=    80.00 Ry     beta= 0.70
     Davidson diagonalization with overlap
     ethr =  1.64E-10,  avg # of iterations =  2.2

     total cpu time spent up to now is       12.5 secs

     End of self-consistent calculation

          k = 0.0000 0.0000 0.0000 (  4629 PWs)   bands (ev):

   -40.6298 -40.4867 -40.4837 -40.4837  -3.2526   4.3005   4.3005   5.3440
     6.3238   7.1421  10.1696  10.1696

          k =-0.1429 0.0000 0.2191 (  4649 PWs)   bands (ev):

   -40.6199 -40.4950 -40.4869 -40.4813  -3.0726   3.8304   4.0045   5.4012
     6.4037   6.6656   9.1883   9.3659

          k =-0.2857 0.0000 0.4381 (  4648 PWs)   bands (ev):

   -40.5936 -40.5061 -40.4966 -40.4852  -2.5680   3.1189   3.3716   3.9314
     6.2483   7.4588   8.3210   9.6377

          k =-0.4286 0.0000 0.6572 (  4657 PWs)   bands (ev):

   -40.5602 -40.5233 -40.5066 -40.4902  -1.9604   1.7806   3.0324   3.7801
     5.4124   7.6068   8.7963   9.8060

          k = 0.0000 0.2500 0.3834 (  4649 PWs)   bands (ev):

   -40.6013 -40.5033 -40.4936 -40.4838  -2.7185   3.3751   3.5590   4.1490
     6.4656   7.1927   8.4806   9.3226

          k =-0.1429 0.2500 0.6024 (  4662 PWs)   bands (ev):

   -40.5749 -40.5105 -40.5068 -40.4883  -2.1766   2.3137   3.3266   3.5572
     6.0268   7.3423   8.3369   9.5408

          k =-0.2857 0.2500 0.8215 (  4660 PWs)   bands (ev):

   -40.5454 -40.5293 -40.5168 -40.4887  -1.8075   1.6894   2.6938   3.3091
     6.0273   7.6025   9.0788  10.3430

          k =-0.4286 0.2500 1.0405 (  4662 PWs)   bands (ev):

   -40.5605 -40.5279 -40.5091 -40.4836  -2.1275   1.9673   2.6397   3.5241
     6.4488   7.7724   9.1007  11.7489

          k = 0.4286 0.2500-0.2738 (  4654 PWs)   bands (ev):

   -40.5894 -40.5245 -40.4924 -40.4764  -2.6748   1.8379   4.0228   4.3956
     6.6574   8.1190   9.0897  10.3332

          k = 0.2857 0.2500-0.0548 (  4658 PWs)   bands (ev):

   -40.6097 -40.5162 -40.4838 -40.4741  -3.0136   2.0970   4.4548   6.1305
     6.3789   8.7453   8.8184   9.5429

          k = 0.1429 0.2500 0.1643 (  4651 PWs)   bands (ev):

   -40.6143 -40.5068 -40.4841 -40.4782  -3.0296   2.7287   4.1937   5.6055
     6.5386   7.8755   8.6769  10.1907

          k = 0.0000-0.5000-0.7667 (  4662 PWs)   bands (ev):

   -40.5498 -40.5317 -40.5077 -40.4910  -1.8383   1.5504   2.9911   3.7922
     5.2740   7.5578   9.0242   9.7148

          k =-0.1429-0.5000-0.5476 (  4653 PWs)   bands (ev):

   -40.5638 -40.5240 -40.5050 -40.4879  -2.0906   2.1155   2.5300   3.9340
     5.5155   8.2571   8.9166  10.6530

          k =-0.2857-0.5000-0.3286 (  4660 PWs)   bands (ev):

   -40.5774 -40.5328 -40.4917 -40.4805  -2.5065   1.6592   3.6446   4.3491
     6.1255   8.2667   9.2813  10.9665

          k =-0.4286-0.5000-0.1095 (  4672 PWs)   bands (ev):

   -40.5825 -40.5439 -40.4832 -40.4740  -2.7607   1.2032   4.5807   5.5817
     6.9180   7.6905   8.5062   9.8707

          k = 0.2500-0.2500 0.0000 (  4653 PWs)   bands (ev):

   -40.6125 -40.5137 -40.4829 -40.4747  -3.0493   2.2250   4.4622   6.1617
     6.4710   8.5755   8.9134   9.4269

          k = 0.1071-0.2500 0.2191 (  4652 PWs)   bands (ev):

   -40.6127 -40.5038 -40.4891 -40.4776  -2.9812   2.9542   3.9755   5.2725
     6.5227   7.7171   8.9622   9.4611

          k =-0.0357-0.2500 0.4381 (  4653 PWs)   bands (ev):

   -40.5957 -40.5052 -40.4947 -40.4860  -2.5968   3.2286   3.4075   4.0998
     6.0829   7.3202   8.5165   9.3593

          k =-0.1786-0.2500 0.6572 (  4663 PWs)   bands (ev):

   -40.5671 -40.5160 -40.5079 -40.4892  -2.0404   2.0502   3.1652   3.5114
     5.9690   7.2218   8.9284   9.6641

          k = 0.6786-0.2500-0.6572 (  4657 PWs)   bands (ev):

   -40.5401 -40.5362 -40.5158 -40.4882  -1.8251   1.7614   2.4223   3.5007
     5.8171   7.9679   9.3111  10.2628

          k = 0.5357-0.2500-0.4381 (  4656 PWs)   bands (ev):

   -40.5672 -40.5308 -40.4995 -40.4839  -2.2677   1.8846   2.8527   4.0710
     5.8080   8.2747   9.7955  10.7961

          k = 0.3929-0.2500-0.2191 (  4651 PWs)   bands (ev):

   -40.5954 -40.5243 -40.4852 -40.4782  -2.7861   1.8433   4.1948   4.9805
     6.5633   8.1863   8.6345  10.6312

          k = 0.1071 0.0000 0.6024 (  4661 PWs)   bands (ev):

   -40.5817 -40.5039 -40.5000 -40.4949  -2.2701   2.6443   3.6451   3.7880
     5.5613   6.8857   8.6356   8.8445

          k =-0.0357 0.0000 0.8215 (  4638 PWs)   bands (ev):

   -40.5522 -40.5116 -40.5105 -40.5059  -1.8164   1.8981   3.1578   3.1689
     4.7793   7.9877   9.3100   9.3592

          k =-0.1786 0.0000 1.0405 (  4646 PWs)   bands (ev):

   -40.5375 -40.5228 -40.5175 -40.5032  -1.8889   2.1423   2.6192   2.7825
     4.5538   8.8408  10.0193  11.3867

          k = 0.6786 0.0000-0.2738 (  4645 PWs)   bands (ev):

   -40.5659 -40.5236 -40.5031 -40.4900  -2.3794   2.1960   2.5139   3.7854
     5.0315   9.5921  10.5430  11.3300

          k = 0.5357 0.0000-0.0548 (  4637 PWs)   bands (ev):

   -40.5915 -40.5190 -40.4948 -40.4783  -2.7835   2.2790   2.6826   5.4418
     5.9156   9.1814  10.2971  10.7615

          k = 0.3929 0.0000 0.1643 (  4654 PWs)   bands (ev):

   -40.6049 -40.5102 -40.4913 -40.4771  -2.9079   2.7367   3.1321   5.2844
     6.8596   8.4102   9.2291   9.8256

          k = 0.2500-0.7500-0.7667 (  4664 PWs)   bands (ev):

   -40.5520 -40.5241 -40.5150 -40.4891  -1.8426   1.7282   2.8749   3.3168
     5.9787   7.5672   8.9351   9.9291

          k = 0.1071-0.7500-0.5476 (  4651 PWs)   bands (ev):

   -40.5427 -40.5248 -40.5177 -40.4956  -1.8776   1.9373   2.6253   3.0566
     5.1390   8.0614   9.4805  11.5430

          k =-0.0357-0.7500-0.3286 (  4642 PWs)   bands (ev):

   -40.5540 -40.5259 -40.5053 -40.4969  -2.2115   2.1701   2.5241   3.3468
     4.6451   9.5215  10.7843  12.0307

          k =-0.1786-0.7500-0.1095 (  4653 PWs)   bands (ev):

   -40.5628 -40.5377 -40.4957 -40.4872  -2.5087   1.6183   2.8720   4.7069
     4.7921   9.7048  10.3516  12.1402

          k = 0.6786-0.7500-1.4239 (  4655 PWs)   bands (ev):

   -40.5715 -40.5393 -40.4915 -40.4811  -2.6092   1.4449   3.3791   4.9918
     5.3447   9.5275   9.6366  11.0759

          k = 0.5357-0.7500-1.2048 (  4653 PWs)   bands (ev):

   -40.5759 -40.5298 -40.4971 -40.4795  -2.4777   1.7315   3.6774   3.8170
     6.3635   8.1188   9.4386  11.0942

          k = 0.3929-0.7500-0.9858 (  4658 PWs)   bands (ev):

   -40.5692 -40.5192 -40.5096 -40.4829  -2.1582   2.1851   2.7957   3.4722
     7.2652   7.4925   8.2036  10.5036

          k = 0.2500-0.5000-0.3834 (  4658 PWs)   bands (ev):

   -40.5754 -40.5268 -40.4999 -40.4798  -2.4115   1.8652   3.4218   3.7508
     6.6534   7.9175   8.9801  11.0970

          k = 0.1071-0.5000-0.1643 (  4649 PWs)   bands (ev):

   -40.5922 -40.5190 -40.4948 -40.4773  -2.7593   2.0964   3.1844   4.9730
     6.2120   9.3440   9.6515  10.1954

          k =-0.0357-0.5000 0.0548 (  4642 PWs)   bands (ev):

   -40.5957 -40.5180 -40.4922 -40.4778  -2.8341   2.2890   2.8620   5.5678
     6.2008   8.8742  10.0168  10.6709

          k =-0.1786-0.5000 0.2738 (  4649 PWs)   bands (ev):

   -40.5847 -40.5258 -40.4887 -40.4834  -2.6133   1.8910   3.5687   4.3537
     6.1777   8.2856   9.4415  10.8716

          k = 0.6786-0.5000-1.0405 (  4661 PWs)   bands (ev):

   -40.5631 -40.5324 -40.5038 -40.4818  -2.1751   1.8903   2.6559   3.9150
     6.2192   8.6681   9.4771  10.2806

          k = 0.5357-0.5000-0.8215 (  4641 PWs)   bands (ev):

   -40.5379 -40.5343 -40.5257 -40.4822  -1.8075   1.8780   2.3994   2.8158
     7.8364   8.5534   9.3834   9.7901

          k = 0.3929-0.5000-0.6024 (  4647 PWs)   bands (ev):

   -40.5511 -40.5324 -40.5154 -40.4817  -1.9516   2.0047   2.2863   3.2660
     7.3322   8.4154   8.9707  10.5716

          k =-0.5000 0.5000 0.0000 (  4690 PWs)   bands (ev):

   -40.5829 -40.5457 -40.4821 -40.4731  -2.7940   1.1438   4.6642   6.0408
     7.1281   7.4077   8.3462   9.5889

          k =-0.6429 0.5000 0.2191 (  4655 PWs)   bands (ev):

   -40.5812 -40.5382 -40.4885 -40.4752  -2.6631   1.3868   4.3290   4.7162
     6.5421   8.0988   9.2502  10.0220

          k =-0.7857 0.5000 0.4381 (  4654 PWs)   bands (ev):

   -40.5723 -40.5229 -40.5046 -40.4818  -2.3073   2.0481   3.0730   3.5633
     6.7359   7.7549   8.6727  11.4747

          k =-0.9286 0.5000 0.6572 (  4662 PWs)   bands (ev):

   -40.5555 -40.5255 -40.5100 -40.4894  -1.9114   1.7055   3.0566   3.4311
     5.7445   7.5292   8.6901  10.2097

          k =-0.6429 0.7500 0.6024 (  4663 PWs)   bands (ev):

   -40.5654 -40.5213 -40.5088 -40.4850  -2.0657   2.1013   2.6933   3.5973
     6.3314   7.8649   9.2791   9.9318

          k =-0.7857 0.7500 0.8215 (  4660 PWs)   bands (ev):

   -40.5468 -40.5276 -40.5148 -40.4908  -1.8085   1.7002   2.7117   3.4483
     5.6328   7.6655   9.1190   9.9491

          k =-0.9286 0.7500 1.0405 (  4647 PWs)   bands (ev):

   -40.5444 -40.5267 -40.5117 -40.4982  -1.9474   2.1443   2.4183   3.1365
     4.8682   8.4099   9.9771  11.3757

          k =-0.0714 0.7500-0.2738 (  4644 PWs)   bands (ev):

   -40.5570 -40.5270 -40.5057 -40.4929  -2.2989   2.0412   2.5579   3.6688
     4.6395   9.9242  10.9211  11.5313

          k =-0.2143 0.7500-0.0548 (  4647 PWs)   bands (ev):

   -40.5652 -40.5389 -40.4952 -40.4843  -2.5552   1.5362   2.9881   4.8073
     5.0529   9.4437  10.4088  11.7380

          k =-0.3571 0.7500 0.1643 (  4660 PWs)   bands (ev):

   -40.5729 -40.5390 -40.4874 -40.4840  -2.5973   1.4620   3.5161   4.7739
     5.5655   9.0154   9.5951  11.3574

          k =-0.6429 0.0000-0.5476 (  4649 PWs)   bands (ev):

   -40.5525 -40.5232 -40.5120 -40.4931  -1.9565   1.9394   2.7597   3.1975
     5.4253   7.8437   9.0719  11.4371

          k =-0.7857 0.0000-0.3286 (  4643 PWs)   bands (ev):

   -40.5497 -40.5254 -40.5083 -40.4987  -2.1726   2.2260   2.4359   3.2761
     4.4500   9.8112  10.8278  12.1543

          k =-0.9286 0.0000-0.1095 (  4635 PWs)   bands (ev):

   -40.5384 -40.5325 -40.5193 -40.4931  -2.3153   2.0954   2.1272   3.6583
     4.4559   9.8939  12.5265  13.3027

          k = 0.2500-0.1429-0.6024 (  4662 PWs)   bands (ev):

   -40.5748 -40.5131 -40.5036 -40.4890  -2.1764   2.3096   3.1818   3.7848
     5.8548   7.2086   9.0177   9.4542

          k = 0.2500-0.2857-0.8215 (  4660 PWs)   bands (ev):

   -40.5452 -40.5299 -40.5162 -40.4888  -1.8075   1.6961   2.6356   3.3930
     5.9008   7.7926   9.0771  10.0736

          k = 0.2500-0.4286-1.0405 (  4662 PWs)   bands (ev):

   -40.5595 -40.5319 -40.5045 -40.4852  -2.1265   1.9676   2.4884   3.9233
     5.7341   8.2286   9.8707  11.1070

          k = 0.2500 0.4286 0.2738 (  4654 PWs)   bands (ev):

   -40.5891 -40.5264 -40.4877 -40.4796  -2.6742   1.8117   3.9847   4.6169
     6.3626   8.2871   8.7955  10.7081

          k = 0.2500 0.2857 0.0548 (  4658 PWs)   bands (ev):

   -40.6097 -40.5165 -40.4825 -40.4751  -3.0135   2.0932   4.4540   6.1496
     6.4406   8.5261   8.7335   9.5868

          k = 0.2500 0.1429-0.1643 (  4651 PWs)   bands (ev):

   -40.6144 -40.5057 -40.4871 -40.4762  -3.0297   2.7478   4.1477   5.6776
     6.3690   8.0222   8.9878   9.8469

          k =-0.5000-0.1429 0.5476 (  4653 PWs)   bands (ev):

   -40.5645 -40.5160 -40.5145 -40.4858  -2.0915   2.0706   2.9171   3.2551
     6.5236   7.4694   8.4496  10.9579

          k =-0.5000-0.2857 0.3286 (  4660 PWs)   bands (ev):

   -40.5779 -40.5308 -40.4956 -40.4780  -2.5072   1.6832   3.8267   3.9514
     6.5718   8.0183   9.2929  10.6382

          k =-0.5000-0.4286 0.1095 (  4672 PWs)   bands (ev):

   -40.5826 -40.5437 -40.4838 -40.4735  -2.7608   1.2048   4.5846   5.5754
     6.7800   7.8976   8.5657   9.7568

          k =-0.2500 0.1071-0.2191 (  4652 PWs)   bands (ev):

   -40.6127 -40.5051 -40.4858 -40.4796  -2.9811   2.9211   4.0479   5.2372
     6.5823   7.6493   8.6502   9.8410

          k =-0.2500-0.0357-0.4381 (  4653 PWs)   bands (ev):

   -40.5957 -40.5040 -40.4968 -40.4851  -2.5969   3.2072   3.5473   3.9063
     6.3458   7.1510   8.3278   9.5178

          k =-0.2500-0.1786-0.6572 (  4663 PWs)   bands (ev):

   -40.5672 -40.5143 -40.5099 -40.4889  -2.0406   2.0562   3.2082   3.4403
     5.9769   7.4424   8.5097   9.5494

          k =-0.2500 0.6786 0.6572 (  4657 PWs)   bands (ev):

   -40.5425 -40.5323 -40.5176 -40.4879  -1.8253   1.7421   2.5306   3.3283
     6.1042   7.6342   9.1629  10.8680

          k =-0.2500 0.5357 0.4381 (  4656 PWs)   bands (ev):

   -40.5680 -40.5274 -40.5043 -40.4817  -2.2687   1.9124   2.9963   3.6294
     6.5661   7.8400   9.0248  11.5202

          k =-0.2500 0.3929 0.2191 (  4651 PWs)   bands (ev):

   -40.5956 -40.5229 -40.4894 -40.4752  -2.7866   1.8632   4.1624   4.9101
     6.5755   8.2523   9.2013  10.0444

          k =-0.7500 0.1071 0.5476 (  4651 PWs)   bands (ev):

   -40.5408 -40.5305 -40.5128 -40.4967  -1.8773   1.9762   2.4215   3.3223
     4.9715   8.1043   9.8524  10.7906

          k =-0.7500-0.0357 0.3286 (  4642 PWs)   bands (ev):

   -40.5543 -40.5244 -40.5079 -40.4956  -2.2116   2.1890   2.5143   3.3178
     4.6685   9.6108  10.5494  12.1610

          k =-0.7500-0.1786 0.1095 (  4653 PWs)   bands (ev):

   -40.5633 -40.5365 -40.4978 -40.4857  -2.5090   1.6262   2.8626   4.6693
     4.8212   9.7916  10.4021  11.9831

          k =-0.7500 0.6786 1.4239 (  4655 PWs)   bands (ev):

   -40.5711 -40.5403 -40.4885 -40.4835  -2.6089   1.4374   3.3868   5.0148
     5.3504   9.3223   9.5817  11.2618

          k =-0.7500 0.5357 1.2048 (  4653 PWs)   bands (ev):

   -40.5754 -40.5323 -40.4920 -40.4826  -2.4768   1.7013   3.5064   4.2114
     5.9694   8.2137   9.6582  11.2117

          k =-0.7500 0.3929 0.9858 (  4658 PWs)   bands (ev):

   -40.5688 -40.5228 -40.5052 -40.4840  -2.1575   2.2079   2.5980   3.8389
     6.1460   8.3074   9.2945   9.7650

          k =-0.5000 0.2500 0.3834 (  4658 PWs)   bands (ev):

   -40.5748 -40.5296 -40.4949 -40.4825  -2.4106   1.8313   3.2508   4.2166
     5.9450   8.3073   9.5018  10.6939

          k =-0.5000 0.1071 0.1643 (  4649 PWs)   bands (ev):

   -40.5919 -40.5215 -40.4892 -40.4807  -2.7587   2.0575   3.2370   4.9953
     6.2848   8.7693   9.3562  10.9308

          k =-0.5000-0.0357-0.0548 (  4642 PWs)   bands (ev):

   -40.5958 -40.5169 -40.4942 -40.4767  -2.8343   2.3125   2.8377   5.5658
     6.1420   9.1880  10.1041  10.3552

          k =-0.5000-0.1786-0.2738 (  4649 PWs)   bands (ev):

   -40.5852 -40.5229 -40.4960 -40.4786  -2.6142   1.9333   3.5438   4.1964
     6.3910   8.4579   9.2452  11.1968

          k =-0.5000 0.6786 1.0405 (  4661 PWs)   bands (ev):

   -40.5637 -40.5301 -40.5065 -40.4808  -2.1757   1.9007   2.7520   3.6416
     6.9336   7.9959   8.8643  10.9621

          k =-0.5000 0.5357 0.8215 (  4641 PWs)   bands (ev):

   -40.5383 -40.5337 -40.5259 -40.4822  -1.8075   1.8768   2.4070   2.8080
     7.8993   8.4643   9.3553   9.8375

          k =-0.5000 0.3929 0.6024 (  4647 PWs)   bands (ev):

   -40.5505 -40.5340 -40.5142 -40.4819  -1.9513   2.0475   2.1980   3.3506
     6.9576   9.0779   9.1801  10.0241

          k = 0.5000-0.6429-0.2191 (  4655 PWs)   bands (ev):

   -40.5809 -40.5390 -40.4864 -40.4767  -2.6627   1.3786   4.3054   4.8056
     6.5234   8.0756   8.8110  10.5126

          k = 0.5000-0.7857-0.4381 (  4654 PWs)   bands (ev):

   -40.5717 -40.5269 -40.4985 -40.4845  -2.3063   2.0144   2.8793   4.1059
     5.7819   8.3322   9.4846  10.5670

          k = 0.5000-0.9286-0.6572 (  4662 PWs)   bands (ev):

   -40.5550 -40.5274 -40.5076 -40.4902  -1.9110   1.7108   2.8423   3.8281
     5.3391   7.7963   8.8899  10.0251

          k = 0.7500-0.6429-0.6024 (  4663 PWs)   bands (ev):

   -40.5657 -40.5175 -40.5130 -40.4843  -2.0661   2.0923   2.8581   3.3331
     6.9171   7.6595   8.2933  10.1392

          k = 0.7500-0.7857-0.8215 (  4660 PWs)   bands (ev):

   -40.5470 -40.5272 -40.5153 -40.4907  -1.8085   1.6941   2.7730   3.3571
     5.7409   7.5212   9.0876  10.2120

          k = 0.7500-0.9286-1.0405 (  4647 PWs)   bands (ev):

   -40.5454 -40.5205 -40.5183 -40.4969  -1.9477   2.0920   2.6612   2.8784
     4.9706   8.4346   9.6677  11.9966

          k = 0.7500-0.0714 0.2738 (  4644 PWs)   bands (ev):

   -40.5565 -40.5289 -40.5021 -40.4951  -2.2987   2.0162   2.5822   3.6996
     4.6076   9.7812  11.3514  11.3855

          k = 0.7500-0.2143 0.0548 (  4647 PWs)   bands (ev):

   -40.5649 -40.5395 -40.4940 -40.4852  -2.5551   1.5326   2.9918   4.8180
     5.0504   9.3886  10.4000  11.7492

          k = 0.7500-0.3571-0.1643 (  4660 PWs)   bands (ev):

   -40.5734 -40.5375 -40.4920 -40.4803  -2.5978   1.4743   3.5009   4.7380
     5.5666   9.1362   9.9568  10.8707

     the Fermi energy is     5.1049 ev

!    total energy              =     -66.11287544 Ry
     estimated scf accuracy    <          5.9E-10 Ry
     smearing contrib. (-TS)   =       0.00039384 Ry
     internal energy E=F+TS    =     -66.11326927 Ry

     The total energy is F=E-TS. E is the sum of the following terms:
     one-electron contribution =     -26.61543678 Ry
     hartree contribution      =      12.40887975 Ry
     xc contribution           =     -16.90984059 Ry
     ewald contribution        =     -34.99687166 Ry

     convergence has been achieved in   7 iterations

     Forces acting on atoms (cartesian axes, Ry/au):

     atom    1 type  1   force =     0.00333730   -0.01456081   -0.00000000
     atom    2 type  1   force =    -0.00333730    0.01456081   -0.00000000
     atom    3 type  1   force =     0.01456081    0.00333730    0.00000000
     atom    4 type  1   force =    -0.01456081   -0.00333730    0.00000000
     atom    5 type  2   force =     0.00000000    0.00000000    0.00000000
     The non-local contrib.  to forces
     atom    1 type  1   force =    -0.02412486    0.01819631   -0.00000000
     atom    2 type  1   force =     0.02412486   -0.01819631   -0.00000000
     atom    3 type  1   force =    -0.01819631   -0.02412486   -0.00000000
     atom    4 type  1   force =     0.01819631    0.02412486    0.00000000
     atom    5 type  2   force =     0.00000000    0.00000000    0.00000000
     The ionic contribution  to forces
     atom    1 type  1   force =    -0.06592140    0.13404985    0.00000000
     atom    2 type  1   force =     0.06592140   -0.13404985   -0.00000000
     atom    3 type  1   force =    -0.13404985   -0.06592140   -0.00000000
     atom    4 type  1   force =     0.13404985    0.06592140    0.00000000
     atom    5 type  2   force =    -0.00000000    0.00000000    0.00000000
     The local contribution  to forces
     atom    1 type  1   force =     0.09338592   -0.16680731    0.00000000
     atom    2 type  1   force =    -0.09338592    0.16680731   -0.00000000
     atom    3 type  1   force =     0.16680731    0.09338592    0.00000000
     atom    4 type  1   force =    -0.16680731   -0.09338592    0.00000000
     atom    5 type  2   force =     0.00000000   -0.00000000    0.00000000
     The core correction contribution to forces
     atom    1 type  1   force =     0.00000000    0.00000000    0.00000000
     atom    2 type  1   force =     0.00000000    0.00000000    0.00000000
     atom    3 type  1   force =     0.00000000    0.00000000    0.00000000
     atom    4 type  1   force =     0.00000000    0.00000000    0.00000000
     atom    5 type  2   force =    -0.00000000   -0.00000000    0.00000000
     The Hubbard contrib.    to forces
     atom    1 type  1   force =     0.00000000    0.00000000    0.00000000
     atom    2 type  1   force =     0.00000000    0.00000000    0.00000000
     atom    3 type  1   force =     0.00000000    0.00000000    0.00000000
     atom    4 type  1   force =     0.00000000    0.00000000    0.00000000
     atom    5 type  2   force =     0.00000000    0.00000000    0.00000000
     The SCF correction term to forces
     atom    1 type  1   force =    -0.00000237    0.00000035    0.00000000
     atom    2 type  1   force =     0.00000237   -0.00000035   -0.00000000
     atom    3 type  1   force =    -0.00000035   -0.00000237   -0.00000000
     atom    4 type  1   force =     0.00000035    0.00000237    0.00000000
     atom    5 type  2   force =     0.00000000   -0.00000000   -0.00000000

     Total force =     0.029877     Total SCF correction =     0.000005


     Computing stress (Cartesian axis) and pressure

          total   stress  (Ry/bohr**3)                   (kbar)     P=      146.51
   0.00090356  -0.00000000  -0.00000000          132.92       -0.00       -0.00
  -0.00000000   0.00090356   0.00000000           -0.00      132.92        0.00
  -0.00000000   0.00000000   0.00118076           -0.00        0.00      173.70


     BFGS Geometry Optimization
     Energy error            =      0.0E+00 Ry
     Gradient error          =      1.5E-02 Ry/Bohr
     Cell gradient error     =      3.7E+02 kbar

     number of scf cycles    =   1
     number of bfgs steps    =   0

     enthalpy           new  =     -64.8037597871 Ry

     new trust radius        =       0.2448631771 bohr
ibrav =      7
 celldm(1) =      9.91137203
 celldm(3) =      0.65695711
Input lattice vectors:
     0.46880783    -0.46880783     0.30798663
     0.46880783     0.46880783     0.30798663
    -0.46880783    -0.46880783     0.30798663
New lattice vectors in INITIAL alat:
     0.46880783    -0.46880783     0.30798663
     0.46880783     0.46880783     0.30798663
    -0.46880783    -0.46880783     0.30798663
New lattice vectors in NEW alat (for information only):
     0.50000000    -0.50000000     0.32847855
     0.50000000     0.50000000     0.32847855
    -0.50000000    -0.50000000     0.32847855
Discrepancy in bohr =     0.000000    0.000000    0.000000
     new conv_thr            =       0.0000000100 Ry

     new unit-cell volume =    319.82201 a.u.^3 (    47.39273 Ang^3 )
     density =      1.95685 g/cm^3

CELL_PARAMETERS (alat= 10.57082614)
   0.468807826  -0.468807826   0.307986632
   0.468807826   0.468807826   0.307986632
  -0.468807826  -0.468807826   0.307986632

ATOMIC_POSITIONS (crystal)
Li           -0.1942908396        0.7971265478        0.3971642918
Li            0.1942908396        1.2028734522       -0.3971642918
Li            0.6000377439        0.6028357082       -0.2028734522
Li           -0.6000377439        1.3971642918        0.2028734522
Si           -0.0000000000        0.0000000000        0.0000000000



     Writing config-only to output data dir ./output/LiSi.save/
     NEW-OLD atomic charge density approx. for the potential
     extrapolated charge   12.73538, renormalised to   16.00000

     total cpu time spent up to now is       14.8 secs

     Self-consistent Calculation

     iteration #  1     ecut=    80.00 Ry     beta= 0.70
     Davidson diagonalization with overlap
     c_bands:  1 eigenvalues not converged
     ethr =  1.00E-06,  avg # of iterations =  9.5

     total cpu time spent up to now is       18.0 secs

     total energy              =     -65.91366168 Ry
     estimated scf accuracy    <       0.04702831 Ry

     iteration #  2     ecut=    80.00 Ry     beta= 0.70
     Davidson diagonalization with overlap
     ethr =  2.94E-04,  avg # of iterations =  2.0

     total cpu time spent up to now is       19.6 secs

     total energy              =     -66.00902157 Ry
     estimated scf accuracy    <       0.01797125 Ry

     iteration #  3     ecut=    80.00 Ry     beta= 0.70
     Davidson diagonalization with overlap
     ethr =  1.12E-04,  avg # of iterations =  1.0

     total cpu time spent up to now is       20.7 secs

     total energy              =     -66.00985099 Ry
     estimated scf accuracy    <       0.00238861 Ry

     iteration #  4     ecut=    80.00 Ry     beta= 0.70
     Davidson diagonalization with overlap
     ethr =  1.49E-05,  avg # of iterations =  1.9

     total cpu time spent up to now is       21.9 secs

     total energy              =     -66.00950276 Ry
     estimated scf accuracy    <       0.00073800 Ry

     iteration #  5     ecut=    80.00 Ry     beta= 0.70
     Davidson diagonalization with overlap
     ethr =  4.61E-06,  avg # of iterations =  2.7

     total cpu time spent up to now is       23.1 secs

     total energy              =     -66.00959410 Ry
     estimated scf accuracy    <       0.00000577 Ry

     iteration #  6     ecut=    80.00 Ry     beta= 0.70
     Davidson diagonalization with overlap
     ethr =  3.61E-08,  avg # of iterations =  2.9

     total cpu time spent up to now is       24.6 secs

     total energy              =     -66.00959639 Ry
     estimated scf accuracy    <       0.00000004 Ry

     iteration #  7     ecut=    80.00 Ry     beta= 0.70
     Davidson diagonalization with overlap
     ethr =  2.67E-10,  avg # of iterations =  3.3

     total cpu time spent up to now is       26.0 secs

     total energy              =     -66.00959641 Ry
     estimated scf accuracy    <       0.00000002 Ry

     iteration #  8     ecut=    80.00 Ry     beta= 0.70
     Davidson diagonalization with overlap
     ethr =  1.09E-10,  avg # of iterations =  2.0

     total cpu time spent up to now is       27.2 secs

     End of self-consistent calculation

          k = 0.0000 0.0000 0.0000 (  4629 PWs)   bands (ev):

   -39.1153 -38.8534 -38.8486 -38.8486  -2.2342   5.7368   5.7368   6.9863
     7.7440   9.0328  11.8708  11.8708

          k =-0.1524-0.0000 0.2319 (  4649 PWs)   bands (ev):

   -39.0973 -38.8689 -38.8545 -38.8436  -2.0440   5.2135   5.3658   6.8241
     8.1058   8.4777  10.9362  11.1741

          k =-0.3047-0.0000 0.4638 (  4648 PWs)   bands (ev):

   -39.0495 -38.8890 -38.8725 -38.8498  -1.5031   4.4525   4.5504   5.2439
     7.7794   9.4629  10.1062  11.6237

          k =-0.4571-0.0000 0.6958 (  4657 PWs)   bands (ev):

   -38.9892 -38.9200 -38.8905 -38.8582  -0.8278   2.9124   4.1467   5.0851
     6.8572   9.5949  10.8158  11.8270

          k = 0.0000 0.2666 0.4059 (  4649 PWs)   bands (ev):

   -39.0635 -38.8839 -38.8669 -38.8474  -1.6659   4.6987   4.8204   5.4794
     8.0152   9.1649  10.2582  11.2461

          k =-0.1524 0.2666 0.6378 (  4662 PWs)   bands (ev):

   -39.0159 -38.8964 -38.8910 -38.8552  -1.0699   3.5028   4.5146   4.7935
     7.4889   9.4058  10.1984  11.6008

          k =-0.3047 0.2666 0.8697 (  4660 PWs)   bands (ev):

   -38.9630 -38.9300 -38.9089 -38.8558  -0.6524   2.7748   3.8923   4.4751
     7.4975   9.6929  10.9906  12.6188

          k =-0.4571 0.2666 1.1016 (  4662 PWs)   bands (ev):

   -38.9878 -38.9306 -38.8947 -38.8467  -1.0289   3.1627   3.8229   4.7184
     7.9963   9.8375  10.9549  14.1172

          k = 0.4571 0.2666-0.2899 (  4654 PWs)   bands (ev):

   -39.0404 -38.9240 -38.8646 -38.8343  -1.6359   3.0661   5.3150   5.7822
     8.2747  10.0102  10.9546  12.3788

          k = 0.3047 0.2666-0.0580 (  4658 PWs)   bands (ev):

   -39.0778 -38.9084 -38.8490 -38.8303  -1.9961   3.3569   5.8971   7.6667
     8.0585  10.3533  10.7515  11.3365

          k = 0.1524 0.2666 0.1739 (  4651 PWs)   bands (ev):

   -39.0867 -38.8909 -38.8496 -38.8377  -2.0056   4.0189   5.6162   7.0472
     8.3161   9.6500  10.3485  12.1494

          k =-0.0000-0.5333-0.8117 (  4662 PWs)   bands (ev):

   -38.9710 -38.9345 -38.8926 -38.8595  -0.6866   2.6486   4.0929   5.0990
     6.7036   9.5454  11.1457  11.6738

          k =-0.1524-0.5333-0.5798 (  4653 PWs)   bands (ev):

   -38.9948 -38.9224 -38.8877 -38.8542  -0.9810   3.3082   3.6435   5.2583
     6.9478  10.2016  11.0653  12.7543

          k =-0.3047-0.5333-0.3479 (  4660 PWs)   bands (ev):

   -39.0181 -38.9396 -38.8635 -38.8412  -1.4546   2.8483   4.9402   5.7196
     7.6069  10.1661  11.3008  13.1126

          k =-0.4571-0.5333-0.1160 (  4672 PWs)   bands (ev):

   -39.0257 -38.9614 -38.8482 -38.8298  -1.7412   2.3983   6.0509   7.0553
     8.5381   9.2963  10.1847  12.1584

          k = 0.2666-0.2666 0.0000 (  4653 PWs)   bands (ev):

   -39.0831 -38.9037 -38.8475 -38.8314  -2.0323   3.4935   5.9156   7.7206
     8.1482  10.4626  10.5216  11.1826

          k = 0.1143-0.2666 0.2319 (  4652 PWs)   bands (ev):

   -39.0839 -38.8852 -38.8585 -38.8366  -1.9522   4.2761   5.3031   6.7424
     8.2224   9.5719  10.7559  11.2331

          k =-0.0381-0.2666 0.4638 (  4653 PWs)   bands (ev):

   -39.0533 -38.8874 -38.8689 -38.8512  -1.5332   4.5679   4.5884   5.4362
     7.5723   9.3537  10.3022  11.3044

          k =-0.1905-0.2666 0.6958 (  4663 PWs)   bands (ev):

   -39.0019 -38.9066 -38.8927 -38.8569  -0.9168   3.2001   4.3275   4.7646
     7.3778   9.2936  10.8563  11.8490

          k = 0.7237-0.2666-0.6958 (  4657 PWs)   bands (ev):

   -38.9538 -38.9424 -38.9068 -38.8549  -0.6751   2.8516   3.5934   4.7044
     7.2977  10.0665  11.2687  12.4774

          k = 0.5714-0.2666-0.4638 (  4656 PWs)   bands (ev):

   -38.9998 -38.9359 -38.8776 -38.8473  -1.1868   3.0645   4.0545   5.3984
     7.2652  10.2373  12.0410  12.8731

          k = 0.4190-0.2666-0.2319 (  4651 PWs)   bands (ev):

   -39.0515 -38.9235 -38.8519 -38.8372  -1.7554   3.0630   5.6040   6.3861
     8.1653   9.9233  10.4951  12.7277

          k = 0.1143-0.0000 0.6378 (  4661 PWs)   bands (ev):

   -39.0285 -38.8845 -38.8785 -38.8671  -1.1696   3.8617   4.8670   5.0435
     6.8751   8.9881  10.5758  10.7954

          k =-0.0381-0.0000 0.8697 (  4638 PWs)   bands (ev):

   -38.9756 -38.8991 -38.8977 -38.8852  -0.6578   3.0133   4.3569   4.3715
     6.0728  10.1933  11.3534  11.4086

          k =-0.1905-0.0000 1.1016 (  4646 PWs)   bands (ev):

   -38.9465 -38.9206 -38.9114 -38.8811  -0.7543   3.2862   3.7937   4.0021
     5.8850  11.0135  12.1277  13.6729

          k = 0.7237 0.0000-0.2899 (  4645 PWs)   bands (ev):

   -38.9975 -38.9219 -38.8841 -38.8596  -1.3179   3.4499   3.7377   5.0379
     6.4574  11.6698  12.6517  13.3222

          k = 0.5714 0.0000-0.0580 (  4637 PWs)   bands (ev):

   -39.0442 -38.9136 -38.8687 -38.8388  -1.7577   3.5733   3.9366   6.8674
     7.4809  10.8815  12.2982  12.8373

          k = 0.4190 0.0000 0.1739 (  4654 PWs)   bands (ev):

   -39.0692 -38.8971 -38.8626 -38.8358  -1.8813   4.0630   4.4112   6.7217
     8.5935  10.1877  10.9452  11.8093

          k = 0.2666-0.7999-0.8117 (  4664 PWs)   bands (ev):

   -38.9747 -38.9206 -38.9058 -38.8566  -0.6917   2.8248   4.0694   4.4935
     7.4392   9.6541  10.8379  12.1453

          k = 0.1143-0.7999-0.5798 (  4651 PWs)   bands (ev):

   -38.9562 -38.9243 -38.9106 -38.8678  -0.7392   3.0614   3.8432   4.2267
     6.5101  10.1814  11.4796  13.9412

          k =-0.0381-0.7999-0.3479 (  4642 PWs)   bands (ev):

   -38.9757 -38.9262 -38.8885 -38.8718  -1.1300   3.3876   3.7587   4.5588
     6.0213  11.6392  12.9625  14.1233

          k =-0.1905-0.7999-0.1160 (  4653 PWs)   bands (ev):

   -38.9904 -38.9490 -38.8678 -38.8576  -1.4679   2.8230   4.1762   6.0789
     6.1607  11.5259  12.3899  14.7032

          k = 0.7237-0.7999-1.5075 (  4655 PWs)   bands (ev):

   -39.0061 -38.9522 -38.8625 -38.8441  -1.5774   2.6506   4.7198   6.3568
     6.8145  11.3493  11.4919  13.4884

          k = 0.5714-0.7999-1.2756 (  4653 PWs)   bands (ev):

   -39.0155 -38.9340 -38.8734 -38.8396  -1.4237   2.9435   5.0178   5.0372
     7.9200  10.1027  11.3224  13.2144

          k = 0.4190-0.7999-1.0436 (  4658 PWs)   bands (ev):

   -39.0046 -38.9137 -38.8953 -38.8455  -1.0571   3.3960   3.9504   4.6872
     8.9573   9.2838  10.1784  12.6669

          k = 0.2666-0.5333-0.4059 (  4658 PWs)   bands (ev):

   -39.0148 -38.9284 -38.8782 -38.8402  -1.3477   3.0805   4.6679   5.0099
     8.2431   9.9342  10.7877  13.2692

          k = 0.1143-0.5333-0.1739 (  4649 PWs)   bands (ev):

   -39.0456 -38.9136 -38.8691 -38.8364  -1.7293   3.3656   4.4657   6.3668
     7.8018  11.3080  11.5560  11.9977

          k =-0.0381-0.5333 0.0580 (  4642 PWs)   bands (ev):

   -39.0520 -38.9116 -38.8639 -38.8378  -1.8102   3.5638   4.1550   7.0171
     7.8071  10.5402  11.9375  12.7472

          k =-0.1905-0.5333 0.2899 (  4649 PWs)   bands (ev):

   -39.0319 -38.9263 -38.8588 -38.8463  -1.5696   3.0978   4.9270   5.6797
     7.6898  10.1425  11.3678  13.0737

          k = 0.7237-0.5333-1.1016 (  4661 PWs)   bands (ev):

   -38.9922 -38.9390 -38.8849 -38.8436  -1.0822   3.0672   3.8228   5.2031
     7.7617  10.6703  11.7384  12.2560

          k = 0.5714-0.5333-0.8697 (  4641 PWs)   bands (ev):

   -38.9474 -38.9421 -38.9238 -38.8444  -0.6566   2.9516   3.5708   4.0026
     9.6315  10.4777  11.5800  11.6785

          k = 0.4190-0.5333-0.6378 (  4647 PWs)   bands (ev):

   -38.9704 -38.9392 -38.9054 -38.8434  -0.8262   3.1554   3.4268   4.4681
     9.0419  10.3941  10.9623  12.6374

          k =-0.5333 0.5333-0.0000 (  4690 PWs)   bands (ev):

   -39.0261 -38.9651 -38.8463 -38.8281  -1.7787   2.3397   6.1484   7.6235
     8.8480   8.8585   9.8850  11.9236

          k =-0.6856 0.5333 0.2319 (  4655 PWs)   bands (ev):

   -39.0242 -38.9502 -38.8577 -38.8319  -1.6314   2.5859   5.7213   6.0921
     8.0997   9.9055  11.1832  12.0632

          k =-0.8380 0.5333 0.4638 (  4654 PWs)   bands (ev):

   -39.0095 -38.9209 -38.8866 -38.8436  -1.2296   3.2736   4.2841   4.7803
     8.3349   9.7624  10.4769  13.7469

          k =-0.9904 0.5333 0.6958 (  4662 PWs)   bands (ev):

   -38.9804 -38.9241 -38.8967 -38.8568  -0.7731   2.8262   4.1699   4.7061
     7.2241   9.4862  10.7035  12.3085

          k =-0.6856 0.7999 0.6378 (  4663 PWs)   bands (ev):

   -38.9981 -38.9171 -38.8939 -38.8494  -0.9502   3.2711   3.8257   4.8662
     7.8583   9.8906  11.2500  12.0322

          k =-0.8380 0.7999 0.8697 (  4660 PWs)   bands (ev):

   -38.9657 -38.9270 -38.9054 -38.8596  -0.6525   2.7896   3.8956   4.6384
     7.0601   9.7726  11.0399  12.1594

          k =-0.9904 0.7999 1.1016 (  4647 PWs)   bands (ev):

   -38.9587 -38.9279 -38.9007 -38.8723  -0.8223   3.3103   3.5708   4.3830
     6.2125  10.4923  12.1487  13.5871

          k =-0.0762 0.7999-0.2899 (  4644 PWs)   bands (ev):

   -38.9809 -38.9284 -38.8882 -38.8655  -1.2304   3.2732   3.7884   4.9035
     6.0336  12.1070  12.9723  13.6033

          k =-0.2285 0.7999-0.0580 (  4647 PWs)   bands (ev):

   -38.9945 -38.9515 -38.8679 -38.8513  -1.5198   2.7442   4.2978   6.2304
     6.4090  11.2430  12.3860  14.2660

          k =-0.3809 0.7999 0.1739 (  4660 PWs)   bands (ev):

   -39.0088 -38.9518 -38.8554 -38.8486  -1.5624   2.6584   4.8850   6.1159
     7.0433  10.9110  11.3627  13.8491

          k =-0.6856-0.0000-0.5798 (  4649 PWs)   bands (ev):

   -38.9742 -38.9209 -38.9008 -38.8632  -0.8296   3.0897   3.8964   4.4645
     6.8080   9.8598  11.1480  13.6489

          k =-0.8380-0.0000-0.3479 (  4643 PWs)   bands (ev):

   -38.9678 -38.9253 -38.8934 -38.8756  -1.0867   3.4589   3.6468   4.4789
     5.8142  12.0011  12.9616  14.2781

          k =-0.9904-0.0000-0.1160 (  4635 PWs)   bands (ev):

   -38.9477 -38.9386 -38.9087 -38.8697  -1.2555   3.3204   3.3501   4.9999
     5.7273  11.8394  15.0527  15.5618

          k = 0.2666-0.1524-0.6378 (  4662 PWs)   bands (ev):

   -39.0157 -38.9015 -38.8847 -38.8565  -1.0696   3.4958   4.3439   5.0762
     7.2556   9.2742  10.9560  11.5214

          k = 0.2666-0.3047-0.8697 (  4660 PWs)   bands (ev):

   -38.9627 -38.9311 -38.9079 -38.8559  -0.6523   2.7822   3.8170   4.5788
     7.3775   9.8954  10.9835  12.2945

          k = 0.2666-0.4571-1.1016 (  4662 PWs)   bands (ev):

   -38.9857 -38.9381 -38.8865 -38.8496  -1.0272   3.1430   3.6493   5.2153
     7.1948  10.2304  12.1122  13.2487

          k = 0.2666 0.4571 0.2899 (  4654 PWs)   bands (ev):

   -39.0399 -38.9275 -38.8563 -38.8396  -1.6347   3.0196   5.3446   6.0060
     7.8942  10.1087  10.7204  12.8178

          k = 0.2666 0.3047 0.0580 (  4658 PWs)   bands (ev):

   -39.0778 -38.9090 -38.8468 -38.8320  -1.9959   3.3494   5.9103   7.6778
     8.1304  10.2735  10.4439  11.3940

          k = 0.2666 0.1524-0.1739 (  4651 PWs)   bands (ev):

   -39.0868 -38.8889 -38.8550 -38.8342  -2.0058   4.0549   5.5155   7.1853
     8.0632   9.8579  10.7627  11.6497

          k =-0.5333-0.1524 0.5798 (  4653 PWs)   bands (ev):

   -38.9960 -38.9082 -38.9042 -38.8507  -0.9826   3.2557   4.1294   4.4125
     8.0859   9.3843  10.3919  13.1898

          k =-0.5333-0.3047 0.3479 (  4660 PWs)   bands (ev):

   -39.0190 -38.9360 -38.8704 -38.8370  -1.4559   2.8906   5.1040   5.2636
     8.1459   9.9823  11.1821  12.7131

          k =-0.5333-0.4571 0.1160 (  4672 PWs)   bands (ev):

   -39.0259 -38.9610 -38.8493 -38.8290  -1.7414   2.4012   6.0492   7.0496
     8.3749   9.5275  10.2634  12.0120

          k =-0.2666 0.1143-0.2319 (  4652 PWs)   bands (ev):

   -39.0838 -38.8876 -38.8526 -38.8401  -1.9520   4.2144   5.4483   6.6486
     8.3339   9.4435  10.3584  11.7710

          k =-0.2666-0.0381-0.4638 (  4653 PWs)   bands (ev):

   -39.0534 -38.8850 -38.8726 -38.8498  -1.5334   4.5265   4.7557   5.2163
     7.8560   9.1602  10.1165  11.4731

          k =-0.2666-0.1905-0.6958 (  4663 PWs)   bands (ev):

   -39.0020 -38.9031 -38.8966 -38.8563  -0.9171   3.2087   4.3908   4.6585
     7.4335   9.5155  10.3947  11.6469

          k =-0.2666 0.7237 0.6958 (  4657 PWs)   bands (ev):

   -38.9572 -38.9363 -38.9101 -38.8543  -0.6756   2.8321   3.7307   4.4911
     7.5888   9.7242  11.0794  13.2028

          k =-0.2666 0.5714 0.4638 (  4656 PWs)   bands (ev):

   -39.0013 -38.9296 -38.8862 -38.8435  -1.1886   3.1205   4.2093   4.8493
     8.1359   9.8870  10.8485  13.7608

          k =-0.2666 0.4190 0.2319 (  4651 PWs)   bands (ev):

   -39.0518 -38.9209 -38.8593 -38.8321  -1.7562   3.0985   5.5018   6.3440
     8.2017  10.0571  11.1422  12.0245

          k =-0.7999 0.1143 0.5798 (  4651 PWs)   bands (ev):

   -38.9527 -38.9345 -38.9021 -38.8696  -0.7386   3.1011   3.5856   4.5706
     6.3126  10.1867  12.0250  12.9327

          k =-0.7999-0.0381 0.3479 (  4642 PWs)   bands (ev):

   -38.9762 -38.9235 -38.8930 -38.8695  -1.1303   3.4308   3.7236   4.5243
     6.0524  11.7878  12.6167  14.2724

          k =-0.7999-0.1905 0.1160 (  4653 PWs)   bands (ev):

   -38.9914 -38.9468 -38.8728 -38.8538  -1.4683   2.8381   4.1539   6.0395
     6.1954  11.6376  12.4458  14.4086

          k =-0.7999 0.7237 1.5075 (  4655 PWs)   bands (ev):

   -39.0053 -38.9543 -38.8563 -38.8491  -1.5769   2.6366   4.7427   6.3773
     6.8194  11.0882  11.4538  13.7820

          k =-0.7999 0.5714 1.2756 (  4653 PWs)   bands (ev):

   -39.0143 -38.9387 -38.8644 -38.8450  -1.4221   2.8897   4.8057   5.5567
     7.4309  10.1249  11.6918  13.4348

          k =-0.7999 0.4190 1.0436 (  4658 PWs)   bands (ev):

   -39.0040 -38.9202 -38.8874 -38.8475  -1.0559   3.4233   3.7103   5.1361
     7.6704  10.3594  11.3233  11.7669

          k =-0.5333 0.2666 0.4059 (  4658 PWs)   bands (ev):

   -39.0138 -38.9336 -38.8694 -38.8448  -1.3460   3.0189   4.4977   5.5758
     7.4090  10.2286  11.6378  12.7994

          k =-0.5333 0.1143 0.1739 (  4649 PWs)   bands (ev):

   -39.0451 -38.9182 -38.8587 -38.8426  -1.7283   3.2918   4.5790   6.3793
     7.8738  10.6122  11.0863  13.1497

          k =-0.5333-0.0381-0.0580 (  4642 PWs)   bands (ev):

   -39.0522 -38.9096 -38.8678 -38.8357  -1.8105   3.6162   4.0958   7.0160
     7.7381  10.8906  12.0498  12.3600

          k =-0.5333-0.1905-0.2899 (  4649 PWs)   bands (ev):

   -39.0327 -38.9208 -38.8714 -38.8383  -1.5711   3.1739   4.8259   5.5178
     7.9810  10.4230  11.0838  13.4038

          k =-0.5333 0.7237 1.1016 (  4661 PWs)   bands (ev):

   -38.9935 -38.9347 -38.8898 -38.8418  -1.0834   3.0932   3.9285   4.8673
     8.5631  10.0609  10.6805  13.1835

          k =-0.5333 0.5714 0.8697 (  4641 PWs)   bands (ev):

   -38.9482 -38.9409 -38.9242 -38.8444  -0.6567   2.9506   3.5797   3.9929
     9.7058  10.3667  11.5262  11.7535

          k =-0.5333 0.4190 0.6378 (  4647 PWs)   bands (ev):

   -38.9692 -38.9421 -38.9033 -38.8438  -0.8257   3.2151   3.3098   4.5731
     8.6167  11.1496  11.3031  12.0213

          k = 0.5333-0.6856-0.2319 (  4655 PWs)   bands (ev):

   -39.0236 -38.9518 -38.8540 -38.8345  -1.6308   2.5713   5.7242   6.1839
     8.0552   9.8677  10.6614  12.7158

          k = 0.5333-0.8380-0.4638 (  4654 PWs)   bands (ev):

   -39.0083 -38.9282 -38.8758 -38.8482  -1.2277   3.2029   4.0802   5.4522
     7.2320  10.2633  11.7146  12.6185

          k = 0.5333-0.9904-0.6958 (  4662 PWs)   bands (ev):

   -38.9797 -38.9277 -38.8924 -38.8582  -0.7724   2.8306   3.9560   5.1392
     6.7669   9.7802  10.9781  12.0514

          k = 0.7999-0.6856-0.6378 (  4663 PWs)   bands (ev):

   -38.9986 -38.9105 -38.9013 -38.8481  -0.9510   3.2637   4.0213   4.5432
     8.5379   9.5316  10.2809  12.2641

          k = 0.7999-0.8380-0.8697 (  4660 PWs)   bands (ev):

   -38.9659 -38.9261 -38.9062 -38.8594  -0.6526   2.7827   3.9750   4.5264
     7.1634   9.6223  11.0098  12.4754

          k = 0.7999-0.9904-1.1016 (  4647 PWs)   bands (ev):

   -38.9607 -38.9167 -38.9121 -38.8702  -0.8228   3.2516   3.8793   4.0463
     6.3390  10.5657  11.6899  14.4162

          k = 0.7999-0.0762 0.2899 (  4644 PWs)   bands (ev):

   -38.9799 -38.9320 -38.8812 -38.8699  -1.2299   3.2247   3.8429   4.9369
     5.9912  11.8839  13.3652  13.6322

          k = 0.7999-0.2285 0.0580 (  4647 PWs)   bands (ev):

   -38.9939 -38.9526 -38.8652 -38.8534  -1.5196   2.7373   4.3077   6.2416
     6.4048  11.1727  12.3774  14.3162

          k = 0.7999-0.3809-0.1739 (  4660 PWs)   bands (ev):

   -39.0099 -38.9489 -38.8637 -38.8420  -1.5632   2.6807   4.8428   6.0817
     7.0553  11.0498  11.7677  13.1534

     the Fermi energy is     6.4973 ev

!    total energy              =     -66.00959642 Ry
     estimated scf accuracy    <          1.2E-09 Ry
     smearing contrib. (-TS)   =       0.00058086 Ry
     internal energy E=F+TS    =     -66.01017727 Ry

     The total energy is F=E-TS. E is the sum of the following terms:
     one-electron contribution =     -23.42724402 Ry
     hartree contribution      =      11.81090128 Ry
     xc contribution           =     -17.16977058 Ry
     ewald contribution        =     -37.22406395 Ry

     convergence has been achieved in   8 iterations

     Forces acting on atoms (cartesian axes, Ry/au):

     atom    1 type  1   force =    -0.00348994   -0.00759665   -0.00000000
     atom    2 type  1   force =     0.00348994    0.00759665   -0.00000000
     atom    3 type  1   force =     0.00759665   -0.00348994    0.00000000
     atom    4 type  1   force =    -0.00759665    0.00348994    0.00000000
     atom    5 type  2   force =    -0.00000000   -0.00000000    0.00000000
     The non-local contrib.  to forces
     atom    1 type  1   force =    -0.02909432    0.01885520   -0.00000000
     atom    2 type  1   force =     0.02909432   -0.01885520   -0.00000000
     atom    3 type  1   force =    -0.01885520   -0.02909432    0.00000000
     atom    4 type  1   force =     0.01885520    0.02909432    0.00000000
     atom    5 type  2   force =    -0.00000000    0.00000000    0.00000000
     The ionic contribution  to forces
     atom    1 type  1   force =    -0.08019778    0.17538425   -0.00000000
     atom    2 type  1   force =     0.08019778   -0.17538425    0.00000000
     atom    3 type  1   force =    -0.17538425   -0.08019778    0.00000000
     atom    4 type  1   force =     0.17538425    0.08019778    0.00000000
     atom    5 type  2   force =    -0.00000000    0.00000000   -0.00000000
     The local contribution  to forces
     atom    1 type  1   force =     0.10580487   -0.20183515    0.00000000
     atom    2 type  1   force =    -0.10580487    0.20183515    0.00000000
     atom    3 type  1   force =     0.20183515    0.10580487    0.00000000
     atom    4 type  1   force =    -0.20183515   -0.10580487    0.00000000
     atom    5 type  2   force =    -0.00000000    0.00000000    0.00000000
     The core correction contribution to forces
     atom    1 type  1   force =     0.00000000    0.00000000    0.00000000
     atom    2 type  1   force =     0.00000000    0.00000000    0.00000000
     atom    3 type  1   force =     0.00000000    0.00000000    0.00000000
     atom    4 type  1   force =     0.00000000    0.00000000    0.00000000
     atom    5 type  2   force =     0.00000000    0.00000000   -0.00000000
     The Hubbard contrib.    to forces
     atom    1 type  1   force =     0.00000000    0.00000000    0.00000000
     atom    2 type  1   force =     0.00000000    0.00000000    0.00000000
     atom    3 type  1   force =     0.00000000    0.00000000    0.00000000
     atom    4 type  1   force =     0.00000000    0.00000000    0.00000000
     atom    5 type  2   force =     0.00000000    0.00000000    0.00000000
     The SCF correction term to forces
     atom    1 type  1   force =    -0.00000270   -0.00000095   -0.00000000
     atom    2 type  1   force =     0.00000270    0.00000095    0.00000000
     atom    3 type  1   force =     0.00000095   -0.00000270    0.00000000
     atom    4 type  1   force =    -0.00000095    0.00000270   -0.00000000
     atom    5 type  2   force =    -0.00000000   -0.00000000    0.00000000

     Total force =     0.016720     Total SCF correction =     0.000006


     Computing stress (Cartesian axis) and pressure

          total   stress  (Ry/bohr**3)                   (kbar)     P=      348.62
   0.00225513   0.00000000   0.00000000          331.74        0.00        0.00
  -0.00000000   0.00225513   0.00000000           -0.00      331.74        0.00
   0.00000000  -0.00000000   0.00259940            0.00       -0.00      382.39

     Energy error            =      1.2E-01 Ry
     Gradient error          =      7.6E-03 Ry/Bohr
     Cell gradient error     =      1.7E+02 kbar

     number of scf cycles    =   2
     number of bfgs steps    =   1

     enthalpy           old  =     -64.8037597871 Ry
     enthalpy           new  =     -64.9225434845 Ry

     CASE: enthalpy          _new < enthalpy          _old

     new trust radius        =       0.1573773075 bohr
ibrav =      7
 celldm(1) =      9.47526638
 celldm(3) =      0.66631746
Input lattice vectors:
     0.44818003    -0.44818003     0.29863018
     0.44818003     0.44818003     0.29863018
    -0.44818003    -0.44818003     0.29863018
New lattice vectors in INITIAL alat:
     0.44818003    -0.44818003     0.29863018
     0.44818003     0.44818003     0.29863018
    -0.44818003    -0.44818003     0.29863018
New lattice vectors in NEW alat (for information only):
     0.50000000    -0.50000000     0.33315873
     0.50000000     0.50000000     0.33315873
    -0.50000000    -0.50000000     0.33315873
Discrepancy in bohr =     0.000000    0.000000    0.000000
     new conv_thr            =       0.0000000008 Ry

     new unit-cell volume =    283.41673 a.u.^3 (    41.99803 Ang^3 )
     density =      2.20821 g/cm^3

CELL_PARAMETERS (alat= 10.57082614)
   0.448180031  -0.448180031   0.298630178
   0.448180031   0.448180031   0.298630178
  -0.448180031  -0.448180031   0.298630178

ATOMIC_POSITIONS (crystal)
Li           -0.1936929613        0.7960304360        0.3976625253
Li            0.1936929613        1.2039695640       -0.3976625253
Li            0.6016320893        0.6023374747       -0.2039695640
Li           -0.6016320893        1.3976625253        0.2039695640
Si           -0.0000000000        0.0000000000        0.0000000000



     Writing config-only to output data dir ./output/LiSi.save/
     NEW-OLD atomic charge density approx. for the potential
     extrapolated charge   13.94720, renormalised to   16.00000

     total cpu time spent up to now is       29.4 secs

     Self-consistent Calculation

     iteration #  1     ecut=    80.00 Ry     beta= 0.70
     Davidson diagonalization with overlap
     c_bands:  1 eigenvalues not converged
     ethr =  1.00E-06,  avg # of iterations =  8.4

     total cpu time spent up to now is       32.0 secs

     total energy              =     -65.86260617 Ry
     estimated scf accuracy    <       0.01535918 Ry

     iteration #  2     ecut=    80.00 Ry     beta= 0.70
     Davidson diagonalization with overlap
     ethr =  9.60E-05,  avg # of iterations =  2.0

     total cpu time spent up to now is       33.2 secs

     total energy              =     -65.90169759 Ry
     estimated scf accuracy    <       0.00886340 Ry

     iteration #  3     ecut=    80.00 Ry     beta= 0.70
     Davidson diagonalization with overlap
     ethr =  5.54E-05,  avg # of iterations =  1.0

     total cpu time spent up to now is       34.1 secs

     total energy              =     -65.90184825 Ry
     estimated scf accuracy    <       0.00140209 Ry

     iteration #  4     ecut=    80.00 Ry     beta= 0.70
     Davidson diagonalization with overlap
     ethr =  8.76E-06,  avg # of iterations =  1.3

     total cpu time spent up to now is       35.1 secs

     total energy              =     -65.90156866 Ry
     estimated scf accuracy    <       0.00050777 Ry

     iteration #  5     ecut=    80.00 Ry     beta= 0.70
     Davidson diagonalization with overlap
     ethr =  3.17E-06,  avg # of iterations =  2.6

     total cpu time spent up to now is       36.1 secs

     total energy              =     -65.90162863 Ry
     estimated scf accuracy    <       0.00000568 Ry

     iteration #  6     ecut=    80.00 Ry     beta= 0.70
     Davidson diagonalization with overlap
     ethr =  3.55E-08,  avg # of iterations =  2.3

     total cpu time spent up to now is       37.2 secs

     total energy              =     -65.90162978 Ry
     estimated scf accuracy    <       0.00000036 Ry

     iteration #  7     ecut=    80.00 Ry     beta= 0.70
     Davidson diagonalization with overlap
     ethr =  2.26E-09,  avg # of iterations =  2.3

     total cpu time spent up to now is       38.4 secs

     total energy              =     -65.90162988 Ry
     estimated scf accuracy    <       0.00000001 Ry

     iteration #  8     ecut=    80.00 Ry     beta= 0.70
     Davidson diagonalization with overlap
     ethr =  8.91E-11,  avg # of iterations =  2.1

     total cpu time spent up to now is       39.5 secs

     total energy              =     -65.90162989 Ry
     estimated scf accuracy    <          9.9E-10 Ry

     iteration #  9     ecut=    80.00 Ry     beta= 0.70
     Davidson diagonalization with overlap
     ethr =  6.21E-12,  avg # of iterations =  2.2

     total cpu time spent up to now is       40.6 secs

     End of self-consistent calculation

          k = 0.0000 0.0000 0.0000 (  4629 PWs)   bands (ev):

   -38.0975 -37.7140 -37.7111 -37.7111  -1.3918   6.8667   6.8667   8.1699
     8.7994  10.3559  13.0050  13.0050

          k =-0.1594-0.0000 0.2392 (  4649 PWs)   bands (ev):

   -38.0719 -37.7381 -37.7197 -37.7017  -1.2041   6.2621   6.4235   7.8510
     9.1901   9.9925  12.1865  12.4519

          k =-0.3187-0.0000 0.4784 (  4648 PWs)   bands (ev):

   -38.0034 -37.7680 -37.7457 -37.7090  -0.6670   5.3782   5.4907   6.2426
     8.8633  10.9934  11.4742  13.1051

          k =-0.4781-0.0000 0.7176 (  4657 PWs)   bands (ev):

   -37.9175 -37.8145 -37.7704 -37.7198   0.0111   3.7922   4.9807   6.0784
     7.9086  11.1028  12.3428  13.3328

          k = 0.0000 0.2789 0.4186 (  4649 PWs)   bands (ev):

   -38.0235 -37.7603 -37.7377 -37.7061  -0.8292   5.6343   5.8153   6.4735
     9.1000  10.6937  11.6054  12.6684

          k =-0.1594 0.2789 0.6578 (  4662 PWs)   bands (ev):

   -37.9560 -37.7786 -37.7721 -37.7161  -0.2328   4.4047   5.4109   5.7187
     8.5553  10.9679  11.6227  13.1229

          k =-0.3187 0.2789 0.8970 (  4660 PWs)   bands (ev):

   -37.8812 -37.8271 -37.7973 -37.7162   0.1890   3.6364   4.7963   5.3485
     8.5958  11.2625  12.4352  14.2997

          k =-0.4781 0.2789 1.1361 (  4662 PWs)   bands (ev):

   -37.9119 -37.8305 -37.7788 -37.7036  -0.1955   4.0760   4.7164   5.6104
     9.1709  11.3602  12.3375  15.8549

          k = 0.4781 0.2789-0.2990 (  4654 PWs)   bands (ev):

   -37.9877 -37.8194 -37.7359 -37.6870  -0.8080   4.0205   6.2729   6.7786
     9.5026  11.3559  12.3118  13.9334

          k = 0.3187 0.2789-0.0598 (  4658 PWs)   bands (ev):

   -38.0421 -37.7962 -37.7129 -37.6821  -1.1650   4.3367   7.0244   8.7803
     9.2233  11.4087  12.2599  12.5843

          k = 0.1594 0.2789 0.1794 (  4651 PWs)   bands (ev):

   -38.0558 -37.7706 -37.7132 -37.6927  -1.1699   5.0093   6.7257   8.0676
     9.5671  10.9922  11.5584  13.5470

          k =-0.0000-0.5578-0.8372 (  4662 PWs)   bands (ev):

   -37.8924 -37.8345 -37.7732 -37.7215   0.1541   3.5187   4.9161   6.0921
     7.7479  11.0594  12.7488  13.1273

          k =-0.1594-0.5578-0.5980 (  4653 PWs)   bands (ev):

   -37.9237 -37.8185 -37.7675 -37.7141  -0.1442   4.2043   4.4953   6.2639
     8.0030  11.6641  12.6814  14.2938

          k =-0.3187-0.5578-0.3588 (  4660 PWs)   bands (ev):

   -37.9546 -37.8434 -37.7345 -37.6961  -0.6270   3.7686   5.8700   6.7650
     8.6973  11.5749  12.7580  14.7124

          k =-0.4781-0.5578-0.1196 (  4672 PWs)   bands (ev):

   -37.9633 -37.8762 -37.7129 -37.6803  -0.9213   3.3394   7.2076   8.0568
     9.7158  10.4554  11.3381  13.8087

          k = 0.2789-0.2789 0.0000 (  4653 PWs)   bands (ev):

   -38.0498 -37.7894 -37.7106 -37.6836  -1.1999   4.4783   7.0595   8.8627
     9.2836  11.5659  11.9224  12.4388

          k = 0.1195-0.2789 0.2392 (  4652 PWs)   bands (ev):

   -38.0519 -37.7619 -37.7262 -37.6913  -1.1160   5.2931   6.3101   7.7868
     9.4549  10.9880  12.0171  12.5307

          k =-0.0398-0.2789 0.4784 (  4653 PWs)   bands (ev):

   -38.0091 -37.7657 -37.7404 -37.7111  -0.6966   5.4613   5.5645   6.4539
     8.6287  10.9163  11.6643  12.7534

          k =-0.1992-0.2789 0.7176 (  4663 PWs)   bands (ev):

   -37.9362 -37.7938 -37.7740 -37.7181  -0.0787   4.0879   5.2009   5.7022
     8.4245  10.8484  12.3239  13.4828

          k = 0.7570-0.2789-0.7176 (  4657 PWs)   bands (ev):

   -37.8680 -37.8448 -37.7944 -37.7149   0.1659   3.7111   4.4796   5.6056
     8.4062  11.6439  12.7335  14.1204

          k = 0.5977-0.2789-0.4784 (  4656 PWs)   bands (ev):

   -37.9289 -37.8384 -37.7544 -37.7044  -0.3550   3.9672   4.9424   6.4024
     8.3513  11.7013  13.7074  14.3928

          k = 0.4383-0.2789-0.2392 (  4651 PWs)   bands (ev):

   -38.0037 -37.8190 -37.7176 -37.6909  -0.9269   4.0074   6.6706   7.4022
     9.3072  11.1954  11.8630  14.2622

          k = 0.1195-0.0000 0.6578 (  4661 PWs)   bands (ev):

   -37.9750 -37.7613 -37.7533 -37.7333  -0.3310   4.7873   5.7793   5.9844
     7.8304  10.5806  12.0603  12.2871

          k =-0.0398-0.0000 0.8970 (  4638 PWs)   bands (ev):

   -37.9005 -37.7823 -37.7805 -37.7582   0.1882   3.9037   5.2600   5.2775
     7.0193  11.8420  12.9123  12.9731

          k =-0.1992-0.0000 1.1361 (  4646 PWs)   bands (ev):

   -37.8531 -37.8170 -37.8017 -37.7528   0.0944   4.1510   4.6938   4.9417
     6.8756  12.6031  13.6919  15.3524

          k = 0.7570 0.0000-0.2990 (  4645 PWs)   bands (ev):

   -37.9246 -37.8149 -37.7651 -37.7251  -0.4831   4.4115   4.6920   5.9153
     7.5333  13.1382  14.1677  14.6854

          k = 0.5977 0.0000-0.0598 (  4637 PWs)   bands (ev):

   -37.9926 -37.8027 -37.7414 -37.6964  -0.9280   4.5734   4.9202   7.7990
     8.6773  12.0885  13.7244  14.2745

          k = 0.4383 0.0000 0.1794 (  4654 PWs)   bands (ev):

   -38.0299 -37.7790 -37.7325 -37.6907  -1.0484   5.0741   5.4114   7.7067
     9.9126  11.4906  12.1538  13.1825

          k = 0.2789-0.8367-0.8372 (  4664 PWs)   bands (ev):

   -37.8977 -37.8135 -37.7929 -37.7174   0.1491   3.6934   4.9650   5.3772
     8.5253  11.2236  12.2845  13.7836

          k = 0.1195-0.8367-0.5980 (  4651 PWs)   bands (ev):

   -37.8681 -37.8224 -37.7993 -37.7337   0.1058   3.9245   4.7784   5.1132
     7.5330  11.7530  12.9652  15.7280

          k =-0.0398-0.8367-0.3588 (  4642 PWs)   bands (ev):

   -37.8928 -37.8219 -37.7721 -37.7416  -0.2905   4.3219   4.7111   5.4333
     7.0549  13.1506  14.5398  15.5354

          k =-0.1992-0.8367-0.1196 (  4653 PWs)   bands (ev):

   -37.9121 -37.8564 -37.7346 -37.7293  -0.6377   3.7672   5.1972   6.9662
     7.2110  12.7903  13.7863  16.5537

          k = 0.7570-0.8367-1.5547 (  4655 PWs)   bands (ev):

   -37.9351 -37.8615 -37.7325 -37.7034  -0.7518   3.5992   5.7607   7.2655
     7.9210  12.6076  12.7693  15.2361

          k = 0.5977-0.8367-1.3155 (  4653 PWs)   bands (ev):

   -37.9510 -37.8345 -37.7489 -37.6943  -0.5957   3.8858   5.9153   6.0186
     9.1058  11.5288  12.7040  14.7641

          k = 0.4383-0.8367-1.0763 (  4658 PWs)   bands (ev):

   -37.9381 -37.8049 -37.7789 -37.7019  -0.2232   4.3082   4.8374   5.5865
    10.2011  10.6096  11.7058  14.2523

          k = 0.2789-0.5578-0.4186 (  4658 PWs)   bands (ev):

   -37.9508 -37.8263 -37.7555 -37.6948  -0.5184   4.0196   5.5634   5.9607
     9.4573  11.4026  12.1168  14.9090

          k = 0.1195-0.5578-0.1794 (  4649 PWs)   bands (ev):

   -37.9948 -37.8028 -37.7428 -37.6915  -0.8999   4.3562   5.4467   7.3142
     9.0170  12.6699  12.9028  13.2740

          k =-0.0398-0.5578 0.0598 (  4642 PWs)   bands (ev):

   -38.0041 -37.8002 -37.7341 -37.6946  -0.9801   4.5442   5.1733   7.9677
     9.0343  11.7354  13.2950  14.2202

          k =-0.1992-0.5578 0.2990 (  4649 PWs)   bands (ev):

   -37.9751 -37.8230 -37.7282 -37.7036  -0.7400   4.0276   5.9470   6.6513
     8.7960  11.5083  12.7409  14.6630

          k = 0.7570-0.5578-1.1361 (  4661 PWs)   bands (ev):

   -37.9181 -37.8433 -37.7644 -37.6991  -0.2506   3.9665   4.7004   6.1571
     8.9306  12.1678  13.4310  13.7276

          k = 0.5977-0.5578-0.8970 (  4641 PWs)   bands (ev):

   -37.8564 -37.8464 -37.8193 -37.6996   0.1809   3.8085   4.4525   4.8857
    10.9892  11.9129  13.0336  13.2993

          k = 0.4383-0.5578-0.6578 (  4647 PWs)   bands (ev):

   -37.8872 -37.8439 -37.7934 -37.6984   0.0082   4.0355   4.3100   5.3549
    10.3483  11.8073  12.5051  14.1754

          k =-0.5578 0.5578-0.0000 (  4690 PWs)   bands (ev):

   -37.9633 -37.8819 -37.7101 -37.6780  -0.9599   3.2834   7.3262   8.6853
     9.9140  10.1437  10.8738  13.5978

          k =-0.7172 0.5578 0.2392 (  4655 PWs)   bands (ev):

   -37.9623 -37.8591 -37.7262 -37.6835  -0.8087   3.5260   6.7697   7.0643
     9.2683  11.1780  12.5791  13.5502

          k =-0.8766 0.5578 0.4784 (  4654 PWs)   bands (ev):

   -37.9437 -37.8153 -37.7676 -37.6995  -0.3980   4.2123   5.1764   5.6946
     9.5497  11.2137  11.8374  15.4578

          k =-1.0359 0.5578 0.7176 (  4662 PWs)   bands (ev):

   -37.9046 -37.8207 -37.7791 -37.7177   0.0663   3.7011   5.0020   5.6778
     8.3034  10.9703  12.2251  13.8673

          k =-0.7172 0.8367 0.6578 (  4663 PWs)   bands (ev):

   -37.9294 -37.8100 -37.7763 -37.7072  -0.1144   4.1612   4.6896   5.8092
     9.0012  11.3975  12.7490  13.5993

          k =-0.8766 0.8367 0.8970 (  4660 PWs)   bands (ev):

   -37.8853 -37.8225 -37.7921 -37.7217   0.1900   3.6548   4.7872   5.5317
     8.1227  11.3589  12.4892  13.7980

          k =-1.0359 0.8367 1.1361 (  4647 PWs)   bands (ev):

   -37.8700 -37.8273 -37.7873 -37.7400   0.0225   4.1838   4.4581   5.3437
     7.2117  12.0221  13.7603  15.2038

          k =-0.0797 0.8367-0.2990 (  4644 PWs)   bands (ev):

   -37.9000 -37.8243 -37.7709 -37.7344  -0.3934   4.2325   4.7375   5.7654
     7.0865  13.6414  14.4385  15.0153

          k =-0.2391 0.8367-0.0598 (  4647 PWs)   bands (ev):

   -37.9178 -37.8600 -37.7380 -37.7169  -0.6915   3.6946   5.3201   7.2441
     7.3509  12.5020  13.7236  16.1099

          k =-0.3984 0.8367 0.1794 (  4660 PWs)   bands (ev):

   -37.9391 -37.8612 -37.7238 -37.7076  -0.7363   3.5951   5.9509   7.0250
     8.1499  12.2345  12.6019  15.6245

          k =-0.7172 0.0000-0.5980 (  4649 PWs)   bands (ev):

   -37.8937 -37.8174 -37.7855 -37.7270   0.0120   3.9657   4.7584   5.4396
     7.8307  11.3557  12.7024  15.2720

          k =-0.8766-0.0000-0.3588 (  4643 PWs)   bands (ev):

   -37.8813 -37.8198 -37.7794 -37.7478  -0.2453   4.4066   4.5855   5.3414
     6.8399  13.5586  14.5100  15.6960

          k =-1.0359-0.0000-0.1196 (  4635 PWs)   bands (ev):

   -37.8512 -37.8386 -37.7914 -37.7509  -0.4157   4.2819   4.3108   6.0151
     6.5507  13.1727  16.7796  17.1335

          k = 0.2789-0.1594-0.6578 (  4662 PWs)   bands (ev):

   -37.9559 -37.7866 -37.7626 -37.7178  -0.2324   4.3954   5.2205   6.0421
     8.2903  10.8280  12.4261  13.0774

          k = 0.2789-0.3187-0.8970 (  4660 PWs)   bands (ev):

   -37.8808 -37.8286 -37.7959 -37.7164   0.1891   3.6446   4.7069   5.4676
     8.4788  11.4797  12.4213  13.9386

          k = 0.2789-0.4781-1.1361 (  4662 PWs)   bands (ev):

   -37.9085 -37.8420 -37.7667 -37.7076  -0.1930   4.0377   4.5244   6.1868
     8.2904  11.7238  13.7790  14.8159

          k = 0.2789 0.4781 0.2990 (  4654 PWs)   bands (ev):

   -37.9868 -37.8249 -37.7241 -37.6942  -0.8064   3.9531   6.3364   7.0526
     8.9958  11.4676  12.1139  14.3747

          k = 0.2789 0.3187 0.0598 (  4658 PWs)   bands (ev):

   -38.0420 -37.7973 -37.7097 -37.6843  -1.1648   4.3250   7.0582   8.7633
     9.3077  11.3489  11.8673  12.6619

          k = 0.2789 0.1594-0.1794 (  4651 PWs)   bands (ev):

   -38.0559 -37.7674 -37.7211 -37.6878  -1.1702   5.0642   6.5611   8.2584
     9.2892  11.2261  12.0154  12.9491

          k =-0.5578-0.1594 0.5980 (  4653 PWs)   bands (ev):

   -37.9255 -37.7985 -37.7905 -37.7092  -0.1466   4.1507   5.0588   5.2817
     9.2325  10.8100  11.8754  14.8268

          k =-0.5578-0.3187 0.3588 (  4660 PWs)   bands (ev):

   -37.9562 -37.8376 -37.7444 -37.6905  -0.6290   3.8294   6.0039   6.2604
     9.3472  11.3974  12.5654  14.2550

          k =-0.5578-0.4781 0.1196 (  4672 PWs)   bands (ev):

   -37.9636 -37.8755 -37.7143 -37.6793  -0.9215   3.3438   7.1976   8.0525
     9.5449  10.6766  11.4497  13.6361

          k =-0.2789 0.1195-0.2392 (  4652 PWs)   bands (ev):

   -38.0518 -37.7659 -37.7174 -37.6961  -1.1157   5.2009   6.5321   7.6525
     9.5503  10.8450  11.6012  13.1490

          k =-0.2789-0.0398-0.4784 (  4653 PWs)   bands (ev):

   -38.0092 -37.7619 -37.7460 -37.7091  -0.6968   5.4678   5.6952   6.2041
     8.9268  10.7032  11.4753  12.9440

          k =-0.2789-0.1992-0.7176 (  4663 PWs)   bands (ev):

   -37.9364 -37.7885 -37.7800 -37.7173  -0.0790   4.0986   5.2780   5.5718
     8.5040  11.0792  11.8373  13.1991

          k =-0.2789 0.7570 0.7176 (  4657 PWs)   bands (ev):

   -37.8718 -37.8371 -37.7990 -37.7141   0.1653   3.6910   4.6423   5.3601
     8.7024  11.2893  12.5199  14.9220

          k =-0.2789 0.5977 0.4784 (  4656 PWs)   bands (ev):

   -37.9313 -37.8285 -37.7669 -37.6993  -0.3575   4.0499   5.1032   5.7637
     9.3322  11.3870  12.2009  15.4398

          k =-0.2789 0.4383 0.2392 (  4651 PWs)   bands (ev):

   -38.0042 -37.8147 -37.7281 -37.6841  -0.9282   4.0597   6.5086   7.3583
     9.4255  11.3193  12.5609  13.5219

          k =-0.8367 0.1195 0.5980 (  4651 PWs)   bands (ev):

   -37.8630 -37.8364 -37.7880 -37.7361   0.1067   3.9641   4.4742   5.5261
     7.3087  11.7288  13.6464  14.5071

          k =-0.8367-0.0398 0.3588 (  4642 PWs)   bands (ev):

   -37.8937 -37.8169 -37.7791 -37.7387  -0.2909   4.3892   4.6550   5.3891
     7.0941  13.3405  14.1177  15.6813

          k =-0.8367-0.1992 0.1196 (  4653 PWs)   bands (ev):

   -37.9138 -37.8526 -37.7455 -37.7204  -0.6382   3.7905   5.1591   6.9472
     7.2320  12.9107  13.8423  16.1638

          k =-0.8367 0.7570 1.5547 (  4655 PWs)   bands (ev):

   -37.9336 -37.8650 -37.7237 -37.7102  -0.7509   3.5779   5.8031   7.2807
     7.9221  12.3327  12.7327  15.5942

          k =-0.8367 0.5977 1.3155 (  4653 PWs)   bands (ev):

   -37.9491 -37.8420 -37.7362 -37.7015  -0.5935   3.8084   5.7399   6.5886
     8.5059  11.5331  13.1517  15.0673

          k =-0.8367 0.4383 1.0763 (  4658 PWs)   bands (ev):

   -37.9371 -37.8147 -37.7673 -37.7047  -0.2216   4.3370   4.5616   6.0992
     8.8144  11.8770  12.8455  13.3067

          k =-0.5578 0.2789 0.4186 (  4658 PWs)   bands (ev):

   -37.9490 -37.8345 -37.7428 -37.7011  -0.5161   3.9310   5.4041   6.6111
     8.4889  11.6634  13.1929  14.3587

          k =-0.5578 0.1195 0.1794 (  4649 PWs)   bands (ev):

   -37.9941 -37.8105 -37.7268 -37.7006  -0.8984   4.2432   5.6293   7.3197
     9.0686  11.9417  12.3012  14.6990

          k =-0.5578-0.0398-0.0598 (  4642 PWs)   bands (ev):

   -38.0044 -37.7968 -37.7404 -37.6915  -0.9806   4.6328   5.0697   7.9677
     8.9621  12.0979  13.4646  13.7268

          k =-0.5578-0.1992-0.2990 (  4649 PWs)   bands (ev):

   -37.9764 -37.8142 -37.7462 -37.6931  -0.7422   4.1385   5.7896   6.4548
     9.1926  11.8151  12.4228  14.8062

          k =-0.5578 0.7570 1.1361 (  4661 PWs)   bands (ev):

   -37.9201 -37.8366 -37.7715 -37.6966  -0.2524   4.0072   4.8139   5.7732
     9.8127  11.5737  12.0402  14.8508

          k =-0.5578 0.5977 0.8970 (  4641 PWs)   bands (ev):

   -37.8574 -37.8450 -37.8198 -37.6996   0.1809   3.8076   4.4629   4.8744
    11.0741  11.7812  13.0449  13.3131

          k =-0.5578 0.4383 0.6578 (  4647 PWs)   bands (ev):

   -37.8851 -37.8484 -37.7903 -37.6990   0.0088   4.1050   4.1722   5.4762
     9.8780  12.6686  12.8793  13.5470

          k = 0.5578-0.7172-0.2392 (  4655 PWs)   bands (ev):

   -37.9614 -37.8617 -37.7211 -37.6869  -0.8077   3.5045   6.7799   7.1864
     9.1737  11.1694  11.9769  14.3289

          k = 0.5578-0.8766-0.4784 (  4654 PWs)   bands (ev):

   -37.9419 -37.8267 -37.7517 -37.7058  -0.3953   4.1069   4.9691   6.4759
     8.3026  11.7115  13.3811  14.1102

          k = 0.5578-1.0359-0.7176 (  4662 PWs)   bands (ev):

[...]
     9.5898  10.6440  11.5717  14.1468

          k = 0.2989-0.2989 0.0000 (  3372 PWs)   bands (ev):

   -38.3726 -38.0080 -37.9940 -37.7919  -0.8650   4.9598   7.7707   8.3519
     9.2785   9.7455  12.0683  14.3531

          k = 0.1281-0.2989 0.2105 (  3389 PWs)   bands (ev):

   -38.3919 -38.0011 -37.9558 -37.8172  -0.9060   5.8930   6.9352   7.0868
    10.2107  10.9537  11.6112  13.1027

          k =-0.0427-0.2989 0.4209 (  3387 PWs)   bands (ev):

   -38.3699 -38.0174 -37.9414 -37.8365  -0.6973   5.5081   5.9761   6.7562
     9.3687  11.3097  12.1190  13.3672

          k =-0.2135-0.2989 0.6314 (  3388 PWs)   bands (ev):

   -38.3151 -38.0453 -37.9834 -37.8210  -0.3151   4.4661   5.4422   5.8617
     9.6689  11.8140  12.0284  14.2051

          k = 0.8113-0.2989-0.6314 (  3393 PWs)   bands (ev):

   -38.2470 -38.1077 -38.0119 -37.7985  -0.0267   4.0616   4.4897   5.9121
     9.8170  12.0187  13.3916  14.7360

          k = 0.6405-0.2989-0.4209 (  3384 PWs)   bands (ev):

   -38.2400 -38.1309 -38.0109 -37.7838  -0.1847   4.0555   4.7763   6.5594
     9.7520  12.1938  13.5525  14.4391

          k = 0.4697-0.2989-0.2105 (  3382 PWs)   bands (ev):

   -38.3151 -38.0700 -38.0005 -37.7807  -0.5829   4.2945   6.3183   7.5594
     9.7478  10.9196  12.6118  14.1338

          k = 0.1281-0.0000 0.5787 (  3397 PWs)   bands (ev):

   -38.3673 -37.9721 -37.9415 -37.8838  -0.5516   5.3166   5.9890   6.1897
     8.8208  11.2795  11.4826  14.0073

          k =-0.0427-0.0000 0.7892 (  3388 PWs)   bands (ev):

   -38.3249 -37.9614 -37.9474 -37.9309  -0.1232   4.7463   5.2956   5.3275
     8.1547  12.1799  12.4559  14.8030

          k =-0.2135-0.0000 0.9996 (  3388 PWs)   bands (ev):

   -38.2692 -38.0526 -37.9524 -37.8912   0.2407   4.0529   4.7884   5.2066
     8.1355  12.6418  13.3180  15.2567

          k = 0.8113 0.0000-0.2631 (  3387 PWs)   bands (ev):

   -38.2396 -38.1208 -37.9527 -37.8532   0.0792   4.4081   4.7204   5.3908
     8.8478  12.1674  13.5351  13.6988

          k = 0.6405-0.0000-0.0526 (  3388 PWs)   bands (ev):

   -38.2926 -38.1012 -37.9480 -37.8249  -0.3834   5.0439   5.4063   5.9464
    10.0287  11.3679  12.6625  13.7240

          k = 0.4697-0.0000 0.1578 (  3401 PWs)   bands (ev):

   -38.3523 -38.0559 -37.9419 -37.8162  -0.7121   5.6528   5.9425   6.5786
    10.8622  11.3079  12.2019  12.6171

          k = 0.2989-0.8967-0.7366 (  3386 PWs)   bands (ev):

   -38.2808 -38.0720 -38.0029 -37.8092  -0.1316   4.1636   4.9245   5.7716
     9.8316  11.9395  12.5693  14.4168

          k = 0.1281-0.8967-0.5261 (  3389 PWs)   bands (ev):

   -38.2645 -38.0830 -37.9672 -37.8505   0.1058   3.9522   4.8144   5.5847
     8.8166  11.8999  12.9897  15.7373

          k =-0.0427-0.8967-0.3157 (  3386 PWs)   bands (ev):

   -38.2395 -38.1003 -37.9553 -37.8710   0.2498   4.1812   4.5539   5.3108
     8.3488  12.4238  13.6912  14.3296

          k =-0.2135-0.8967-0.1052 (  3395 PWs)   bands (ev):

   -38.2116 -38.1342 -37.9797 -37.8412   0.1616   3.8711   5.0527   5.7136
     8.5391  11.5327  12.7770  16.7966

          k = 0.8113-0.8967-1.3679 (  3392 PWs)   bands (ev):

   -38.2078 -38.1558 -37.9983 -37.8049  -0.0736   3.7320   5.4897   6.4095
     9.3324  11.3558  11.7225  16.0394

          k = 0.6405-0.8967-1.1575 (  3380 PWs)   bands (ev):

   -38.2507 -38.1203 -38.0122 -37.7829  -0.2608   4.0299   5.2842   6.4643
    10.7693  10.9442  13.0703  14.0133

          k = 0.4697-0.8967-0.9470 (  3377 PWs)   bands (ev):

   -38.2782 -38.0818 -38.0214 -37.7839  -0.2824   4.3445   5.2748   5.6093
    11.3585  11.6404  12.7272  13.9502

          k = 0.2989-0.5978-0.3683 (  3378 PWs)   bands (ev):

   -38.2599 -38.1098 -38.0154 -37.7808  -0.2837   4.1392   5.2276   6.2859
    10.9847  11.2888  12.9137  14.1146

          k = 0.1281-0.5978-0.1578 (  3386 PWs)   bands (ev):

   -38.3003 -38.0926 -37.9647 -37.8088  -0.4469   4.7458   5.7776   6.1682
    10.4609  11.4382  12.1053  13.4777

          k =-0.0427-0.5978 0.0526 (  3384 PWs)   bands (ev):

   -38.3082 -38.0918 -37.9469 -37.8197  -0.4818   4.9831   5.7831   6.1666
    10.2946  11.3279  12.3029  13.6566

          k =-0.2135-0.5978 0.2631 (  3381 PWs)   bands (ev):

   -38.2818 -38.1076 -37.9801 -37.7967  -0.3730   4.2609   5.4374   6.9526
     9.6854  11.6895  12.2262  14.3174

          k = 0.8113-0.5978-0.9996 (  3379 PWs)   bands (ev):

   -38.2279 -38.1270 -38.0414 -37.7692  -0.1797   4.0180   4.8142   6.1128
    10.5625  12.8005  13.7215  14.5273

          k = 0.6405-0.5978-0.7892 (  3382 PWs)   bands (ev):

   -38.1643 -38.1331 -38.1123 -37.7555  -0.0432   4.3666   4.5545   4.7890
    12.8973  13.6160  14.1221  14.2491

          k = 0.4697-0.5978-0.5787 (  3375 PWs)   bands (ev):

   -38.1967 -38.1289 -38.0797 -37.7600  -0.0943   4.1087   4.7206   5.2827
    12.3365  12.8340  13.2640  14.7262

          k =-0.5978 0.5978-0.0000 (  3382 PWs)   bands (ev):

   -38.2210 -38.1592 -38.0318 -37.7549  -0.4109   3.4043   7.0665   8.5872
     8.9016  10.3633  11.6479  13.9265

          k =-0.7686 0.5978 0.2105 (  3387 PWs)   bands (ev):

   -38.2437 -38.1272 -38.0321 -37.7636  -0.3664   3.6723   6.1491   7.1735
    10.3576  10.8727  12.4220  14.2066

          k =-0.9394 0.5978 0.4209 (  3386 PWs)   bands (ev):

   -38.2630 -38.1105 -38.0040 -37.7882  -0.2507   4.2469   5.0665   6.0632
    10.9702  11.3883  12.5781  14.5120

          k =-1.1102 0.5978 0.6314 (  3397 PWs)   bands (ev):

   -38.2668 -38.1236 -37.9553 -37.8192  -0.1360   3.8643   5.2849   6.0034
     9.4942  11.4954  12.6798  14.8592

          k =-0.7686 0.8967 0.5787 (  3377 PWs)   bands (ev):

   -38.2807 -38.0787 -38.0174 -37.7884  -0.2580   4.3125   5.1058   5.7647
    10.4276  12.5747  12.7494  14.0780

          k =-0.9394 0.8967 0.7892 (  3391 PWs)   bands (ev):

   -38.2780 -38.0742 -37.9939 -37.8187  -0.0747   4.1138   4.7771   5.8993
     9.4352  11.8074  12.8183  14.5905

          k =-1.1102 0.8967 0.9996 (  3391 PWs)   bands (ev):

   -38.2585 -38.0877 -37.9584 -37.8608   0.1596   3.9932   4.6266   5.6676
     8.5061  12.1410  13.3298  15.1610

          k =-0.0854 0.8967-0.2631 (  3395 PWs)   bands (ev):

   -38.2334 -38.1047 -37.9628 -37.8654   0.2486   4.2317   4.5917   5.2393
     8.3928  12.2640  13.5733  14.5936

          k =-0.2562 0.8967-0.0526 (  3401 PWs)   bands (ev):

   -38.2068 -38.1422 -37.9867 -37.8312   0.1079   3.8083   5.2539   5.8107
     8.6951  11.4407  12.4724  16.7013

          k =-0.4270 0.8967 0.1578 (  3388 PWs)   bands (ev):

   -38.2127 -38.1579 -37.9975 -37.7986  -0.1283   3.7221   5.4506   6.7379
     9.4993  11.1651  11.7446  15.9330

          k =-0.7686 0.0000-0.5261 (  3395 PWs)   bands (ev):

   -38.2586 -38.1168 -37.9486 -37.8413   0.0027   3.8816   5.0296   5.8127
     9.1000  12.0587  12.2265  15.5269

          k =-0.9394 0.0000-0.3157 (  3380 PWs)   bands (ev):

   -38.2421 -38.0845 -37.9549 -37.8845   0.3284   4.1551   4.5878   5.0904
     8.1293  12.5436  14.0725  14.2964

          k =-1.1102 0.0000-0.1052 (  3375 PWs)   bands (ev):

   -38.2314 -38.0323 -37.9599 -37.9432   0.6812   4.2801   4.2908   4.6260
     7.3768  11.6703  16.1048  16.6171

          k = 0.2989-0.1708-0.5787 (  3382 PWs)   bands (ev):

   -38.3310 -38.0363 -37.9709 -37.8267  -0.4171   4.6792   5.5995   6.0935
     9.5066  11.7265  11.9393  14.0832

          k = 0.2989-0.3416-0.7892 (  3389 PWs)   bands (ev):

   -38.2634 -38.0893 -38.0086 -37.8037  -0.0655   4.0853   4.6827   5.8231
     9.8361  11.9826  12.9733  14.5487

          k = 0.2989-0.5124-0.9996 (  3389 PWs)   bands (ev):

   -38.2277 -38.1386 -38.0126 -37.7865  -0.1046   4.0696   4.5255   6.3593
     9.7555  12.1355  14.0470  14.5554

          k = 0.2989 0.5124 0.2631 (  3380 PWs)   bands (ev):

   -38.2964 -38.0863 -38.0032 -37.7803  -0.4848   4.1909   5.8778   7.2830
     9.7648  11.5192  12.5063  14.5071

          k = 0.2989 0.3416 0.0526 (  3376 PWs)   bands (ev):

   -38.3615 -38.0225 -37.9949 -37.7876  -0.8151   4.7594   7.5616   8.3602
     9.3446   9.7461  12.2553  14.0345

          k = 0.2989 0.1708-0.1578 (  3390 PWs)   bands (ev):

   -38.3911 -37.9986 -37.9666 -37.8099  -0.9200   5.6568   7.2158   7.4643
     9.9197  10.7493  11.7485  13.3397

          k =-0.5978-0.1708 0.5261 (  3392 PWs)   bands (ev):

   -38.2662 -38.1168 -37.9779 -37.8044  -0.1859   4.1067   5.2046   5.7939
    10.3663  11.4390  12.4673  14.9335

          k =-0.5978-0.3416 0.3157 (  3375 PWs)   bands (ev):

   -38.2556 -38.1122 -38.0242 -37.7741  -0.3147   3.9777   5.4944   6.5483
    10.8813  11.1370  13.1094  13.8873

          k =-0.5978-0.5124 0.1052 (  3399 PWs)   bands (ev):

   -38.2293 -38.1481 -38.0324 -37.7571  -0.3995   3.4725   6.7768   7.9072
     9.6037  10.5629  11.8276  14.0554

          k =-0.2989 0.1281-0.2105 (  3389 PWs)   bands (ev):

   -38.3918 -38.0048 -37.9514 -37.8181  -0.9054   5.7664   6.8574   7.5236
     9.6626  10.8939  12.0766  13.4653

          k =-0.2989-0.0427-0.4209 (  3387 PWs)   bands (ev):

   -38.3700 -38.0166 -37.9426 -37.8361  -0.6975   5.5135   6.1248   6.5173
     9.6301  11.0054  12.3054  13.1782

          k =-0.2989-0.2135-0.6314 (  3388 PWs)   bands (ev):

   -38.3151 -38.0445 -37.9843 -37.8208  -0.3154   4.4973   5.3632   5.9045
     9.6667  11.8530  12.1143  13.8158

          k =-0.2989 0.8113 0.6314 (  3393 PWs)   bands (ev):

   -38.2473 -38.1066 -38.0128 -37.7984  -0.0273   4.0080   4.6357   5.7565
    10.1168  11.7518  13.0493  15.3915

          k =-0.2989 0.6405 0.4209 (  3384 PWs)   bands (ev):

   -38.2428 -38.1234 -38.0166 -37.7829  -0.1885   4.0988   4.9266   6.1101
    10.9694  11.2714  13.0780  14.5158

          k =-0.2989 0.4697 0.2105 (  3382 PWs)   bands (ev):

   -38.3160 -38.0614 -38.0093 -37.7796  -0.5853   4.3647   6.4245   7.0611
    10.3148  10.8788  13.0832  13.2597

          k =-0.8967 0.1281 0.5261 (  3389 PWs)   bands (ev):

   -38.2642 -38.0843 -37.9657 -37.8510   0.1067   3.9980   4.6035   5.8478
     8.6197  11.9264  13.2932  15.4826

          k =-0.8967-0.0427 0.3157 (  3386 PWs)   bands (ev):

   -38.2398 -38.0993 -37.9567 -37.8703   0.2490   4.1670   4.6589   5.1919
     8.3886  12.4614  13.7430  14.1471

          k =-0.8967-0.2135 0.1052 (  3395 PWs)   bands (ev):

   -38.2134 -38.1306 -37.9823 -37.8404   0.1597   3.9097   5.0552   5.6370
     8.5659  11.5860  12.7837  16.5628

          k =-0.8967 0.8113 1.3679 (  3392 PWs)   bands (ev):

   -38.2026 -38.1634 -37.9952 -37.8056  -0.0712   3.6965   5.4849   6.5164
     9.2946  11.2925  11.6552  16.0510

          k =-0.8967 0.6405 1.1575 (  3380 PWs)   bands (ev):

   -38.2477 -38.1288 -38.0055 -37.7841  -0.2566   3.9555   5.1925   6.9271
     9.6798  11.7799  12.5700  15.0255

          k =-0.8967 0.4697 0.9470 (  3377 PWs)   bands (ev):

   -38.2775 -38.0866 -38.0168 -37.7844  -0.2806   4.3248   5.0109   6.0197
    10.2814  12.8469  13.1515  13.8903

          k =-0.5978 0.2989 0.3683 (  3378 PWs)   bands (ev):

   -38.2576 -38.1179 -38.0086 -37.7819  -0.2798   4.0701   5.0942   6.7812
     9.7565  12.2646  12.8713  14.5173

          k =-0.5978 0.1281 0.1578 (  3386 PWs)   bands (ev):

   -38.2990 -38.0983 -37.9583 -37.8109  -0.4436   4.5753   5.7684   6.5298
    10.2329  11.2083  12.0000  13.9844

          k =-0.5978-0.0427-0.0526 (  3384 PWs)   bands (ev):

   -38.3086 -38.0898 -37.9496 -37.8187  -0.4830   5.1730   5.5573   6.1515
    10.2706  11.5242  12.3035  13.5970

          k =-0.5978-0.2135-0.2631 (  3381 PWs)   bands (ev):

   -38.2837 -38.0999 -37.9877 -37.7949  -0.3773   4.3809   5.5439   6.3885
    10.7143  11.0588  12.5933  13.5608

          k =-0.5978 0.8113 0.9996 (  3379 PWs)   bands (ev):

   -38.2301 -38.1203 -38.0464 -37.7687  -0.1820   4.0419   4.9409   5.8426
    11.6658  11.8112  13.0766  14.6852

          k =-0.5978 0.6405 0.7892 (  3382 PWs)   bands (ev):

   -38.1646 -38.1322 -38.1128 -37.7555  -0.0433   4.3559   4.5872   4.7660
    13.0277  13.4675  13.9831  14.2923

          k =-0.5978 0.4697 0.5787 (  3375 PWs)   bands (ev):

   -38.1950 -38.1331 -38.0769 -37.7601  -0.0936   4.1151   4.6302   5.3923
    11.6892  13.3605  14.2670  14.5103

          k = 0.5978-0.7686-0.2105 (  3387 PWs)   bands (ev):

   -38.2416 -38.1330 -38.0278 -37.7641  -0.3644   3.6432   6.1053   7.3968
    10.0444  11.3243  11.6851  14.7159

          k = 0.5978-0.9394-0.4209 (  3386 PWs)   bands (ev):

   -38.2609 -38.1174 -37.9980 -37.7894  -0.2469   4.1998   4.8587   6.6293
     9.6008  12.4111  13.3662  13.9637

          k = 0.5978-1.1102-0.6314 (  3397 PWs)   bands (ev):

   -38.2665 -38.1246 -37.9542 -37.8196  -0.1351   3.8655   5.1300   6.2769
     9.1479  11.8069  12.7518  14.8347

          k = 0.8967-0.7686-0.5787 (  3377 PWs)   bands (ev):

   -38.2811 -38.0756 -38.0203 -37.7880  -0.2591   4.3343   5.3316   5.4512
    10.9286  11.8816  13.0884  13.4496

          k = 0.8967-0.9394-0.7892 (  3391 PWs)   bands (ev):

   -38.2781 -38.0740 -37.9941 -37.8187  -0.0747   4.0903   4.8531   5.8186
     9.5375  11.7043  12.7247  14.8545

          k = 0.8967-1.1102-0.9996 (  3391 PWs)   bands (ev):

   -38.2587 -38.0866 -37.9599 -37.8602   0.1587   3.9600   4.8228   5.4308
     8.6396  12.1899  13.0566  15.1998

          k = 0.8967-0.0854 0.2631 (  3395 PWs)   bands (ev):

   -38.2326 -38.1068 -37.9603 -37.8665   0.2503   4.2235   4.4933   5.3908
     8.3350  12.2182  13.4977  14.8852

          k = 0.8967-0.2562 0.0526 (  3401 PWs)   bands (ev):

   -38.2053 -38.1447 -37.9853 -37.8316   0.1090   3.7888   5.2535   5.8504
     8.6843  11.4045  12.4719  16.6690

          k = 0.8967-0.4270-0.1578 (  3388 PWs)   bands (ev):

   -38.2180 -38.1492 -38.0019 -37.7976  -0.1316   3.7727   5.4659   6.5489
     9.6280  11.1479  11.9437  15.6448

     the Fermi energy is     8.2115 ev

!    total energy              =     -65.91962349 Ry
     estimated scf accuracy    <          4.0E-11 Ry
     smearing contrib. (-TS)   =      -0.00048315 Ry
     internal energy E=F+TS    =     -65.91914035 Ry

     The total energy is F=E-TS. E is the sum of the following terms:
     one-electron contribution =     -21.23477889 Ry
     hartree contribution      =      11.39267581 Ry
     xc contribution           =     -17.33837322 Ry
     ewald contribution        =     -38.73866405 Ry

     convergence has been achieved in   7 iterations

     Forces acting on atoms (cartesian axes, Ry/au):

     atom    1 type  1   force =     0.00007525    0.00004470    0.00000000
     atom    2 type  1   force =    -0.00007525   -0.00004470    0.00000000
     atom    3 type  1   force =    -0.00004470    0.00007525   -0.00000000
     atom    4 type  1   force =     0.00004470   -0.00007525    0.00000000
     atom    5 type  2   force =     0.00000000    0.00000000   -0.00000000
     The non-local contrib.  to forces
     atom    1 type  1   force =    -0.03488003    0.03105026   -0.00000000
     atom    2 type  1   force =     0.03488003   -0.03105026    0.00000000
     atom    3 type  1   force =    -0.03105026   -0.03488003   -0.00000000
     atom    4 type  1   force =     0.03105026    0.03488003    0.00000000
     atom    5 type  2   force =    -0.00000000    0.00000000    0.00000000
     The ionic contribution  to forces
     atom    1 type  1   force =     0.07962864    0.23584232    0.00000000
     atom    2 type  1   force =    -0.07962864   -0.23584232    0.00000000
     atom    3 type  1   force =    -0.23584232    0.07962864   -0.00000000
     atom    4 type  1   force =     0.23584232   -0.07962864   -0.00000000
     atom    5 type  2   force =    -0.00000000   -0.00000000   -0.00000000
     The local contribution  to forces
     atom    1 type  1   force =    -0.04467386   -0.26684740    0.00000000
     atom    2 type  1   force =     0.04467386    0.26684740    0.00000000
     atom    3 type  1   force =     0.26684740   -0.04467386    0.00000000
     atom    4 type  1   force =    -0.26684740    0.04467386   -0.00000000
     atom    5 type  2   force =    -0.00000000    0.00000000    0.00000000
     The core correction contribution to forces
     atom    1 type  1   force =     0.00000000    0.00000000    0.00000000
     atom    2 type  1   force =     0.00000000    0.00000000    0.00000000
     atom    3 type  1   force =     0.00000000    0.00000000    0.00000000
     atom    4 type  1   force =     0.00000000    0.00000000    0.00000000
     atom    5 type  2   force =    -0.00000000    0.00000000    0.00000000
     The Hubbard contrib.    to forces
     atom    1 type  1   force =     0.00000000    0.00000000    0.00000000
     atom    2 type  1   force =     0.00000000    0.00000000    0.00000000
     atom    3 type  1   force =     0.00000000    0.00000000    0.00000000
     atom    4 type  1   force =     0.00000000    0.00000000    0.00000000
     atom    5 type  2   force =     0.00000000    0.00000000    0.00000000
     The SCF correction term to forces
     atom    1 type  1   force =     0.00000051   -0.00000048   -0.00000000
     atom    2 type  1   force =    -0.00000051    0.00000048    0.00000000
     atom    3 type  1   force =     0.00000048    0.00000051    0.00000000
     atom    4 type  1   force =    -0.00000048   -0.00000051    0.00000000
     atom    5 type  2   force =    -0.00000000   -0.00000000    0.00000000

     Total force =     0.000175     Total SCF correction =     0.000001


     Computing stress (Cartesian axis) and pressure

          total   stress  (Ry/bohr**3)                   (kbar)     P=      500.29
   0.00339985  -0.00000000  -0.00000000          500.14       -0.00       -0.00
   0.00000000   0.00339985   0.00000000            0.00      500.14        0.00
  -0.00000000   0.00000000   0.00340294           -0.00        0.00      500.59


     Writing all to output data dir ./output/LiSi.save/

     init_run     :      1.65s CPU      2.09s WALL (       2 calls)
     electrons    :    157.19s CPU    168.50s WALL (      20 calls)
     update_pot   :      6.59s CPU      6.67s WALL (      18 calls)
     forces       :      5.55s CPU      5.69s WALL (      20 calls)
     stress       :     26.79s CPU     27.75s WALL (      20 calls)

     Called by init_run:
     wfcinit      :      0.74s CPU      0.76s WALL (       2 calls)
     potinit      :      0.32s CPU      0.57s WALL (       2 calls)
     hinit0       :      0.54s CPU      0.65s WALL (       2 calls)

     Called by electrons:
     c_bands      :    135.48s CPU    145.19s WALL (     142 calls)
     sum_band     :     20.38s CPU     21.15s WALL (     142 calls)
     v_of_rho     :      1.37s CPU      2.12s WALL (     157 calls)
     mix_rho      :      0.09s CPU      0.15s WALL (     142 calls)

     Called by c_bands:
     init_us_2    :      4.40s CPU      4.70s WALL (   29992 calls)
     init_us_2:cp :      4.36s CPU      4.68s WALL (   29992 calls)
     cegterg      :    127.67s CPU    131.62s WALL (   13064 calls)

     Called by *egterg:
     cdiaghg      :      6.98s CPU      7.28s WALL (   45959 calls)
     h_psi        :    109.70s CPU    113.01s WALL (   48259 calls)
     g_psi        :      0.54s CPU      0.55s WALL (   35011 calls)

     Called by h_psi:
     h_psi:calbec :      6.37s CPU      6.56s WALL (   48259 calls)
     vloc_psi     :     98.02s CPU    100.95s WALL (   48259 calls)
     add_vuspsi   :      4.89s CPU      5.03s WALL (   48259 calls)

     General routines
     calbec       :      8.06s CPU      8.29s WALL (   57459 calls)
     fft          :      1.24s CPU      2.23s WALL (    2073 calls)
     ffts         :      0.05s CPU      0.10s WALL (     142 calls)
     fftw         :    101.10s CPU    103.98s WALL ( 1023580 calls)

     Parallel routines

     PWSCF        :   3m18.27s CPU   3m31.76s WALL


   This run was terminated on:  20:33:13  29Dec2024            

=------------------------------------------------------------------------------=
   JOB DONE.
=------------------------------------------------------------------------------=
