
     Program PWSCF v.7.2 starts on 29Dec2024 at 21: 6: 4 

     This program is part of the open-source Quantum ESPRESSO suite
     for quantum simulation of materials; please cite
         "P. Giannozzi et al., J. Phys.:Condens. Matter 21 395502 (2009);
         "P. Giannozzi et al., J. Phys.:Condens. Matter 29 465901 (2017);
         "P. Giannozzi et al., J. Chem. Phys. 152 154105 (2020);
          URL http://www.quantum-espresso.org", 
     in publications or presentations arising from this work. More details at
     http://www.quantum-espresso.org/quote

     Parallel version (MPI & OpenMP), running on       8 processor cores
     Number of MPI processes:                 8
     Threads/MPI process:                     1

     MPI processes distributed on     1 nodes
     482297 MiB available memory on the printing compute node when the environment starts

     Waiting for input...
     Reading input from standard input

     Current dimensions of program PWSCF are:
     Max number of different atomic species (ntypx) = 10
     Max number of k-points (npk) =  40000
     Max angular momentum in pseudopotentials (lmaxx) =  4

     R & G space division:  proc/nbgrp/npool/nimage =       8
     Subspace diagonalization in iterative solution of the eigenvalue problem:
     a serial algorithm will be used


     Parallelization info
     --------------------
     sticks:   dense  smooth     PW     G-vecs:    dense   smooth      PW
     Min         132     132     40                 2652     2652     447
     Max         133     133     41                 2655     2655     450
     Sum        1057    1057    321                21229    21229    3585

     Using Slab Decomposition



     bravais-lattice index     =            5
     lattice parameter (alat)  =       7.3787  a.u.
     unit-cell volume          =     220.2897 (a.u.)^3
     number of atoms/cell      =            5
     number of atomic types    =            2
     number of electrons       =        19.00
     number of Kohn-Sham states=           14
     kinetic-energy cutoff     =      80.0000  Ry
     charge density cutoff     =     320.0000  Ry
     scf convergence threshold =      1.0E-08
     mixing beta               =       0.7000
     number of iterations used =            8  plain     mixing
     energy convergence thresh.=      1.0E-04
     force convergence thresh. =      1.0E-03
     press convergence thresh. =      1.0E+00
     Exchange-correlation= PBE
                           (   1   4   3   4   0   0   0)
     nstep                     =           50


     celldm(1)=   7.378702  celldm(2)=   0.000000  celldm(3)=   0.000000
     celldm(4)=   0.636251  celldm(5)=   0.000000  celldm(6)=   0.000000

     crystal axes: (cart. coord. in units of alat)
               a(1) = (   0.426468  -0.246221   0.870345 )  
               a(2) = (   0.000000   0.492442   0.870345 )  
               a(3) = (  -0.426468  -0.246221   0.870345 )  

     reciprocal axes: (cart. coord. in units 2 pi/alat)
               b(1) = (  1.172422 -0.676898  0.382990 )  
               b(2) = ( -0.000000  1.353796  0.382990 )  
               b(3) = ( -1.172422 -0.676898  0.382990 )  


     PseudoPot. # 1 for Li read from file:
     ../pseudo/Li_ONCV_PBE_sr.upf
     MD5 check sum: 50ff420e78310ffa21704f3361e624a4
     Pseudo is Norm-conserving, Zval =  3.0
     Generated using ONCVPSP code by D. R. Hamann
     Using radial grid of 1944 points,  4 beta functions with: 
                l(1) =   0
                l(2) =   0
                l(3) =   1
                l(4) =   1

     PseudoPot. # 2 for Si read from file:
     ../pseudo/Si_ONCV_PBE_sr.upf
     MD5 check sum: e543d271109d17c80368dfa7c482276d
     Pseudo is Norm-conserving + core correction, Zval =  4.0
     Generated using ONCVPSP code by D. R. Hamann
     Using radial grid of 1510 points,  6 beta functions with: 
                l(1) =   0
                l(2) =   0
                l(3) =   1
                l(4) =   1
                l(5) =   2
                l(6) =   2

     atomic species   valence    mass     pseudopotential
        Li             3.00     6.94100     Li( 1.00)
        Si             4.00    28.08550     Si( 1.00)

     12 Sym. Ops., with inversion, found



   Cartesian axes

     site n.     atom                  positions (alat units)
         1           Li  tau(   1) = (   0.0000000  -0.0000000   1.3055175  )
         2           Si  tau(   2) = (   0.0000000  -0.0000000   0.2530868  )
         3           Si  tau(   3) = (   0.0000000  -0.0000000   2.3579483  )
         4           Si  tau(   4) = (   0.0000000  -0.0000000   0.7833183  )
         5           Si  tau(   5) = (  -0.0000000  -0.0000000   1.8277167  )

     number of k points=    32  Marzari-Vanderbilt smearing, width (Ry)=  0.0200
                       cart. coord. in units 2pi/alat
        k(    1) = (   0.0000000   0.0000000   0.0000000), wk =   0.0092593
        k(    2) = (  -0.1954036  -0.1128163   0.0638316), wk =   0.0555556
        k(    3) = (  -0.3908073  -0.2256327   0.1276633), wk =   0.0555556
        k(    4) = (   0.5862109   0.3384490  -0.1914949), wk =   0.0277778
        k(    5) = (  -0.1954036   0.1128163   0.1276633), wk =   0.0555556
        k(    6) = (  -0.3908073   0.0000000   0.1914949), wk =   0.1111111
        k(    7) = (   0.5862109   0.5640817  -0.1276633), wk =   0.1111111
        k(    8) = (   0.3908073   0.4512654  -0.0638316), wk =   0.1111111
        k(    9) = (   0.1954036   0.3384490   0.0000000), wk =   0.0555556
        k(   10) = (  -0.3908073   0.2256327   0.2553266), wk =   0.0555556
        k(   11) = (   0.5862109   0.7897144  -0.0638316), wk =   0.1111111
        k(   12) = (   0.3908073   0.6768980   0.0000000), wk =   0.0555556
        k(   13) = (   0.5862109  -0.3384490  -0.3829899), wk =   0.0277778
        k(   14) = (  -0.0000000   0.0000000   0.1914949), wk =   0.0185185
        k(   15) = (  -0.1954036  -0.1128163   0.2553266), wk =   0.0555556
        k(   16) = (   0.7816145   0.4512654  -0.0638316), wk =   0.0555556
        k(   17) = (   0.5862109   0.3384490   0.0000000), wk =   0.0555556
        k(   18) = (   0.3908073   0.2256327   0.0638316), wk =   0.0555556
        k(   19) = (  -0.1954036   0.1128163   0.3191582), wk =   0.0555556
        k(   20) = (   0.7816145   0.6768980   0.0000000), wk =   0.1111111
        k(   21) = (   0.5862109   0.5640817   0.0638316), wk =   0.1111111
        k(   22) = (   0.3908073   0.4512654   0.1276633), wk =   0.1111111
        k(   23) = (   0.7816145  -0.4512654  -0.3191582), wk =   0.0555556
        k(   24) = (   0.5862109  -0.5640817  -0.2553266), wk =   0.1111111
        k(   25) = (   0.3908073  -0.6768980  -0.1914949), wk =   0.0555556
        k(   26) = (   0.5862109  -0.3384490  -0.1914949), wk =   0.0555556
        k(   27) = (  -0.0000000   0.0000000   0.3829899), wk =   0.0185185
        k(   28) = (   0.9770182   0.5640817   0.0638316), wk =   0.0555556
        k(   29) = (   0.7816145   0.4512654   0.1276633), wk =   0.0555556
        k(   30) = (   0.9770182  -0.5640817  -0.2553266), wk =   0.0555556
        k(   31) = (   0.7816145  -0.6768980  -0.1914949), wk =   0.0555556
        k(   32) = (   0.0000000   0.0000000  -0.5744848), wk =   0.0092593

     Dense  grid:    21229 G-vectors     FFT dimensions: (  45,  45,  45)

     Estimated max dynamical RAM per process >      16.59 MB

     Estimated total dynamical RAM >     132.72 MB

     Initial potential from superposition of free atoms

     starting charge      18.9930, renormalised to      19.0000
     Starting wfcs are   18 randomized atomic wfcs

     total cpu time spent up to now is        0.9 secs

     Self-consistent Calculation

     iteration #  1     ecut=    80.00 Ry     beta= 0.70
     Davidson diagonalization with overlap
     ethr =  1.00E-02,  avg # of iterations =  6.0

     Threshold (ethr) on eigenvalues was too large:
     Diagonalizing with lowered threshold

     Davidson diagonalization with overlap
     ethr =  3.14E-04,  avg # of iterations =  3.6

     total cpu time spent up to now is        2.5 secs

     total energy              =     -46.73834591 Ry
     estimated scf accuracy    <       0.06075480 Ry

     iteration #  2     ecut=    80.00 Ry     beta= 0.70
     Davidson diagonalization with overlap
     ethr =  3.20E-04,  avg # of iterations =  1.6

     total cpu time spent up to now is        3.0 secs

     total energy              =     -46.74188814 Ry
     estimated scf accuracy    <       0.00496498 Ry

     iteration #  3     ecut=    80.00 Ry     beta= 0.70
     Davidson diagonalization with overlap
     c_bands:  1 eigenvalues not converged
     ethr =  2.61E-05,  avg # of iterations =  4.1

     total cpu time spent up to now is        3.5 secs

     total energy              =     -46.74268095 Ry
     estimated scf accuracy    <       0.00079199 Ry

     iteration #  4     ecut=    80.00 Ry     beta= 0.70
     Davidson diagonalization with overlap
     ethr =  4.17E-06,  avg # of iterations =  3.7

     total cpu time spent up to now is        4.1 secs

     total energy              =     -46.74284071 Ry
     estimated scf accuracy    <       0.00001096 Ry

     iteration #  5     ecut=    80.00 Ry     beta= 0.70
     Davidson diagonalization with overlap
     ethr =  5.77E-08,  avg # of iterations =  3.4

     total cpu time spent up to now is        4.7 secs

     total energy              =     -46.74284500 Ry
     estimated scf accuracy    <       0.00000041 Ry

     iteration #  6     ecut=    80.00 Ry     beta= 0.70
     Davidson diagonalization with overlap
     ethr =  2.14E-09,  avg # of iterations =  3.1

     total cpu time spent up to now is        5.2 secs

     total energy              =     -46.74284514 Ry
     estimated scf accuracy    <       0.00000002 Ry

     iteration #  7     ecut=    80.00 Ry     beta= 0.70
     Davidson diagonalization with overlap
     ethr =  9.31E-11,  avg # of iterations =  2.9

     total cpu time spent up to now is        5.7 secs

     End of self-consistent calculation

          k = 0.0000 0.0000 0.0000 (  2683 PWs)   bands (ev):

   -25.5266   0.9915  12.1987  12.3223  16.0373  16.0373  16.2471  16.2471
    20.5918  20.5918  20.8677  20.8677  21.1627  21.9633

          k =-0.1954-0.1128 0.0638 (  2658 PWs)   bands (ev):

   -25.5221   1.4360  11.4505  12.3465  13.6587  14.3884  16.6909  17.4947
    18.5954  19.1934  21.5810  23.3018  24.5256  24.5278

          k =-0.3908-0.2256 0.1277 (  2668 PWs)   bands (ev):

   -25.5132   2.7451   8.4572  11.3183  13.4333  15.2420  15.6037  15.8700
    17.0713  21.7162  22.6037  26.1333  26.4171  28.9862

          k = 0.5862 0.3384-0.1915 (  2664 PWs)   bands (ev):

   -25.5088   4.2878   6.0460  11.3666  13.1520  14.7844  15.2395  15.8640
    17.3255  21.1849  25.3466  26.8279  27.3312  29.1973

          k =-0.1954 0.1128 0.1277 (  2660 PWs)   bands (ev):

   -25.5217   1.5206  10.5074  13.1569  13.4600  14.2269  15.9383  17.5001
    19.3311  20.6129  22.6469  23.1289  23.9771  24.0788

          k =-0.3908 0.0000 0.1915 (  2657 PWs)   bands (ev):

   -25.5148   2.4909   9.9141  10.4382  11.7527  13.8994  17.2976  18.3568
    18.9787  20.1522  22.6988  26.0839  26.4787  27.0531

          k = 0.5862 0.5641-0.1277 (  2669 PWs)   bands (ev):

   -25.5084   4.2257   6.9072  10.2633  11.3063  13.2959  16.8302  18.4569
    19.3847  21.8864  22.5318  25.9126  27.5558  29.7356

          k = 0.3908 0.4513-0.0638 (  2675 PWs)   bands (ev):

   -25.5089   3.8485   7.4885  10.3504  12.0360  13.2636  15.7857  17.3474
    18.8131  22.9742  23.3161  27.0084  27.2594  28.3281

          k = 0.1954 0.3384 0.0000 (  2663 PWs)   bands (ev):

   -25.5157   2.2351  10.8771  11.0985  12.5304  13.3234  15.6052  17.1018
    19.1937  19.5773  23.6019  25.0874  26.7856  27.0500

          k =-0.3908 0.2256 0.2553 (  2665 PWs)   bands (ev):

   -25.5121   3.1102   9.0611  10.0725  11.8171  12.0887  15.8891  19.5356
    20.7666  23.6322  25.0819  25.7972  25.9488  26.9902

          k = 0.5862 0.7897-0.0638 (  2662 PWs)   bands (ev):

   -25.5077   4.5920   7.6307   9.0250  10.2521  12.1082  17.8674  19.8391
    21.7614  21.8386  24.4159  26.8922  27.3721  28.0222

          k = 0.3908 0.6769 0.0000 (  2663 PWs)   bands (ev):

   -25.5061   5.6233   6.9607   7.7388  11.1406  12.1798  17.9691  18.6600
    22.1257  22.6363  22.8036  25.9015  26.7200  28.5170

          k = 0.5862-0.3384-0.3830 (  2646 PWs)   bands (ev):

   -25.5073   5.5975   5.8753   9.8543  10.9562  11.2669  15.5607  22.5404
    22.9640  23.8716  24.8158  25.9645  26.8038  27.2396

          k =-0.0000 0.0000 0.1915 (  2655 PWs)   bands (ev):

   -25.5252   1.2358   9.2239  15.3019  15.3019  15.5899  16.9554  16.9554
    19.3286  19.3286  20.9063  22.4328  23.4086  23.4086

          k =-0.1954-0.1128 0.2553 (  2659 PWs)   bands (ev):

   -25.5203   1.8419   8.6559  11.7240  14.6493  16.2094  17.1000  18.2062
    18.4727  20.1948  21.7065  22.7547  25.1197  27.4925

          k = 0.7816 0.4513-0.0638 (  2677 PWs)   bands (ev):

   -25.5120   3.3134   7.7507   9.2721  13.1177  15.9564  16.4045  17.3996
    19.0108  21.5669  22.1173  24.9234  25.9972  31.1670

          k = 0.5862 0.3384 0.0000 (  2667 PWs)   bands (ev):

   -25.5084   4.4313   6.3056  10.1236  12.3649  15.2792  15.7593  16.6533
    17.0376  22.3810  26.7274  26.8433  27.8426  29.0018

          k = 0.3908 0.2256 0.0638 (  2660 PWs)   bands (ev):

   -25.5133   2.6740   9.2938  11.6658  12.4697  12.9173  15.6171  16.7632
    17.8603  23.0511  23.4952  26.3167  26.8793  28.3895

          k =-0.1954 0.1128 0.3192 (  2651 PWs)   bands (ev):

   -25.5195   2.0715   7.8680  12.7567  12.9821  15.4546  16.8521  18.9373
    19.4888  22.5513  23.3046  23.9110  24.3156  26.0922

          k = 0.7816 0.6769 0.0000 (  2658 PWs)   bands (ev):

   -25.5131   3.1885   7.7419   9.8071  11.3966  15.1766  18.2977  18.8174
    20.7781  21.6999  22.3314  25.3265  26.1826  28.6440

          k = 0.5862 0.5641 0.0638 (  2668 PWs)   bands (ev):

   -25.5076   5.0329   6.6252   8.5766  10.5692  14.5120  17.5703  18.3827
    19.8093  22.4614  24.2275  26.5439  27.7803  28.7906

          k = 0.3908 0.4513 0.1277 (  2670 PWs)   bands (ev):

   -25.5085   3.9761   8.2191   9.2995  11.0816  12.8729  16.8802  18.0757
    18.9600  23.5688  25.1608  25.7456  27.2609  28.6320

          k = 0.7816-0.4513-0.3192 (  2644 PWs)   bands (ev):

   -25.5108   3.9069   7.2436   9.0359  11.7182  13.7057  15.9139  21.8646
    22.8702  22.9611  24.4825  24.5581  26.6402  27.2772

          k = 0.5862-0.5641-0.2553 (  2666 PWs)   bands (ev):

   -25.5073   5.4541   6.6087   8.2142  10.1213  13.5319  17.7946  19.0014
    22.6217  23.2893  23.4757  26.2082  27.3276  28.5440

          k = 0.3908-0.6769-0.1915 (  2662 PWs)   bands (ev):

   -25.5061   5.6279   6.8980   7.8571  10.7237  12.7975  16.5741  21.2598
    21.4680  22.1333  22.6747  24.3840  28.1720  28.3427

          k = 0.5862-0.3384-0.1915 (  2652 PWs)   bands (ev):

   -25.5077   4.9034   6.5211   9.1700  11.5524  12.7428  15.6250  19.3425
    20.4007  24.2222  26.7235  26.9319  27.6142  28.4308

          k =-0.0000 0.0000 0.3830 (  2649 PWs)   bands (ev):

   -25.5225   1.8851   6.8401  14.9422  14.9422  16.3494  16.3494  18.1770
    20.6257  20.6257  21.2315  23.2569  26.7476  26.7476

          k = 0.9770 0.5641 0.0638 (  2648 PWs)   bands (ev):

   -25.5181   2.5733   6.5821  11.5887  13.7010  16.3856  18.1215  19.3403
    19.7950  21.2212  22.9138  23.6228  24.9837  27.4179

          k = 0.7816 0.4513 0.1277 (  2650 PWs)   bands (ev):

   -25.5107   4.1129   6.7726   8.5783  12.1859  15.5051  16.5310  18.7963
    21.7540  22.1993  23.5714  25.2353  26.6192  28.5359

          k = 0.9770-0.5641-0.2553 (  2641 PWs)   bands (ev):

   -25.5177   2.7729   6.1919  11.9667  13.0671  16.0125  18.4110  18.6267
    20.9401  22.1664  23.6108  24.2055  25.4071  27.5206

          k = 0.7816-0.6769-0.1915 (  2652 PWs)   bands (ev):

   -25.5123   3.7681   6.5985   9.6717  11.0986  16.6387  18.2150  18.3943
    19.6880  24.1524  25.0903  25.3311  25.9432  26.0803

          k = 0.0000 0.0000-0.5745 (  2616 PWs)   bands (ev):

   -25.5211   2.3875   5.7513  14.9265  14.9265  15.8568  15.8568  18.7480
    22.1646  22.7288  22.7288  23.6976  24.0768  24.0768

     the Fermi energy is    22.1660 ev

!    total energy              =     -46.74284515 Ry
     estimated scf accuracy    <          6.9E-10 Ry
     smearing contrib. (-TS)   =       0.00078772 Ry
     internal energy E=F+TS    =     -46.74363287 Ry

     The total energy is F=E-TS. E is the sum of the following terms:
     one-electron contribution =      28.50854171 Ry
     hartree contribution      =       2.71944167 Ry
     xc contribution           =     -18.66178005 Ry
     ewald contribution        =     -59.30983620 Ry

     convergence has been achieved in   7 iterations

     Forces acting on atoms (cartesian axes, Ry/au):

     atom    1 type  1   force =     0.00000000   -0.00000000   -0.00000000
     atom    2 type  2   force =    -0.00000000   -0.00000000    0.22880316
     atom    3 type  2   force =    -0.00000000    0.00000000   -0.22880316
     atom    4 type  2   force =    -0.00000000   -0.00000000    0.04996587
     atom    5 type  2   force =     0.00000000   -0.00000000   -0.04996587
     The non-local contrib.  to forces
     atom    1 type  1   force =     0.00000000    0.00000000   -0.00000000
     atom    2 type  2   force =     0.00000000   -0.00000000    0.14631980
     atom    3 type  2   force =     0.00000000    0.00000000   -0.14631980
     atom    4 type  2   force =    -0.00000000   -0.00000000    0.10192448
     atom    5 type  2   force =    -0.00000000   -0.00000000   -0.10192448
     The ionic contribution  to forces
     atom    1 type  1   force =    -0.00000000    0.00000000   -0.00000000
     atom    2 type  2   force =    -0.00000000   -0.00000000    0.53168144
     atom    3 type  2   force =     0.00000000    0.00000000   -0.53168144
     atom    4 type  2   force =     0.00000000   -0.00000000   -0.10272022
     atom    5 type  2   force =    -0.00000000    0.00000000    0.10272022
     The local contribution  to forces
     atom    1 type  1   force =    -0.00000000    0.00000000    0.00000000
     atom    2 type  2   force =    -0.00000000   -0.00000000   -0.43631884
     atom    3 type  2   force =     0.00000000    0.00000000    0.43631884
     atom    4 type  2   force =    -0.00000000   -0.00000000    0.05722212
     atom    5 type  2   force =     0.00000000    0.00000000   -0.05722212
     The core correction contribution to forces
     atom    1 type  1   force =     0.00000000    0.00000000    0.00000000
     atom    2 type  2   force =     0.00000000    0.00000000   -0.01289613
     atom    3 type  2   force =    -0.00000000   -0.00000000    0.01289613
     atom    4 type  2   force =    -0.00000000    0.00000000   -0.00644870
     atom    5 type  2   force =     0.00000000   -0.00000000    0.00644870
     The Hubbard contrib.    to forces
     atom    1 type  1   force =     0.00000000    0.00000000    0.00000000
     atom    2 type  2   force =     0.00000000    0.00000000    0.00000000
     atom    3 type  2   force =     0.00000000    0.00000000    0.00000000
     atom    4 type  2   force =     0.00000000    0.00000000    0.00000000
     atom    5 type  2   force =     0.00000000    0.00000000    0.00000000
     The SCF correction term to forces
     atom    1 type  1   force =    -0.00000000    0.00000000    0.00000000
     atom    2 type  2   force =     0.00000000   -0.00000000    0.00001689
     atom    3 type  2   force =    -0.00000000    0.00000000   -0.00001689
     atom    4 type  2   force =     0.00000000    0.00000000   -0.00001182
     atom    5 type  2   force =    -0.00000000   -0.00000000    0.00001182

     Total force =     0.331202     Total SCF correction =     0.000029


     Computing stress (Cartesian axis) and pressure

          total   stress  (Ry/bohr**3)                   (kbar)     P=     3048.00
   0.01975013  -0.00000000  -0.00000000         2905.34       -0.00       -0.00
   0.00000000   0.01975013   0.00000000            0.00     2905.34        0.00
   0.00000000   0.00000000   0.02265929            0.00        0.00     3333.30


     BFGS Geometry Optimization
     Energy error            =      0.0E+00 Ry
     Gradient error          =      2.3E-01 Ry/Bohr
     Cell gradient error     =      2.8E+03 kbar

     number of scf cycles    =   1
     number of bfgs steps    =   0

     enthalpy           new  =     -45.9940956999 Ry

     new trust radius        =       0.5000000000 bohr
ibrav =      5
 celldm(1) =      8.57641753
 celldm(4) =      0.64824455
Input lattice vectors:
     0.48745146    -0.28143023     1.01694514
    -0.00000000     0.56286046     1.01694514
    -0.48745146    -0.28143023     1.01694514
New lattice vectors in INITIAL alat:
     0.48745146    -0.28143023     1.01694514
     0.00000000     0.56286046     1.01694514
    -0.48745146    -0.28143023     1.01694514
New lattice vectors in NEW alat (for information only):
     0.41937778    -0.24212787     0.87492649
     0.00000000     0.48425575     0.87492649
    -0.41937778    -0.24212787     0.87492649
Discrepancy in bohr =     0.000000    0.000000    0.000000
     new conv_thr            =       0.0000000100 Ry

     new unit-cell volume =    336.27205 a.u.^3 (    49.83038 Ang^3 )
     density =      3.97497 g/cm^3

CELL_PARAMETERS (alat=  7.37870180)
   0.487451459  -0.281430231   1.016945139
   0.000000000   0.562860462   1.016945139
  -0.487451459  -0.281430231   1.016945139

ATOMIC_POSITIONS (crystal)
Li            0.5000000000        0.5000000000        0.5000000000
Si            0.1010840665        0.1010840665        0.1010840665
Si            0.8989159335        0.8989159335        0.8989159335
Si            0.3009102341        0.3009102341        0.3009102341
Si            0.6990897659        0.6990897659        0.6990897659



     Writing config-only to output data dir ./output/LiSi.save/
     NEW-OLD atomic charge density approx. for the potential
     extrapolated charge   25.55080, renormalised to   19.00000

     total cpu time spent up to now is        6.8 secs

     Self-consistent Calculation

     iteration #  1     ecut=    80.00 Ry     beta= 0.70
     Davidson diagonalization with overlap
     c_bands:  1 eigenvalues not converged
     c_bands:  1 eigenvalues not converged
     c_bands:  1 eigenvalues not converged
     c_bands:  1 eigenvalues not converged
     ethr =  1.00E-06,  avg # of iterations = 15.4

     total cpu time spent up to now is        8.7 secs

     total energy              =     -47.85148988 Ry
     estimated scf accuracy    <       0.02910013 Ry

     iteration #  2     ecut=    80.00 Ry     beta= 0.70
     Davidson diagonalization with overlap
     ethr =  1.53E-04,  avg # of iterations =  3.3

     total cpu time spent up to now is        9.4 secs

     total energy              =     -47.93485794 Ry
     estimated scf accuracy    <       0.02912701 Ry

     iteration #  3     ecut=    80.00 Ry     beta= 0.70
     Davidson diagonalization with overlap
     ethr =  1.53E-04,  avg # of iterations =  1.2

     total cpu time spent up to now is        9.9 secs

     total energy              =     -47.93281772 Ry
     estimated scf accuracy    <       0.00714037 Ry

     iteration #  4     ecut=    80.00 Ry     beta= 0.70
     Davidson diagonalization with overlap
     ethr =  3.76E-05,  avg # of iterations =  2.2

     total cpu time spent up to now is       10.4 secs

     total energy              =     -47.93224958 Ry
     estimated scf accuracy    <       0.00143503 Ry

     iteration #  5     ecut=    80.00 Ry     beta= 0.70
     Davidson diagonalization with overlap
     ethr =  7.55E-06,  avg # of iterations =  2.8

     total cpu time spent up to now is       11.0 secs

     total energy              =     -47.93256072 Ry
     estimated scf accuracy    <       0.00007574 Ry

     iteration #  6     ecut=    80.00 Ry     beta= 0.70
     Davidson diagonalization with overlap
     ethr =  3.99E-07,  avg # of iterations =  3.8

     total cpu time spent up to now is       11.7 secs

     total energy              =     -47.93256560 Ry
     estimated scf accuracy    <       0.00000799 Ry

     iteration #  7     ecut=    80.00 Ry     beta= 0.70
     Davidson diagonalization with overlap
     ethr =  4.21E-08,  avg # of iterations =  2.3

     total cpu time spent up to now is       12.3 secs

     total energy              =     -47.93256745 Ry
     estimated scf accuracy    <       0.00000004 Ry

     iteration #  8     ecut=    80.00 Ry     beta= 0.70
     Davidson diagonalization with overlap
     ethr =  2.28E-10,  avg # of iterations =  4.8

     total cpu time spent up to now is       13.0 secs

     End of self-consistent calculation

          k = 0.0000 0.0000 0.0000 (  2683 PWs)   bands (ev):

   -32.2318  -2.4039   6.3157   6.4973  10.0201  10.0201  10.5180  10.5180
    12.0912  12.8757  13.3654  13.3654  14.4022  14.4022

          k =-0.1710-0.0987 0.0546 (  2658 PWs)   bands (ev):

   -32.2305  -2.0389   5.7425   6.9565   7.5982   8.8560   9.8880  11.1349
    11.4467  12.8732  13.4012  15.0549  15.6821  16.9137

          k =-0.3419-0.1974 0.1093 (  2668 PWs)   bands (ev):

   -32.2294  -0.9600   3.5771   5.9565   8.0830   8.4632   9.2729   9.9085
     9.9155  13.4473  15.5366  16.6050  17.4468  20.5606

          k = 0.5129 0.2961-0.1639 (  2664 PWs)   bands (ev):

   -32.2287   0.3837   1.5390   6.2086   7.6398   7.8508   9.4286   9.4346
    10.5499  12.8522  15.7101  18.9679  19.1507  19.9697

          k =-0.1710 0.0987 0.1093 (  2660 PWs)   bands (ev):

   -32.2306  -1.9677   4.9719   7.6132   8.1333   8.2124   9.0561  11.0164
    12.7218  13.6187  14.2845  15.0167  15.6091  15.6226

          k =-0.3419-0.0000 0.1639 (  2657 PWs)   bands (ev):

   -32.2294  -1.1713   4.5532   5.3103   6.4241   8.0642  10.3392  11.3349
    12.2657  12.8165  14.8419  16.9558  17.7439  17.9066

          k = 0.5129 0.4935-0.1093 (  2669 PWs)   bands (ev):

   -32.2287   0.2761   2.3050   5.0823   5.9812   7.5115   9.7243  11.8791
    12.4656  13.2284  14.9781  16.5923  19.2180  20.5667

          k = 0.3419 0.3948-0.0546 (  2675 PWs)   bands (ev):

   -32.2290  -0.0484   2.7931   5.2446   6.7070   7.3666   8.8190  10.4592
    12.0616  14.6699  15.4857  17.4264  18.9333  19.2167

          k = 0.1710 0.2961 0.0000 (  2663 PWs)   bands (ev):

   -32.2296  -1.3847   5.4870   5.9374   7.0245   7.4322   8.7733  10.3082
    12.4026  12.6596  15.3396  16.5867  17.8719  17.9043

          k =-0.3419 0.1974 0.2185 (  2665 PWs)   bands (ev):

   -32.2293  -0.6672   4.0513   4.8415   6.1731   6.8279   9.4611  12.0559
    13.6625  15.8808  15.9544  17.0186  18.0728  18.4144

          k = 0.5129 0.6909-0.0546 (  2662 PWs)   bands (ev):

   -32.2285   0.5396   3.0474   3.9727   4.9388   6.5944  11.1144  12.2564
    14.0242  14.3727  16.0091  18.1187  18.5380  18.7726

          k = 0.3419 0.5922 0.0000 (  2663 PWs)   bands (ev):

   -32.2282   1.4548   2.3314   3.0733   5.6393   6.7154  10.5444  11.4660
    14.5821  15.3775  15.4025  16.7605  17.3676  18.9682

          k = 0.5129-0.2961-0.3278 (  2646 PWs)   bands (ev):

   -32.2281   1.2498   1.7139   4.5742   5.1829   6.3885   9.1491  14.8879
    15.1811  15.2499  15.9049  17.3560  17.5777  19.6492

          k =-0.0000-0.0000 0.1639 (  2655 PWs)   bands (ev):

   -32.2311  -2.1940   3.9034   9.2843   9.5959   9.5959  10.8944  10.8944
    11.7695  12.7798  12.7798  13.2862  15.9785  15.9785

          k =-0.1710-0.0987 0.2185 (  2659 PWs)   bands (ev):

   -32.2304  -1.6917   3.4545   6.4269   9.0959  10.1410  10.6894  10.8628
    12.1687  12.4665  13.6714  14.8464  16.2616  17.5684

          k = 0.6838 0.3948-0.0546 (  2677 PWs)   bands (ev):

   -32.2295  -0.4794   2.9421   4.1692   7.8443   9.4738  10.3004  10.4759
    11.5936  13.2728  15.2330  15.5345  17.3460  21.4271

          k = 0.5129 0.2961 0.0000 (  2667 PWs)   bands (ev):

   -32.2288   0.4660   1.8121   4.8494   7.2392   8.5869   9.5874   9.7454
    10.5105  13.7069  17.2388  18.8624  19.3744  19.8388

          k = 0.3419 0.1974 0.0546 (  2660 PWs)   bands (ev):

   -32.2293  -1.0251   4.3183   6.1949   6.8999   7.3315   8.7657   9.9545
    11.4521  14.3241  16.0810  17.3188  18.8408  18.9181

          k =-0.1710 0.0987 0.2731 (  2651 PWs)   bands (ev):

   -32.2301  -1.4925   2.8068   7.2886   7.7686   8.8384  10.6560  12.1088
    12.9411  14.3650  14.9692  15.2882  16.5176  16.7305

          k = 0.6838 0.5922 0.0000 (  2658 PWs)   bands (ev):

   -32.2293  -0.5731   2.7407   4.8113   6.1831   8.9879  11.7001  12.0297
    13.4699  13.7819  14.1674  16.6074  17.6237  19.3104

          k = 0.5129 0.4935 0.0546 (  2668 PWs)   bands (ev):

   -32.2287   0.9665   2.0794   3.5802   5.4077   8.6787  10.3048  11.6105
    12.3905  15.0598  15.4224  17.8212  18.3795  19.6124

          k = 0.3419 0.3948 0.1093 (  2670 PWs)   bands (ev):

   -32.2288   0.0422   3.4787   4.2763   5.6371   7.2870   9.8039  11.0169
    12.0853  15.9473  16.3703  16.7362  18.9954  19.1029

          k = 0.6838-0.3948-0.2731 (  2644 PWs)   bands (ev):

   -32.2286   0.0241   2.4174   4.0644   6.7535   7.4015   9.6614  14.2336
    15.0149  15.7104  16.0070  16.5152  17.2600  17.9156

          k = 0.5129-0.4935-0.2185 (  2666 PWs)   bands (ev):

   -32.2286   1.2989   2.1215   3.2571   4.9988   7.7139  10.9964  11.7423
    14.9024  15.1340  15.5636  17.2116  18.3958  19.5590

          k = 0.3419-0.5922-0.1639 (  2662 PWs)   bands (ev):

   -32.2282   1.4675   2.2543   3.2093   5.2731   7.3620   9.3616  13.6056
    13.8557  14.5989  15.3286  15.8244  18.6700  18.9793

          k = 0.5129-0.2961-0.1639 (  2652 PWs)   bands (ev):

   -32.2283   0.7930   2.1423   3.9211   6.6098   6.6843   9.2856  12.3965
    12.5421  15.3226  17.8149  18.3711  19.2460  19.8273

          k =-0.0000-0.0000 0.3278 (  2649 PWs)   bands (ev):

   -32.2307  -1.6160   1.9324   9.3273   9.3273  10.4516  10.4516  11.0493
    12.6496  13.7693  13.7693  14.0076  16.2793  18.4003

          k = 0.8548 0.4935 0.0546 (  2648 PWs)   bands (ev):

   -32.2298  -1.0322   1.7228   6.3137   8.3380   9.9145  11.5919  12.6930
    13.0472  13.6985  14.3713  14.7745  16.4451  17.7517

          k = 0.6838 0.3948 0.1093 (  2650 PWs)   bands (ev):

   -32.2287   0.2343   2.0018   3.6775   7.1184   8.6951  10.4848  12.0780
    13.1535  14.9761  15.3738  16.7084  18.1672  19.4558

          k = 0.8548-0.4935-0.2185 (  2641 PWs)   bands (ev):

   -32.2296  -0.8349   1.3736   6.6149   7.8394   9.4319  11.9099  12.2132
    13.4839  14.9537  15.2703  15.4435  17.0051  17.3819

          k = 0.6838-0.5922-0.1639 (  2652 PWs)   bands (ev):

   -32.2291  -0.0252   1.7477   4.6972   5.9457  10.2824  11.1308  11.7282
    12.8767  15.6511  16.4253  16.8071  17.6803  17.8217

          k = 0.0000 0.0000-0.4917 (  2616 PWs)   bands (ev):

   -32.2295  -1.1182   0.9677   9.3030   9.3030  10.1009  10.1009  10.9759
    13.8900  14.8871  15.3064  15.3064  16.4554  16.4554

     the Fermi energy is    14.3275 ev

!    total energy              =     -47.93256751 Ry
     estimated scf accuracy    <          7.5E-09 Ry
     smearing contrib. (-TS)   =      -0.00045805 Ry
     internal energy E=F+TS    =     -47.93210946 Ry

     The total energy is F=E-TS. E is the sum of the following terms:
     one-electron contribution =      17.68328562 Ry
     hartree contribution      =       2.89536688 Ry
     xc contribution           =     -16.95431512 Ry
     ewald contribution        =     -51.55644684 Ry

     convergence has been achieved in   8 iterations

     Forces acting on atoms (cartesian axes, Ry/au):

     atom    1 type  1   force =    -0.00000000   -0.00000000   -0.00000000
     atom    2 type  2   force =    -0.00000000   -0.00000000    0.02202713
     atom    3 type  2   force =    -0.00000000   -0.00000000   -0.02202713
     atom    4 type  2   force =     0.00000000   -0.00000000   -0.00940157
     atom    5 type  2   force =    -0.00000000    0.00000000    0.00940157
     The non-local contrib.  to forces
     atom    1 type  1   force =    -0.00000000    0.00000000    0.00000000
     atom    2 type  2   force =    -0.00000000   -0.00000000    0.01622578
     atom    3 type  2   force =     0.00000000    0.00000000   -0.01622578
     atom    4 type  2   force =     0.00000000   -0.00000000    0.00317480
     atom    5 type  2   force =     0.00000000   -0.00000000   -0.00317480
     The ionic contribution  to forces
     atom    1 type  1   force =    -0.00000000   -0.00000000   -0.00000000
     atom    2 type  2   force =    -0.00000000   -0.00000000    0.17387999
     atom    3 type  2   force =    -0.00000000    0.00000000   -0.17387999
     atom    4 type  2   force =    -0.00000000   -0.00000000   -0.00963701
     atom    5 type  2   force =    -0.00000000    0.00000000    0.00963701
     The local contribution  to forces
     atom    1 type  1   force =     0.00000000    0.00000000    0.00000000
     atom    2 type  2   force =    -0.00000000   -0.00000000   -0.16592233
     atom    3 type  2   force =    -0.00000000    0.00000000    0.16592233
     atom    4 type  2   force =     0.00000000   -0.00000000   -0.00169502
     atom    5 type  2   force =    -0.00000000    0.00000000    0.00169502
     The core correction contribution to forces
     atom    1 type  1   force =     0.00000000    0.00000000    0.00000000
     atom    2 type  2   force =     0.00000000    0.00000000   -0.00220886
     atom    3 type  2   force =     0.00000000   -0.00000000    0.00220886
     atom    4 type  2   force =    -0.00000000   -0.00000000   -0.00120894
     atom    5 type  2   force =     0.00000000    0.00000000    0.00120894
     The Hubbard contrib.    to forces
     atom    1 type  1   force =     0.00000000    0.00000000    0.00000000
     atom    2 type  2   force =     0.00000000    0.00000000    0.00000000
     atom    3 type  2   force =     0.00000000    0.00000000    0.00000000
     atom    4 type  2   force =     0.00000000    0.00000000    0.00000000
     atom    5 type  2   force =     0.00000000    0.00000000    0.00000000
     The SCF correction term to forces
     atom    1 type  1   force =    -0.00000000    0.00000000   -0.00000000
     atom    2 type  2   force =    -0.00000000   -0.00000000    0.00005255
     atom    3 type  2   force =     0.00000000    0.00000000   -0.00005255
     atom    4 type  2   force =     0.00000000   -0.00000000   -0.00003540
     atom    5 type  2   force =    -0.00000000    0.00000000    0.00003540

     Total force =     0.033870     Total SCF correction =     0.000090


     Computing stress (Cartesian axis) and pressure

          total   stress  (Ry/bohr**3)                   (kbar)     P=      575.49
   0.00373700  -0.00000000   0.00000000          549.73       -0.00        0.00
  -0.00000000   0.00373700   0.00000000           -0.00      549.73        0.00
  -0.00000000   0.00000000   0.00426229           -0.00        0.00      627.00

     Energy error            =      8.0E-01 Ry
     Gradient error          =      2.2E-02 Ry/Bohr
     Cell gradient error     =      1.3E+02 kbar

     number of scf cycles    =   2
     number of bfgs steps    =   1

     enthalpy           old  =     -45.9940956999 Ry
     enthalpy           new  =     -46.7896020373 Ry

     CASE: enthalpy          _new < enthalpy          _old

     new trust radius        =       0.0504336507 bohr
ibrav =      5
 celldm(1) =      8.66761042
 celldm(4) =      0.65534142
Input lattice vectors:
     0.48763961    -0.28153886     1.03092950
     0.00000000     0.56307772     1.03092950
    -0.48763961    -0.28153886     1.03092950
New lattice vectors in INITIAL alat:
     0.48763961    -0.28153886     1.03092950
     0.00000000     0.56307772     1.03092950
    -0.48763961    -0.28153886     1.03092950
New lattice vectors in NEW alat (for information only):
     0.41512563    -0.23967290     0.87762612
     0.00000000     0.47934579     0.87762612
    -0.41512563    -0.23967290     0.87762612
Discrepancy in bohr =     0.000000    0.000000    0.000000
     new conv_thr            =       0.0000000022 Ry

     new unit-cell volume =    341.15946 a.u.^3 (    50.55462 Ang^3 )
     density =      3.91802 g/cm^3

CELL_PARAMETERS (alat=  7.37870180)
   0.487639608  -0.281538859   1.030929497
   0.000000000   0.563077718   1.030929497
  -0.487639608  -0.281538859   1.030929497

ATOMIC_POSITIONS (crystal)
Li            0.5000000000        0.5000000000        0.5000000000
Si            0.1021485085        0.1021485085        0.1021485085
Si            0.8978514915        0.8978514915        0.8978514915
Si            0.3002434381        0.3002434381        0.3002434381
Si            0.6997565619        0.6997565619        0.6997565619



     Writing config-only to output data dir ./output/LiSi.save/
     NEW-OLD atomic charge density approx. for the potential
     extrapolated charge   19.27209, renormalised to   19.00000

     total cpu time spent up to now is       14.1 secs

     Self-consistent Calculation

     iteration #  1     ecut=    80.00 Ry     beta= 0.70
     Davidson diagonalization with overlap
     ethr =  1.00E-06,  avg # of iterations =  8.9

     total cpu time spent up to now is       15.2 secs

     total energy              =     -47.95262711 Ry
     estimated scf accuracy    <       0.00014396 Ry

     iteration #  2     ecut=    80.00 Ry     beta= 0.70
     Davidson diagonalization with overlap
     ethr =  7.58E-07,  avg # of iterations =  2.1

     total cpu time spent up to now is       15.9 secs

     total energy              =     -47.95277003 Ry
     estimated scf accuracy    <       0.00003326 Ry

     iteration #  3     ecut=    80.00 Ry     beta= 0.70
     Davidson diagonalization with overlap
     ethr =  1.75E-07,  avg # of iterations =  1.8

     total cpu time spent up to now is       16.4 secs

     total energy              =     -47.95277084 Ry
     estimated scf accuracy    <       0.00000384 Ry

     iteration #  4     ecut=    80.00 Ry     beta= 0.70
     Davidson diagonalization with overlap
     ethr =  2.02E-08,  avg # of iterations =  2.1

     total cpu time spent up to now is       16.9 secs

     total energy              =     -47.95277126 Ry
     estimated scf accuracy    <       0.00000050 Ry

     iteration #  5     ecut=    80.00 Ry     beta= 0.70
     Davidson diagonalization with overlap
     ethr =  2.65E-09,  avg # of iterations =  2.6

     total cpu time spent up to now is       17.5 secs

     total energy              =     -47.95277140 Ry
     estimated scf accuracy    <       0.00000001 Ry

     iteration #  6     ecut=    80.00 Ry     beta= 0.70
     Davidson diagonalization with overlap
     ethr =  7.65E-11,  avg # of iterations =  3.3

     total cpu time spent up to now is       18.1 secs

     End of self-consistent calculation

          k = 0.0000 0.0000 0.0000 (  2683 PWs)   bands (ev):

   -32.4522  -2.4722   5.9843   6.1983   9.8966   9.8966  10.4900  10.4900
    11.9098  12.8434  13.1584  13.1584  14.1749  14.1749

          k =-0.1709-0.0987 0.0539 (  2658 PWs)   bands (ev):

   -32.4509  -2.1081   5.4519   6.8701   7.2683   8.7819   9.7633  10.9369
    11.2768  12.7929  13.1986  14.9115  15.5636  16.6744

          k =-0.3418-0.1973 0.1078 (  2668 PWs)   bands (ev):

   -32.4499  -1.0312   3.4772   5.7231   8.0216   8.2217   8.9427   9.6949
     9.8200  13.1595  15.4671  16.2701  17.2808  20.3039

          k = 0.5127 0.2960-0.1617 (  2664 PWs)   bands (ev):

   -32.4490   0.3149   1.4474   6.0122   7.3305   7.7974   9.2019   9.3594
    10.2630  12.4817  15.3117  18.8716  19.0753  19.9041

          k =-0.1709 0.0987 0.1078 (  2660 PWs)   bands (ev):

   -32.4510  -2.0377   4.6928   7.5093   7.9867   8.0615   8.8107  10.8800
    12.5478  13.4808  14.0853  14.9549  15.3854  15.4145

          k =-0.3418-0.0000 0.1617 (  2657 PWs)   bands (ev):

   -32.4498  -1.2437   4.3271   5.1990   6.3544   7.8569   9.9866  11.1079
    12.1458  12.7370  14.5960  16.6353  17.5010  17.7410

          k = 0.5127 0.4933-0.1078 (  2669 PWs)   bands (ev):

   -32.4491   0.2023   2.2119   4.9182   5.8592   7.2961   9.4190  11.6950
    12.2798  12.8474  14.8780  16.2777  19.1460  20.3478

          k = 0.3418 0.3947-0.0539 (  2675 PWs)   bands (ev):

   -32.4494  -0.1202   2.6984   5.1602   6.5138   7.1306   8.5077  10.1461
    12.0063  14.3736  15.3930  17.0359  18.6852  19.0687

          k = 0.1709 0.2960 0.0000 (  2663 PWs)   bands (ev):

   -32.4500  -1.4547   5.3552   5.8640   6.7894   7.1264   8.5558  10.0494
    12.3298  12.5906  15.1070  16.3160  17.6733  17.7524

          k =-0.3418 0.1973 0.2156 (  2665 PWs)   bands (ev):

   -32.4497  -0.7429   3.8713   4.7190   5.9563   6.7637   9.3694  11.6690
    13.3795  15.6602  15.6968  16.8141  17.8063  18.2395

          k = 0.5127 0.6906-0.0539 (  2662 PWs)   bands (ev):

   -32.4489   0.4577   2.9735   3.8296   4.7536   6.4179  11.0268  11.9348
    13.6888  14.0027  15.8995  17.8349  18.1387  18.5031

          k = 0.3418 0.5920 0.0000 (  2663 PWs)   bands (ev):

   -32.4486   1.3883   2.2080   3.0124   5.4363   6.5134  10.2071  11.1390
    14.5197  15.2840  15.3335  16.3217  16.9905  18.6661

          k = 0.5127-0.2960-0.3233 (  2646 PWs)   bands (ev):

   -32.4484   1.1268   1.6827   4.3704   4.9508   6.3266   9.0778  14.5563
    14.7204  14.9178  15.5554  17.0479  17.1844  19.5920

          k = 0.0000-0.0000 0.1617 (  2655 PWs)   bands (ev):

   -32.4515  -2.2645   3.6381   8.9268   9.5117   9.5117  10.8350  10.8350
    11.6216  12.5755  12.5755  13.2004  15.7137  15.7137

          k =-0.1709-0.0987 0.2156 (  2659 PWs)   bands (ev):

   -32.4508  -1.7640   3.2055   6.3517   9.0356   9.9204  10.4777  10.6561
    11.9002  12.3970  13.4888  14.6922  16.0010  17.3542

          k = 0.6836 0.3947-0.0539 (  2677 PWs)   bands (ev):

   -32.4500  -0.5539   2.7983   4.0093   7.7766   9.3765  10.0801  10.2321
    11.2707  12.9043  15.1752  15.1916  17.2250  21.2858

          k = 0.5127 0.2960 0.0000 (  2667 PWs)   bands (ev):

   -32.4492   0.3934   1.7239   4.6489   7.1688   8.3531   9.2443   9.6473
    10.2878  13.3769  16.7756  18.7659  19.2232  19.6947

          k = 0.3418 0.1973 0.0539 (  2660 PWs)   bands (ev):

   -32.4497  -1.0963   4.2311   5.9752   6.6425   7.2608   8.4570   9.8445
    11.2208  14.0420  15.9853  17.2096  18.5533  18.6879

          k =-0.1709 0.0987 0.2694 (  2651 PWs)   bands (ev):

   -32.4505  -1.5657   2.5690   7.2160   7.7036   8.6814  10.4799  11.7775
    12.8568  14.2115  14.6978  15.1531  16.2398  16.5041

          k = 0.6836 0.5920 0.0000 (  2658 PWs)   bands (ev):

   -32.4497  -0.6475   2.5180   4.7363   6.1069   8.7776  11.6326  11.8716
    13.0985  13.5689  13.8121  16.3061  17.5205  19.1051

          k = 0.5127 0.4933 0.0539 (  2668 PWs)   bands (ev):

   -32.4490   0.8945   1.9744   3.4141   5.3075   8.4706  10.0043  11.4282
    12.1592  14.9626  15.0912  17.3793  17.9855  19.4920

          k = 0.3418 0.3947 0.1078 (  2670 PWs)   bands (ev):

   -32.4492  -0.0323   3.3988   4.1599   5.4383   7.0750   9.5041  10.7746
    11.9237  15.8718  16.0866  16.3753  18.7468  18.9430

          k = 0.6836-0.3947-0.2694 (  2644 PWs)   bands (ev):

   -32.4488  -0.0498   2.2171   3.9718   6.6909   7.1949   9.5723  13.9474
    14.6031  15.4117  15.8141  16.2707  16.9578  17.5746

          k = 0.5127-0.4933-0.2156 (  2666 PWs)   bands (ev):

   -32.4489   1.2262   2.0110   3.1017   4.8899   7.4996  10.8288  11.5368
    14.5665  14.7795  15.4030  16.8753  17.9511  19.4037

          k = 0.3418-0.5920-0.1617 (  2662 PWs)   bands (ev):

   -32.4484   1.4015   2.1369   3.1451   5.0739   7.1568   9.0470  13.2245
    13.4959  14.5451  15.2484  15.7480  18.3845  18.6522

          k = 0.5127-0.2960-0.1617 (  2652 PWs)   bands (ev):

   -32.4487   0.7078   2.0800   3.7126   6.4367   6.5444   9.2099  12.0224
    12.2755  15.0011  17.4377  18.0338  19.1762  19.5416

          k = 0.0000-0.0000 0.3233 (  2649 PWs)   bands (ev):

   -32.4511  -1.6877   1.7003   9.2542   9.2542  10.3799  10.3799  10.9358
    12.2864  13.5492  13.5492  13.8390  16.0396  18.0956

          k = 0.8545 0.4933 0.0539 (  2648 PWs)   bands (ev):

   -32.4501  -1.1014   1.4953   6.2426   8.2676   9.8235  11.4447  12.4841
    12.9006  13.5613  14.0030  14.4610  16.2055  17.4216

          k = 0.6836 0.3947 0.1078 (  2650 PWs)   bands (ev):

   -32.4490   0.1711   1.7952   3.5862   7.0509   8.5308  10.3392  11.8273
    12.8155  14.5953  15.3154  16.5084  17.8262  19.0336

          k = 0.8545-0.4933-0.2156 (  2641 PWs)   bands (ev):

   -32.4499  -0.8979   1.1435   6.5419   7.7743   9.3204  11.7232  12.1170
    13.3501  14.6845  15.0484  15.1614  16.6012  17.1382

          k = 0.6836-0.5920-0.1617 (  2652 PWs)   bands (ev):

   -32.4494  -0.0835   1.5184   4.6249   5.8689  10.0758  10.8962  11.6708
    12.7262  15.3557  15.9760  16.4705  17.4827  17.5345

          k = 0.0000 0.0000-0.4850 (  2616 PWs)   bands (ev):

   -32.4496  -1.1770   0.7336   9.2298   9.2298  10.0333  10.0333  10.8892
    13.7216  14.6386  14.9963  14.9963  16.2691  16.2691

     the Fermi energy is    14.0157 ev

!    total energy              =     -47.95277140 Ry
     estimated scf accuracy    <          1.7E-10 Ry
     smearing contrib. (-TS)   =       0.00028907 Ry
     internal energy E=F+TS    =     -47.95306048 Ry

     The total energy is F=E-TS. E is the sum of the following terms:
     one-electron contribution =      17.35438010 Ry
     hartree contribution      =       2.90456678 Ry
     xc contribution           =     -16.90176087 Ry
     ewald contribution        =     -51.31024648 Ry

     convergence has been achieved in   6 iterations

     Forces acting on atoms (cartesian axes, Ry/au):

     atom    1 type  1   force =     0.00000000    0.00000000    0.00000000
     atom    2 type  2   force =    -0.00000000   -0.00000000    0.00556514
     atom    3 type  2   force =    -0.00000000    0.00000000   -0.00556514
     atom    4 type  2   force =    -0.00000000    0.00000000   -0.00054556
     atom    5 type  2   force =     0.00000000    0.00000000    0.00054556
     The non-local contrib.  to forces
     atom    1 type  1   force =    -0.00000000   -0.00000000    0.00000000
     atom    2 type  2   force =     0.00000000    0.00000000    0.01040732
     atom    3 type  2   force =    -0.00000000   -0.00000000   -0.01040732
     atom    4 type  2   force =    -0.00000000    0.00000000    0.00208610
     atom    5 type  2   force =     0.00000000   -0.00000000   -0.00208610
     The ionic contribution  to forces
     atom    1 type  1   force =     0.00000000   -0.00000000    0.00000000
     atom    2 type  2   force =     0.00000000   -0.00000000    0.09853119
     atom    3 type  2   force =    -0.00000000    0.00000000   -0.09853119
     atom    4 type  2   force =     0.00000000   -0.00000000    0.02862695
     atom    5 type  2   force =     0.00000000    0.00000000   -0.02862695
     The local contribution  to forces
     atom    1 type  1   force =     0.00000000    0.00000000   -0.00000000
     atom    2 type  2   force =    -0.00000000   -0.00000000   -0.10181130
     atom    3 type  2   force =    -0.00000000    0.00000000    0.10181130
     atom    4 type  2   force =    -0.00000000   -0.00000000   -0.03009736
     atom    5 type  2   force =     0.00000000    0.00000000    0.03009736
     The core correction contribution to forces
     atom    1 type  1   force =     0.00000000    0.00000000    0.00000000
     atom    2 type  2   force =     0.00000000    0.00000000   -0.00155480
     atom    3 type  2   force =     0.00000000   -0.00000000    0.00155480
     atom    4 type  2   force =    -0.00000000   -0.00000000   -0.00116651
     atom    5 type  2   force =     0.00000000    0.00000000    0.00116651
     The Hubbard contrib.    to forces
     atom    1 type  1   force =     0.00000000    0.00000000    0.00000000
     atom    2 type  2   force =     0.00000000    0.00000000    0.00000000
     atom    3 type  2   force =     0.00000000    0.00000000    0.00000000
     atom    4 type  2   force =     0.00000000    0.00000000    0.00000000
     atom    5 type  2   force =     0.00000000    0.00000000    0.00000000
     The SCF correction term to forces
     atom    1 type  1   force =    -0.00000000   -0.00000000    0.00000000
     atom    2 type  2   force =     0.00000000   -0.00000000   -0.00000727
     atom    3 type  2   force =    -0.00000000   -0.00000000    0.00000727
     atom    4 type  2   force =     0.00000000   -0.00000000    0.00000527
     atom    5 type  2   force =    -0.00000000    0.00000000   -0.00000527

     Total force =     0.007908     Total SCF correction =     0.000013


     Computing stress (Cartesian axis) and pressure

          total   stress  (Ry/bohr**3)                   (kbar)     P=      530.50
   0.00355428  -0.00000000   0.00000000          522.85       -0.00        0.00
  -0.00000000   0.00355428   0.00000000           -0.00      522.85        0.00
   0.00000000   0.00000000   0.00371024            0.00        0.00      545.80

     Energy error            =      3.6E-03 Ry
     Gradient error          =      5.6E-03 Ry/Bohr
     Cell gradient error     =      4.6E+01 kbar

     number of scf cycles    =   3
     number of bfgs steps    =   2

     enthalpy           old  =     -46.7896020373 Ry
     enthalpy           new  =     -46.7931939792 Ry

     CASE: enthalpy          _new < enthalpy          _old

     new trust radius        =       0.0256017282 bohr
ibrav =      5
 celldm(1) =      8.71630554
 celldm(4) =      0.65835894
Input lattice vectors:
     0.48822782    -0.28187846     1.03807429
     0.00000000     0.56375692     1.03807429
    -0.48822782    -0.28187846     1.03807429
New lattice vectors in INITIAL alat:
     0.48822782    -0.28187846     1.03807429
     0.00000000     0.56375692     1.03807429
    -0.48822782    -0.28187846     1.03807429
New lattice vectors in NEW alat (for information only):
     0.41330440    -0.23862141     0.87877147
     0.00000000     0.47724282     0.87877147
    -0.41330440    -0.23862141     0.87877147
Discrepancy in bohr =     0.000000    0.000000    0.000000
     new conv_thr            =       0.0000000006 Ry

     new unit-cell volume =    344.35308 a.u.^3 (    51.02786 Ang^3 )
     density =      3.88168 g/cm^3

CELL_PARAMETERS (alat=  7.37870180)
   0.488227816  -0.281878461   1.038074288
   0.000000000   0.563756922   1.038074288
  -0.488227816  -0.281878461   1.038074288

ATOMIC_POSITIONS (crystal)
Li            0.5000000000        0.5000000000        0.5000000000
Si            0.1025154044        0.1025154044        0.1025154044
Si            0.8974845956        0.8974845956        0.8974845956
Si            0.3001237301        0.3001237301        0.3001237301
Si            0.6998762699        0.6998762699        0.6998762699



     Writing config-only to output data dir ./output/LiSi.save/
     NEW-OLD atomic charge density approx. for the potential
     extrapolated charge   19.17615, renormalised to   19.00000

     total cpu time spent up to now is       19.1 secs

     Self-consistent Calculation

     iteration #  1     ecut=    80.00 Ry     beta= 0.70
     Davidson diagonalization with overlap
     ethr =  1.00E-06,  avg # of iterations =  6.2

     total cpu time spent up to now is       20.0 secs

     total energy              =     -47.96408422 Ry
     estimated scf accuracy    <       0.00002884 Ry

     iteration #  2     ecut=    80.00 Ry     beta= 0.70
     Davidson diagonalization with overlap
     ethr =  1.52E-07,  avg # of iterations =  2.9

     total cpu time spent up to now is       20.6 secs

     total energy              =     -47.96414077 Ry
     estimated scf accuracy    <       0.00001125 Ry

     iteration #  3     ecut=    80.00 Ry     beta= 0.70
     Davidson diagonalization with overlap
     ethr =  5.92E-08,  avg # of iterations =  2.0

     total cpu time spent up to now is       21.1 secs

     total energy              =     -47.96414033 Ry
     estimated scf accuracy    <       0.00000191 Ry

     iteration #  4     ecut=    80.00 Ry     beta= 0.70
     Davidson diagonalization with overlap
     ethr =  1.01E-08,  avg # of iterations =  2.1

     total cpu time spent up to now is       21.6 secs

     total energy              =     -47.96414047 Ry
     estimated scf accuracy    <       0.00000015 Ry

     iteration #  5     ecut=    80.00 Ry     beta= 0.70
     Davidson diagonalization with overlap
     ethr =  7.77E-10,  avg # of iterations =  2.8

     total cpu time spent up to now is       22.2 secs

     total energy              =     -47.96414052 Ry
     estimated scf accuracy    <          7.5E-09 Ry

     iteration #  6     ecut=    80.00 Ry     beta= 0.70
     Davidson diagonalization with overlap
     ethr =  3.96E-11,  avg # of iterations =  3.7

     total cpu time spent up to now is       22.7 secs

     End of self-consistent calculation

          k = 0.0000 0.0000 0.0000 (  2683 PWs)   bands (ev):

   -32.5915  -2.5229   5.8104   6.0446   9.8050   9.8050  10.4314  10.4314
    11.7816  12.7612  13.0272  13.0272  14.0469  14.0469

          k =-0.1707-0.0985 0.0535 (  2658 PWs)   bands (ev):

   -32.5902  -2.1596   5.2995   6.7952   7.0964   8.7081   9.6637  10.8207
    11.1575  12.7111  13.0649  14.7983  15.4555  16.5314

          k =-0.3414-0.1971 0.1070 (  2668 PWs)   bands (ev):

   -32.5893  -1.0853   3.4020   5.5955   7.9523   8.0789   8.7689   9.5756
     9.7308  12.9925  15.3834  16.0630  17.1600  20.1468

          k = 0.5121 0.2956-0.1606 (  2664 PWs)   bands (ev):

   -32.5884   0.2605   1.3784   5.9033   7.1603   7.7304   9.0824   9.2702
    10.1108  12.2768  15.0934  18.7645  18.9861  19.8093

          k =-0.1707 0.0985 0.1070 (  2660 PWs)   bands (ev):

   -32.5904  -2.0899   4.5470   7.4137   7.8640   7.9937   8.6679  10.7802
    12.4293  13.3731  13.9498  14.8626  15.2567  15.2762

          k =-0.3414-0.0000 0.1606 (  2657 PWs)   bands (ev):

   -32.5892  -1.2984   4.2015   5.1203   6.2809   7.7427   9.7961  10.9675
    12.0532  12.6454  14.4484  16.4421  17.3371  17.6231

          k = 0.5121 0.4927-0.1070 (  2669 PWs)   bands (ev):

   -32.5885   0.1447   2.1427   4.8156   5.7700   7.1781   9.2528  11.5609
    12.1631  12.6401  14.7777  16.0976  19.0524  20.1829

          k = 0.3414 0.3942-0.0535 (  2675 PWs)   bands (ev):

   -32.5888  -0.1755   2.6267   5.0867   6.4023   6.9971   8.3411   9.9789
    11.9289  14.1992  15.2956  16.8187  18.5014  18.9652

          k = 0.1707 0.2956 0.0000 (  2663 PWs)   bands (ev):

   -32.5894  -1.5075   5.2661   5.7871   6.6674   6.9592   8.4276   9.9071
    12.2473  12.5071  14.9637  16.1515  17.5311  17.6175

          k =-0.3414 0.1971 0.2141 (  2665 PWs)   bands (ev):

   -32.5891  -0.8002   3.7622   4.6334   5.8399   6.7022   9.2805  11.4642
    13.2199  15.4843  15.5561  16.6657  17.6489  18.0952

          k = 0.5121 0.6898-0.0535 (  2662 PWs)   bands (ev):

   -32.5883   0.3956   2.9089   3.7389   4.6439   6.3169  10.9392  11.7552
    13.5037  13.7969  15.7957  17.6601  17.9138  18.3208

          k = 0.3414 0.5913 0.0000 (  2663 PWs)   bands (ev):

   -32.5880   1.3325   2.1284   2.9496   5.3183   6.4028  10.0227  10.9632
    14.4348  15.1848  15.2484  16.0851  16.7771  18.4860

          k = 0.5121-0.2956-0.3211 (  2646 PWs)   bands (ev):

   -32.5877   1.0494   1.6344   4.2541   4.8300   6.2670   8.9987  14.3711
    14.4826  14.7353  15.3423  16.8488  16.9787  19.5099

          k =-0.0000 0.0000 0.1606 (  2655 PWs)   bands (ev):

   -32.5909  -2.3170   3.5004   8.7400   9.4369   9.4369  10.7602  10.7602
    11.5026  12.4558  12.4558  13.1003  15.5604  15.5604

          k =-0.1707-0.0985 0.2141 (  2659 PWs)   bands (ev):

   -32.5901  -1.8184   3.0761   6.2835   8.9651   9.7737  10.3581  10.5289
    11.7422  12.3233  13.3574  14.5799  15.8369  17.1975

          k = 0.6827 0.3942-0.0535 (  2677 PWs)   bands (ev):

   -32.5894  -0.6116   2.7076   3.9157   7.7076   9.2829   9.9576  10.0893
    11.0940  12.7005  14.9933  15.0989  17.1169  21.1468

          k = 0.5121 0.2956 0.0000 (  2667 PWs)   bands (ev):

   -32.5886   0.3373   1.6544   4.5387   7.1014   8.2126   9.0576   9.5631
    10.1623  13.1892  16.5257  18.6556  19.0987  19.5638

          k = 0.3414 0.1971 0.0535 (  2660 PWs)   bands (ev):

   -32.5891  -1.1501   4.1568   5.8525   6.5062   7.1942   8.2815   9.7533
    11.0889  13.8748  15.8835  17.0996  18.3633  18.5489

          k =-0.1707 0.0985 0.2676 (  2651 PWs)   bands (ev):

   -32.5898  -1.6216   2.4461   7.1449   7.6402   8.5747  10.3572  11.6016
    12.7696  14.0907  14.5393  15.0367  16.0795  16.3491

          k = 0.6827 0.5913 0.0000 (  2658 PWs)   bands (ev):

   -32.5890  -0.7062   2.4023   4.6714   6.0347   8.6571  11.5527  11.7561
    12.8918  13.4241  13.6285  16.1269  17.4214  18.9242

          k = 0.5121 0.4927 0.0535 (  2668 PWs)   bands (ev):

   -32.5884   0.8340   1.9007   3.3198   5.2285   8.3521   9.8362  11.2892
    12.0316  14.8197  14.9456  17.1402  17.7621  19.3761

          k = 0.3414 0.3942 0.1070 (  2670 PWs)   bands (ev):

   -32.5886  -0.0893   3.3273   4.0810   5.3239   6.9560   9.3379  10.6217
    11.8171  15.7728  15.9194  16.1721  18.5678  18.8209

          k = 0.6827-0.3942-0.2676 (  2644 PWs)   bands (ev):

   -32.5881  -0.1107   2.1112   3.9000   6.6303   7.0730   9.4884  13.7811
    14.3844  15.2207  15.6594  16.1447  16.7708  17.3739

          k = 0.5121-0.4927-0.2141 (  2666 PWs)   bands (ev):

   -32.5883   1.1615   1.9376   3.0125   4.8089   7.3788  10.7042  11.4124
    14.3674  14.5736  15.2973  16.6818  17.7018  19.2679

          k = 0.3414-0.5913-0.1606 (  2662 PWs)   bands (ev):

   -32.5878   1.3458   2.0597   3.0801   4.9619   7.0413   8.8762  13.0246
    13.2894  14.4654  15.1617  15.6552  18.2116  18.4604

          k = 0.5121-0.2956-0.1606 (  2652 PWs)   bands (ev):

   -32.5880   0.6454   2.0173   3.6032   6.3006   6.4825   9.1285  11.8197
    12.1251  14.8140  17.2237  17.8271  19.0902  19.3364

          k =-0.0000 0.0000 0.3211 (  2649 PWs)   bands (ev):

   -32.5905  -1.7439   1.5824   9.1855   9.1855  10.3040  10.3040  10.8405
    12.0759  13.4168  13.4168  13.7081  15.8737  17.9186

          k = 0.8534 0.4927 0.0535 (  2648 PWs)   bands (ev):

   -32.5894  -1.1589   1.3813   6.1766   8.1995   9.7367  11.3388  12.3516
    12.7998  13.4413  13.7943  14.2847  16.0519  17.2222

          k = 0.6827 0.3942 0.1070 (  2650 PWs)   bands (ev):

   -32.5883   0.1123   1.6893   3.5172   6.9868   8.4157  10.2376  11.6847
    12.6244  14.3851  15.2387  16.3492  17.6420  18.8042

          k = 0.8534-0.4927-0.2141 (  2641 PWs)   bands (ev):

   -32.5891  -0.9548   1.0307   6.4740   7.7106   9.2265  11.6034  12.0293
    13.2440  14.5262  14.8974  14.9778  16.3761  16.9913

          k = 0.6827-0.5913-0.1606 (  2652 PWs)   bands (ev):

   -32.5887  -0.1409   1.4064   4.5614   5.7986   9.9535  10.7522  11.5969
    12.6145  15.1838  15.7402  16.2611  17.2724  17.4175

          k = 0.0000 0.0000-0.4817 (  2616 PWs)   bands (ev):

   -32.5888  -1.2324   0.6205   9.1618   9.1618   9.9608   9.9608  10.8015
    13.5892  14.4743  14.8172  14.8172  16.1528  16.1528

     the Fermi energy is    13.8319 ev

!    total energy              =     -47.96414052 Ry
     estimated scf accuracy    <          2.0E-10 Ry
     smearing contrib. (-TS)   =       0.00054872 Ry
     internal energy E=F+TS    =     -47.96468924 Ry

     The total energy is F=E-TS. E is the sum of the following terms:
     one-electron contribution =      17.14200674 Ry
     hartree contribution      =       2.91172002 Ry
     xc contribution           =     -16.86864317 Ry
     ewald contribution        =     -51.14977283 Ry

     convergence has been achieved in   6 iterations

     Forces acting on atoms (cartesian axes, Ry/au):

     atom    1 type  1   force =     0.00000000    0.00000000    0.00000000
     atom    2 type  2   force =    -0.00000000    0.00000000    0.00021867
     atom    3 type  2   force =    -0.00000000    0.00000000   -0.00021867
     atom    4 type  2   force =    -0.00000000   -0.00000000    0.00151538
     atom    5 type  2   force =    -0.00000000    0.00000000   -0.00151538
     The non-local contrib.  to forces
     atom    1 type  1   force =     0.00000000   -0.00000000    0.00000000
     atom    2 type  2   force =     0.00000000   -0.00000000    0.00878383
     atom    3 type  2   force =     0.00000000    0.00000000   -0.00878383
     atom    4 type  2   force =     0.00000000    0.00000000    0.00014817
     atom    5 type  2   force =    -0.00000000    0.00000000   -0.00014817
     The ionic contribution  to forces
     atom    1 type  1   force =    -0.00000000   -0.00000000    0.00000000
     atom    2 type  2   force =    -0.00000000   -0.00000000    0.07641256
     atom    3 type  2   force =    -0.00000000    0.00000000   -0.07641256
     atom    4 type  2   force =     0.00000000   -0.00000000    0.03787089
     atom    5 type  2   force =     0.00000000    0.00000000   -0.03787089
     The local contribution  to forces
     atom    1 type  1   force =     0.00000000    0.00000000    0.00000000
     atom    2 type  2   force =    -0.00000000   -0.00000000   -0.08361098
     atom    3 type  2   force =    -0.00000000    0.00000000    0.08361098
     atom    4 type  2   force =     0.00000000   -0.00000000   -0.03548082
     atom    5 type  2   force =    -0.00000000    0.00000000    0.03548082
     The core correction contribution to forces
     atom    1 type  1   force =     0.00000000    0.00000000    0.00000000
     atom    2 type  2   force =     0.00000000    0.00000000   -0.00136943
     atom    3 type  2   force =     0.00000000   -0.00000000    0.00136943
     atom    4 type  2   force =    -0.00000000   -0.00000000   -0.00102399
     atom    5 type  2   force =    -0.00000000    0.00000000    0.00102399
     The Hubbard contrib.    to forces
     atom    1 type  1   force =     0.00000000    0.00000000    0.00000000
     atom    2 type  2   force =     0.00000000    0.00000000    0.00000000
     atom    3 type  2   force =     0.00000000    0.00000000    0.00000000
     atom    4 type  2   force =     0.00000000    0.00000000    0.00000000
     atom    5 type  2   force =     0.00000000    0.00000000    0.00000000
     The SCF correction term to forces
     atom    1 type  1   force =    -0.00000000   -0.00000000   -0.00000000
     atom    2 type  2   force =     0.00000000    0.00000000    0.00000269
     atom    3 type  2   force =    -0.00000000   -0.00000000   -0.00000269
     atom    4 type  2   force =     0.00000000   -0.00000000    0.00000113
     atom    5 type  2   force =    -0.00000000    0.00000000   -0.00000113

     Total force =     0.002165     Total SCF correction =     0.000004


     Computing stress (Cartesian axis) and pressure

          total   stress  (Ry/bohr**3)                   (kbar)     P=      504.08
   0.00342873   0.00000000   0.00000000          504.38        0.00        0.00
   0.00000000   0.00342873   0.00000000            0.00      504.38        0.00
   0.00000000   0.00000000   0.00342254            0.00        0.00      503.47

     Energy error            =      5.1E-04 Ry
     Gradient error          =      1.5E-03 Ry/Bohr
     Cell gradient error     =      4.4E+00 kbar

     number of scf cycles    =   4
     number of bfgs steps    =   3

     enthalpy           old  =     -46.7931939792 Ry
     enthalpy           new  =     -46.7937081887 Ry

     CASE: enthalpy          _new < enthalpy          _old

     new trust radius        =       0.0020261804 bohr
ibrav =      5
 celldm(1) =      8.72000529
 celldm(4) =      0.65833619
Input lattice vectors:
     0.48845132    -0.28200750     1.03850471
     0.00000000     0.56401500     1.03850471
    -0.48845132    -0.28200750     1.03850471
New lattice vectors in INITIAL alat:
     0.48845132    -0.28200750     1.03850471
     0.00000000     0.56401500     1.03850471
    -0.48845132    -0.28200750     1.03850471
New lattice vectors in NEW alat (for information only):
     0.41331817    -0.23862935     0.87876284
     0.00000000     0.47725871     0.87876284
    -0.41331817    -0.23862935     0.87876284
Discrepancy in bohr =     0.000000    0.000000    0.000000
     new conv_thr            =       0.0000000002 Ry

     new unit-cell volume =    344.81134 a.u.^3 (    51.09577 Ang^3 )
     density =      3.87653 g/cm^3

CELL_PARAMETERS (alat=  7.37870180)
   0.488451316  -0.282007499   1.038504713
   0.000000000   0.564014997   1.038504713
  -0.488451316  -0.282007499   1.038504713

ATOMIC_POSITIONS (crystal)
Li            0.5000000000        0.5000000000        0.5000000000
Si            0.1025326527        0.1025326527        0.1025326527
Si            0.8974673473        0.8974673473        0.8974673473
Si            0.3002119057        0.3002119057        0.3002119057
Si            0.6997880943        0.6997880943        0.6997880943



     Writing config-only to output data dir ./output/LiSi.save/
     NEW-OLD atomic charge density approx. for the potential
     extrapolated charge   19.02524, renormalised to   19.00000

     total cpu time spent up to now is       23.8 secs

     Self-consistent Calculation

     iteration #  1     ecut=    80.00 Ry     beta= 0.70
     Davidson diagonalization with overlap
     ethr =  1.00E-06,  avg # of iterations =  2.0

     Threshold (ethr) on eigenvalues was too large:
     Diagonalizing with lowered threshold

     Davidson diagonalization with overlap
     ethr =  2.23E-09,  avg # of iterations =  4.8

     total cpu time spent up to now is       24.9 secs

     total energy              =     -47.96570923 Ry
     estimated scf accuracy    <       0.00000047 Ry

     iteration #  2     ecut=    80.00 Ry     beta= 0.70
     Davidson diagonalization with overlap
     ethr =  2.47E-09,  avg # of iterations =  3.1

     total cpu time spent up to now is       25.4 secs

     total energy              =     -47.96571037 Ry
     estimated scf accuracy    <       0.00000031 Ry

     iteration #  3     ecut=    80.00 Ry     beta= 0.70
     Davidson diagonalization with overlap
     ethr =  1.62E-09,  avg # of iterations =  1.3

     total cpu time spent up to now is       25.9 secs

     total energy              =     -47.96571036 Ry
     estimated scf accuracy    <       0.00000005 Ry

     iteration #  4     ecut=    80.00 Ry     beta= 0.70
     Davidson diagonalization with overlap
     ethr =  2.86E-10,  avg # of iterations =  2.0

     total cpu time spent up to now is       26.3 secs

     total energy              =     -47.96571036 Ry
     estimated scf accuracy    <       0.00000001 Ry

     iteration #  5     ecut=    80.00 Ry     beta= 0.70
     Davidson diagonalization with overlap
     ethr =  7.61E-11,  avg # of iterations =  2.1

     total cpu time spent up to now is       26.7 secs

     total energy              =     -47.96571036 Ry
     estimated scf accuracy    <          3.1E-10 Ry

     iteration #  6     ecut=    80.00 Ry     beta= 0.70
     Davidson diagonalization with overlap
     ethr =  1.66E-12,  avg # of iterations =  3.8

     total cpu time spent up to now is       27.3 secs

     End of self-consistent calculation

          k = 0.0000 0.0000 0.0000 (  2683 PWs)   bands (ev):

   -32.6104  -2.5310   5.7964   6.0328   9.7883   9.7883  10.4149  10.4149
    11.7582  12.7353  13.0069  13.0069  14.0322  14.0322

          k =-0.1706-0.0985 0.0535 (  2658 PWs)   bands (ev):

   -32.6091  -2.1680   5.2868   6.7801   7.0827   8.6919   9.6459  10.8064
    11.1361  12.6912  13.0437  14.7772  15.4314  16.5125

          k =-0.3412-0.1970 0.1070 (  2668 PWs)   bands (ev):

   -32.6081  -1.0944   3.3890   5.5834   7.9361   8.0627   8.7537   9.5626
     9.7095  12.9723  15.3615  16.0396  17.1347  20.1254

          k = 0.5118 0.2955-0.1605 (  2664 PWs)   bands (ev):

   -32.6072   0.2512   1.3661   5.8924   7.1434   7.7140   9.0702   9.2481
    10.0962  12.2573  15.0697  18.7376  18.9634  19.7815

          k =-0.1706 0.0985 0.1070 (  2660 PWs)   bands (ev):

   -32.6092  -2.0985   4.5350   7.3972   7.8511   7.9788   8.6501  10.7613
    12.4133  13.3506  13.9277  14.8374  15.2403  15.2532

          k =-0.3412-0.0000 0.1605 (  2657 PWs)   bands (ev):

   -32.6080  -1.3074   4.1894   5.1073   6.2642   7.7298   9.7796  10.9500
    12.0337  12.6226  14.4294  16.4187  17.3139  17.5987

          k = 0.5118 0.4925-0.1070 (  2669 PWs)   bands (ev):

   -32.6073   0.1349   2.1306   4.8036   5.7538   7.1653   9.2367  11.5438
    12.1426  12.6204  14.7549  16.0740  19.0270  20.1582

          k = 0.3412 0.3940-0.0535 (  2675 PWs)   bands (ev):

   -32.6076  -0.1851   2.6141   5.0726   6.3892   6.9827   8.3256   9.9631
    11.9078  14.1788  15.2726  16.7944  18.4771  18.9405

          k = 0.1706 0.2955 0.0000 (  2663 PWs)   bands (ev):

   -32.6082  -1.5163   5.2523   5.7715   6.6564   6.9439   8.4110   9.8919
    12.2266  12.4850  14.9447  16.1281  17.5067  17.5928

          k =-0.3412 0.1970 0.2140 (  2665 PWs)   bands (ev):

   -32.6080  -0.8097   3.7507   4.6185   5.8276   6.6885   9.2606  11.4471
    13.2028  15.4619  15.5330  16.6422  17.6276  18.0649

          k = 0.5118 0.6895-0.0535 (  2662 PWs)   bands (ev):

   -32.6071   0.3852   2.8968   3.7265   4.6300   6.3044  10.9196  11.7365
    13.4844  13.7783  15.7721  17.6370  17.8913  18.2944

          k = 0.3412 0.5910 0.0000 (  2663 PWs)   bands (ev):

   -32.6068   1.3223   2.1169   2.9359   5.3042   6.3911  10.0051  10.9465
    14.4107  15.1631  15.2262  16.0653  16.7519  18.4607

          k = 0.5118-0.2955-0.3210 (  2646 PWs)   bands (ev):

   -32.6066   1.0388   1.6227   4.2408   4.8185   6.2536   8.9790  14.3534
    14.4636  14.7152  15.3196  16.8211  16.9592  19.4872

          k = 0.0000 0.0000 0.1605 (  2655 PWs)   bands (ev):

   -32.6097  -2.3254   3.4892   8.7258   9.4213   9.4213  10.7415  10.7415
    11.4786  12.4394  12.4394  13.0740  15.5420  15.5420

          k =-0.1706-0.0985 0.2140 (  2659 PWs)   bands (ev):

   -32.6090  -1.8273   3.0652   6.2690   8.9483   9.7593  10.3439  10.5067
    11.7220  12.3048  13.3348  14.5609  15.8144  17.1684

          k = 0.6824 0.3940-0.0535 (  2677 PWs)   bands (ev):

   -32.6082  -0.6213   2.6959   3.9039   7.6923   9.2626   9.9436  10.0726
    11.0764  12.6807  14.9695  15.0777  17.0925  21.1146

          k = 0.5118 0.2955 0.0000 (  2667 PWs)   bands (ev):

   -32.6074   0.3277   1.6418   4.5274   7.0869   8.1956   9.0403   9.5452
    10.1479  13.1683  16.5017  18.6292  19.0754  19.5383

          k = 0.3412 0.1970 0.0535 (  2660 PWs)   bands (ev):

   -32.6079  -1.1592   4.1426   5.8405   6.4927   7.1798   8.2642   9.7338
    11.0737  13.8532  15.8599  17.0744  18.3391  18.5294

          k =-0.1706 0.0985 0.2675 (  2651 PWs)   bands (ev):

   -32.6087  -1.6307   2.4359   7.1296   7.6258   8.5573  10.3390  11.5858
    12.7496  14.0675  14.5206  15.0114  16.0601  16.3241

          k = 0.6824 0.5910 0.0000 (  2658 PWs)   bands (ev):

   -32.6079  -0.7161   2.3922   4.6585   6.0189   8.6427  11.5323  11.7379
    12.8714  13.4048  13.6097  16.1035  17.3986  18.8950

          k = 0.5118 0.4925 0.0535 (  2668 PWs)   bands (ev):

   -32.6072   0.8234   1.8889   3.3092   5.2135   8.3384   9.8190  11.2689
    12.0137  14.7970  14.9245  17.1162  17.7398  19.3497

          k = 0.3412 0.3940 0.1070 (  2670 PWs)   bands (ev):

   -32.6075  -0.0990   3.3135   4.0689   5.3105   6.9427   9.3215  10.6032
    11.7981  15.7483  15.8994  16.1485  18.5424  18.7951

          k = 0.6824-0.3940-0.2675 (  2644 PWs)   bands (ev):

   -32.6070  -0.1214   2.1016   3.8868   6.6167   7.0577   9.4694  13.7624
    14.3664  15.1979  15.6370  16.1266  16.7488  17.3466

          k = 0.5118-0.4925-0.2140 (  2666 PWs)   bands (ev):

   -32.6071   1.1496   1.9272   3.0014   4.7945   7.3653  10.6864  11.3922
    14.3472  14.5533  15.2764  16.6599  17.6771  19.2407

          k = 0.3412-0.5910-0.1605 (  2662 PWs)   bands (ev):

   -32.6066   1.3355   2.0481   3.0662   4.9490   7.0287   8.8596  13.0072
    13.2690  14.4419  15.1399  15.6308  18.1873  18.4376

          k = 0.5118-0.2955-0.1605 (  2652 PWs)   bands (ev):

   -32.6069   0.6353   2.0043   3.5925   6.2866   6.4689   9.1089  11.8014
    12.1087  14.7914  17.2010  17.8041  19.0673  19.3095

          k = 0.0000 0.0000 0.3210 (  2649 PWs)   bands (ev):

   -32.6093  -1.7531   1.5730   9.1708   9.1708  10.2855  10.2855  10.8222
    12.0539  13.3993  13.3993  13.6810  15.8466  17.8991

          k = 0.8530 0.4925 0.0535 (  2648 PWs)   bands (ev):

   -32.6083  -1.1688   1.3723   6.1623   8.1846   9.7170  11.3213  12.3339
    12.7823  13.4186  13.7738  14.2637  16.0287  17.1944

          k = 0.6824 0.3940 0.1070 (  2650 PWs)   bands (ev):

   -32.6072   0.1011   1.6802   3.5048   6.9728   8.3972  10.2205  11.6684
    12.6043  14.3645  15.2176  16.3233  17.6214  18.7827

          k = 0.8530-0.4925-0.2140 (  2641 PWs)   bands (ev):

   -32.6080  -0.9653   1.0223   6.4595   7.6962   9.2071  11.5860  12.0104
    13.2252  14.5072  14.8748  14.9545  16.3480  16.9727

          k = 0.6824-0.5910-0.1605 (  2652 PWs)   bands (ev):

   -32.6075  -0.1522   1.3980   4.5485   5.7833   9.9380  10.7342  11.5768
    12.5941  15.1649  15.7203  16.2385  17.2489  17.3927

          k = 0.0000 0.0000-0.4815 (  2616 PWs)   bands (ev):

   -32.6076  -1.2428   0.6125   9.1476   9.1476   9.9424   9.9424  10.7806
    13.5635  14.4529  14.7967  14.7967  16.1362  16.1362

     the Fermi energy is    13.8120 ev

!    total energy              =     -47.96571036 Ry
     estimated scf accuracy    <          2.4E-11 Ry
     smearing contrib. (-TS)   =       0.00054273 Ry
     internal energy E=F+TS    =     -47.96625310 Ry

     The total energy is F=E-TS. E is the sum of the following terms:
     one-electron contribution =      17.11224970 Ry
     hartree contribution      =       2.91271983 Ry
     xc contribution           =     -16.86388813 Ry
     ewald contribution        =     -51.12733449 Ry

     convergence has been achieved in   6 iterations

     Forces acting on atoms (cartesian axes, Ry/au):

     atom    1 type  1   force =     0.00000000   -0.00000000   -0.00000000
     atom    2 type  2   force =    -0.00000000    0.00000000    0.00027024
     atom    3 type  2   force =    -0.00000000   -0.00000000   -0.00027024
     atom    4 type  2   force =     0.00000000   -0.00000000    0.00092545
     atom    5 type  2   force =    -0.00000000    0.00000000   -0.00092545
     The non-local contrib.  to forces
     atom    1 type  1   force =     0.00000000   -0.00000000   -0.00000000
     atom    2 type  2   force =     0.00000000    0.00000000    0.00861110
     atom    3 type  2   force =    -0.00000000   -0.00000000   -0.00861110
     atom    4 type  2   force =     0.00000000    0.00000000   -0.00072662
     atom    5 type  2   force =    -0.00000000    0.00000000    0.00072662
     The ionic contribution  to forces
     atom    1 type  1   force =    -0.00000000   -0.00000000   -0.00000000
     atom    2 type  2   force =     0.00000000   -0.00000000    0.07764404
     atom    3 type  2   force =    -0.00000000    0.00000000   -0.07764404
     atom    4 type  2   force =    -0.00000000   -0.00000000    0.03570265
     atom    5 type  2   force =    -0.00000000    0.00000000   -0.03570265
     The local contribution  to forces
     atom    1 type  1   force =    -0.00000000    0.00000000    0.00000000
     atom    2 type  2   force =    -0.00000000   -0.00000000   -0.08462909
     atom    3 type  2   force =    -0.00000000    0.00000000    0.08462909
     atom    4 type  2   force =    -0.00000000   -0.00000000   -0.03308956
     atom    5 type  2   force =     0.00000000    0.00000000    0.03308956
     The core correction contribution to forces
     atom    1 type  1   force =     0.00000000    0.00000000    0.00000000
     atom    2 type  2   force =     0.00000000    0.00000000   -0.00135862
     atom    3 type  2   force =     0.00000000   -0.00000000    0.00135862
     atom    4 type  2   force =     0.00000000   -0.00000000   -0.00095993
     atom    5 type  2   force =    -0.00000000    0.00000000    0.00095993
     The Hubbard contrib.    to forces
     atom    1 type  1   force =     0.00000000    0.00000000    0.00000000
     atom    2 type  2   force =     0.00000000    0.00000000    0.00000000
     atom    3 type  2   force =     0.00000000    0.00000000    0.00000000
     atom    4 type  2   force =     0.00000000    0.00000000    0.00000000
     atom    5 type  2   force =     0.00000000    0.00000000    0.00000000
     The SCF correction term to forces
     atom    1 type  1   force =    -0.00000000   -0.00000000    0.00000000
     atom    2 type  2   force =     0.00000000    0.00000000    0.00000280
     atom    3 type  2   force =     0.00000000   -0.00000000   -0.00000280
     atom    4 type  2   force =    -0.00000000   -0.00000000   -0.00000109
     atom    5 type  2   force =     0.00000000    0.00000000    0.00000109

     Total force =     0.001363     Total SCF correction =     0.000004


     Computing stress (Cartesian axis) and pressure

          total   stress  (Ry/bohr**3)                   (kbar)     P=      500.45
   0.00340397  -0.00000000  -0.00000000          500.74       -0.00       -0.00
  -0.00000000   0.00340397   0.00000000           -0.00      500.74        0.00
   0.00000000   0.00000000   0.00339806            0.00        0.00      499.87

     Energy error            =      1.2E-05 Ry
     Gradient error          =      9.3E-04 Ry/Bohr
     Cell gradient error     =      7.4E-01 kbar
ibrav =      5
 celldm(1) =      8.72000529
 celldm(4) =      0.65833619
Input lattice vectors:
     0.48845132    -0.28200750     1.03850471
     0.00000000     0.56401500     1.03850471
    -0.48845132    -0.28200750     1.03850471
New lattice vectors in INITIAL alat:
     0.48845132    -0.28200750     1.03850471
     0.00000000     0.56401500     1.03850471
    -0.48845132    -0.28200750     1.03850471
New lattice vectors in NEW alat (for information only):
     0.41331817    -0.23862935     0.87876284
     0.00000000     0.47725871     0.87876284
    -0.41331817    -0.23862935     0.87876284
Discrepancy in bohr =     0.000000    0.000000    0.000000

     bfgs converged in   5 scf cycles and   4 bfgs steps
     (criteria: energy <  1.0E-04 Ry, force <  1.0E-03 Ry/Bohr, cell <  1.0E+00 kbar)

     End of BFGS Geometry Optimization

     Final enthalpy           =     -46.7937204374 Ry

     File ./output/LiSi.bfgs deleted, as requested
Begin final coordinates
     new unit-cell volume =    344.81134 a.u.^3 (    51.09577 Ang^3 )
     density =      3.87653 g/cm^3

CELL_PARAMETERS (alat=  7.37870180)
   0.488451316  -0.282007499   1.038504713
   0.000000000   0.564014997   1.038504713
  -0.488451316  -0.282007499   1.038504713

ATOMIC_POSITIONS (crystal)
Li            0.5000000000        0.5000000000        0.5000000000
Si            0.1025326527        0.1025326527        0.1025326527
Si            0.8974673473        0.8974673473        0.8974673473
Si            0.3002119057        0.3002119057        0.3002119057
Si            0.6997880943        0.6997880943        0.6997880943
End final coordinates



     Writing config-only to output data dir ./output/LiSi.save/

     Final scf calculation at the relaxed structure.
     The G-vectors are recalculated for the final unit cell
[...]
     Generated using ONCVPSP code by D. R. Hamann
     Using radial grid of 1510 points,  6 beta functions with: 
                l(1) =   0
                l(2) =   0
                l(3) =   1
                l(4) =   1
                l(5) =   2
                l(6) =   2

     atomic species   valence    mass     pseudopotential
        Li             3.00     6.94100     Li( 1.00)
        Si             4.00    28.08550     Si( 1.00)

     12 Sym. Ops., with inversion, found



   Cartesian axes

     site n.     atom                  positions (alat units)
         1           Li  tau(   1) = (   0.0000000  -0.0000000   1.5577571  )
         2           Si  tau(   2) = (   0.0000000  -0.0000000   0.3194419  )
         3           Si  tau(   3) = (   0.0000000  -0.0000000   2.7960722  )
         4           Si  tau(   4) = (   0.0000000  -0.0000000   0.9353144  )
         5           Si  tau(   5) = (   0.0000000  -0.0000000   2.1801997  )

     number of k points=    32  Marzari-Vanderbilt smearing, width (Ry)=  0.0200
                       cart. coord. in units 2pi/alat
        k(    1) = (   0.0000000   0.0000000   0.0000000), wk =   0.0092593
        k(    2) = (  -0.1706072  -0.0985001   0.0534957), wk =   0.0555556
        k(    3) = (  -0.3412145  -0.1970003   0.1069914), wk =   0.0555556
        k(    4) = (   0.5118217   0.2955004  -0.1604872), wk =   0.0277778
        k(    5) = (  -0.1706072   0.0985001   0.1069914), wk =   0.0555556
        k(    6) = (  -0.3412145  -0.0000000   0.1604872), wk =   0.1111111
        k(    7) = (   0.5118217   0.4925007  -0.1069914), wk =   0.1111111
        k(    8) = (   0.3412145   0.3940006  -0.0534957), wk =   0.1111111
        k(    9) = (   0.1706072   0.2955004   0.0000000), wk =   0.0555556
        k(   10) = (  -0.3412145   0.1970003   0.2139829), wk =   0.0555556
        k(   11) = (   0.5118217   0.6895010  -0.0534957), wk =   0.1111111
        k(   12) = (   0.3412145   0.5910008   0.0000000), wk =   0.0555556
        k(   13) = (   0.5118217  -0.2955004  -0.3209743), wk =   0.0277778
        k(   14) = (   0.0000000   0.0000000   0.1604872), wk =   0.0185185
        k(   15) = (  -0.1706072  -0.0985001   0.2139829), wk =   0.0555556
        k(   16) = (   0.6824290   0.3940006  -0.0534957), wk =   0.0555556
        k(   17) = (   0.5118217   0.2955004   0.0000000), wk =   0.0555556
        k(   18) = (   0.3412145   0.1970003   0.0534957), wk =   0.0555556
        k(   19) = (  -0.1706072   0.0985001   0.2674786), wk =   0.0555556
        k(   20) = (   0.6824290   0.5910008   0.0000000), wk =   0.1111111
        k(   21) = (   0.5118217   0.4925007   0.0534957), wk =   0.1111111
        k(   22) = (   0.3412145   0.3940006   0.1069914), wk =   0.1111111
        k(   23) = (   0.6824290  -0.3940006  -0.2674786), wk =   0.0555556
        k(   24) = (   0.5118217  -0.4925007  -0.2139829), wk =   0.1111111
        k(   25) = (   0.3412145  -0.5910008  -0.1604872), wk =   0.0555556
        k(   26) = (   0.5118217  -0.2955004  -0.1604872), wk =   0.0555556
        k(   27) = (   0.0000000   0.0000000   0.3209743), wk =   0.0185185
        k(   28) = (   0.8530362   0.4925007   0.0534957), wk =   0.0555556
        k(   29) = (   0.6824290   0.3940006   0.1069914), wk =   0.0555556
        k(   30) = (   0.8530362  -0.4925007  -0.2139829), wk =   0.0555556
        k(   31) = (   0.6824290  -0.5910008  -0.1604872), wk =   0.0555556
        k(   32) = (   0.0000000   0.0000000  -0.4814615), wk =   0.0092593

     Dense  grid:    33337 G-vectors     FFT dimensions: (  50,  50,  50)

     Estimated max dynamical RAM per process >      19.39 MB

     Estimated total dynamical RAM >     155.11 MB

     Initial potential from superposition of free atoms

     starting charge      18.9930, renormalised to      19.0000
     Starting wfcs are   18 randomized atomic wfcs

     total cpu time spent up to now is       28.8 secs

     Self-consistent Calculation

     iteration #  1     ecut=    80.00 Ry     beta= 0.70
     Davidson diagonalization with overlap
     c_bands:  1 eigenvalues not converged
     c_bands:  1 eigenvalues not converged
     c_bands:  2 eigenvalues not converged
     c_bands:  1 eigenvalues not converged
     c_bands:  1 eigenvalues not converged
     c_bands:  1 eigenvalues not converged
     c_bands:  1 eigenvalues not converged
     c_bands:  1 eigenvalues not converged
     c_bands:  1 eigenvalues not converged
     c_bands:  1 eigenvalues not converged
     c_bands:  1 eigenvalues not converged
     c_bands:  1 eigenvalues not converged
     c_bands:  1 eigenvalues not converged
     c_bands:  1 eigenvalues not converged
     c_bands:  1 eigenvalues not converged
     c_bands:  1 eigenvalues not converged
     c_bands:  1 eigenvalues not converged
     c_bands:  1 eigenvalues not converged
     c_bands:  2 eigenvalues not converged
     c_bands:  1 eigenvalues not converged
     c_bands:  1 eigenvalues not converged
     c_bands:  1 eigenvalues not converged
     c_bands:  2 eigenvalues not converged
     c_bands:  2 eigenvalues not converged
     ethr =  1.00E-06,  avg # of iterations = 19.5

     total cpu time spent up to now is       31.2 secs

     total energy              =     -47.96680122 Ry
     estimated scf accuracy    <       0.02539425 Ry

     iteration #  2     ecut=    80.00 Ry     beta= 0.70
     Davidson diagonalization with overlap
     ethr =  1.34E-04,  avg # of iterations =  1.1

     total cpu time spent up to now is       31.7 secs

     total energy              =     -47.96708528 Ry
     estimated scf accuracy    <       0.00177093 Ry

     iteration #  3     ecut=    80.00 Ry     beta= 0.70
     Davidson diagonalization with overlap
     ethr =  9.32E-06,  avg # of iterations =  2.4

     total cpu time spent up to now is       32.3 secs

     total energy              =     -47.96725856 Ry
     estimated scf accuracy    <       0.00025257 Ry

     iteration #  4     ecut=    80.00 Ry     beta= 0.70
     Davidson diagonalization with overlap
     ethr =  1.33E-06,  avg # of iterations =  3.0

     total cpu time spent up to now is       32.9 secs

     total energy              =     -47.96732625 Ry
     estimated scf accuracy    <       0.00000935 Ry

     iteration #  5     ecut=    80.00 Ry     beta= 0.70
     Davidson diagonalization with overlap
     ethr =  4.92E-08,  avg # of iterations =  2.4

     total cpu time spent up to now is       33.5 secs

     total energy              =     -47.96732838 Ry
     estimated scf accuracy    <       0.00000045 Ry

     iteration #  6     ecut=    80.00 Ry     beta= 0.70
     Davidson diagonalization with overlap
     ethr =  2.38E-09,  avg # of iterations =  3.2

     total cpu time spent up to now is       34.2 secs

     total energy              =     -47.96732853 Ry
     estimated scf accuracy    <       0.00000005 Ry

     iteration #  7     ecut=    80.00 Ry     beta= 0.70
     Davidson diagonalization with overlap
     ethr =  2.54E-10,  avg # of iterations =  2.7

     total cpu time spent up to now is       34.8 secs

     total energy              =     -47.96732854 Ry
     estimated scf accuracy    <          4.7E-09 Ry

     iteration #  8     ecut=    80.00 Ry     beta= 0.70
     Davidson diagonalization with overlap
     ethr =  2.46E-11,  avg # of iterations =  2.5

     total cpu time spent up to now is       35.4 secs

     End of self-consistent calculation

          k = 0.0000 0.0000 0.0000 (  4161 PWs)   bands (ev):

   -32.5966  -2.5313   5.7963   6.0325   9.7881   9.7881  10.4148  10.4148
    11.7581  12.7350  13.0068  13.0068  14.0324  14.0324

          k =-0.1706-0.0985 0.0535 (  4173 PWs)   bands (ev):

   -32.5961  -2.1684   5.2867   6.7799   7.0826   8.6918   9.6457  10.8063
    11.1359  12.6912  13.0436  14.7767  15.4313  16.5125

          k =-0.3412-0.1970 0.1070 (  4185 PWs)   bands (ev):

   -32.5949  -1.0947   3.3888   5.5832   7.9360   8.0625   8.7536   9.5626
     9.7094  12.9717  15.3614  16.0394  17.1341  20.1256

          k = 0.5118 0.2955-0.1605 (  4168 PWs)   bands (ev):

   -32.5944   0.2510   1.3658   5.8923   7.1431   7.7138   9.0702   9.2480
    10.0959  12.2572  15.0683  18.7375  18.9634  19.7815

          k =-0.1706 0.0985 0.1070 (  4182 PWs)   bands (ev):

   -32.5960  -2.0987   4.5348   7.3970   7.8510   7.9787   8.6499  10.7610
    12.4132  13.3505  13.9276  14.8373  15.2405  15.2531

          k =-0.3412-0.0000 0.1605 (  4163 PWs)   bands (ev):

   -32.5952  -1.3077   4.1892   5.1070   6.2640   7.7296   9.7794  10.9499
    12.0334  12.6225  14.4292  16.4186  17.3134  17.5987

          k = 0.5118 0.4925-0.1070 (  4163 PWs)   bands (ev):

   -32.5943   0.1347   2.1304   4.8034   5.7537   7.1651   9.2364  11.5437
    12.1424  12.6204  14.7549  16.0729  19.0267  20.1582

          k = 0.3412 0.3940-0.0535 (  4171 PWs)   bands (ev):

   -32.5944  -0.1854   2.6139   5.0724   6.3891   6.9826   8.3254   9.9627
    11.9076  14.1786  15.2724  16.7938  18.4768  18.9404

          k = 0.1706 0.2955 0.0000 (  4188 PWs)   bands (ev):

   -32.5952  -1.5166   5.2521   5.7713   6.6562   6.9438   8.4109   9.8915
    12.2266  12.4846  14.9446  16.1274  17.5067  17.5927

          k =-0.3412 0.1970 0.2140 (  4159 PWs)   bands (ev):

   -32.5949  -0.8099   3.7505   4.6183   5.8274   6.6884   9.2602  11.4469
    13.2027  15.4615  15.5329  16.6422  17.6277  18.0646

          k = 0.5118 0.6895-0.0535 (  4161 PWs)   bands (ev):

   -32.5943   0.3850   2.8967   3.7264   4.6299   6.3039  10.9194  11.7363
    13.4842  13.7782  15.7719  17.6370  17.8909  18.2942

          k = 0.3412 0.5910 0.0000 (  4164 PWs)   bands (ev):

   -32.5940   1.3221   2.1168   2.9357   5.3041   6.3907  10.0050  10.9461
    14.4106  15.1628  15.2262  16.0651  16.7517  18.4610

          k = 0.5118-0.2955-0.3210 (  4170 PWs)   bands (ev):

   -32.5943   1.0387   1.6224   4.2407   4.8182   6.2535   8.9783  14.3533
    14.4634  14.7152  15.3195  16.8212  16.9585  19.4872

          k = 0.0000 0.0000 0.1605 (  4156 PWs)   bands (ev):

   -32.5965  -2.3257   3.4889   8.7257   9.4212   9.4212  10.7414  10.7414
    11.4784  12.4395  12.4395  13.0739  15.5420  15.5420

          k =-0.1706-0.0985 0.2140 (  4172 PWs)   bands (ev):

   -32.5960  -1.8275   3.0650   6.2688   8.9482   9.7592  10.3438  10.5066
    11.7218  12.3048  13.3348  14.5605  15.8142  17.1682

          k = 0.6824 0.3940-0.0535 (  4166 PWs)   bands (ev):

   -32.5949  -0.6215   2.6957   3.9035   7.6921   9.2624   9.9436  10.0725
    11.0762  12.6807  14.9690  15.0777  17.0916  21.1147

          k = 0.5118 0.2955 0.0000 (  4185 PWs)   bands (ev):

   -32.5943   0.3275   1.6415   4.5272   7.0868   8.1955   9.0401   9.5450
    10.1478  13.1677  16.5011  18.6290  19.0754  19.5382

          k = 0.3412 0.1970 0.0535 (  4177 PWs)   bands (ev):

   -32.5949  -1.1594   4.1424   5.8404   6.4925   7.1797   8.2641   9.7334
    11.0737  13.8525  15.8598  17.0742  18.3389  18.5295

          k =-0.1706 0.0985 0.2675 (  4172 PWs)   bands (ev):

   -32.5959  -1.6310   2.4356   7.1295   7.6257   8.5571  10.3388  11.5856
    12.7495  14.0673  14.5205  15.0113  16.0603  16.3241

          k = 0.6824 0.5910 0.0000 (  4159 PWs)   bands (ev):

   -32.5951  -0.7164   2.3919   4.6583   6.0186   8.6425  11.5322  11.7377
    12.8713  13.4047  13.6095  16.1033  17.3984  18.8948

          k = 0.5118 0.4925 0.0535 (  4170 PWs)   bands (ev):

   -32.5943   0.8232   1.8887   3.3090   5.2132   8.3383   9.8189  11.2688
    12.0133  14.7967  14.9245  17.1159  17.7392  19.3495

          k = 0.3412 0.3940 0.1070 (  4162 PWs)   bands (ev):

   -32.5943  -0.0992   3.3133   4.0687   5.3103   6.9425   9.3214  10.6031
    11.7976  15.7482  15.8991  16.1484  18.5422  18.7950

          k = 0.6824-0.3940-0.2675 (  4166 PWs)   bands (ev):

   -32.5948  -0.1216   2.1014   3.8865   6.6166   7.0575   9.4688  13.7623
    14.3662  15.1978  15.6369  16.1267  16.7487  17.3466

          k = 0.5118-0.4925-0.2140 (  4162 PWs)   bands (ev):

   -32.5943   1.1494   1.9271   3.0011   4.7941   7.3651  10.6863  11.3918
    14.3470  14.5532  15.2762  16.6597  17.6770  19.2406

          k = 0.3412-0.5910-0.1605 (  4178 PWs)   bands (ev):

   -32.5940   1.3354   2.0479   3.0661   4.9487   7.0286   8.8591  13.0070
    13.2689  14.4418  15.1395  15.6307  18.1867  18.4376

          k = 0.5118-0.2955-0.1605 (  4162 PWs)   bands (ev):

   -32.5943   0.6351   2.0041   3.5922   6.2864   6.4688   9.1083  11.8013
    12.1087  14.7907  17.2009  17.8039  19.0676  19.3097

          k = 0.0000 0.0000 0.3210 (  4177 PWs)   bands (ev):

   -32.5964  -1.7534   1.5726   9.1706   9.1706  10.2854  10.2854  10.8220
    12.0538  13.3994  13.3994  13.6808  15.8460  17.8991

          k = 0.8530 0.4925 0.0535 (  4158 PWs)   bands (ev):

   -32.5958  -1.1690   1.3719   6.1621   8.1845   9.7168  11.3211  12.3337
    12.7824  13.4185  13.7737  14.2635  16.0287  17.1937

          k = 0.6824 0.3940 0.1070 (  4169 PWs)   bands (ev):

   -32.5948   0.1010   1.6800   3.5044   6.9726   8.3969  10.2202  11.6683
    12.6041  14.3642  15.2176  16.3232  17.6208  18.6929

          k = 0.8530-0.4925-0.2140 (  4166 PWs)   bands (ev):

   -32.5958  -0.9655   1.0219   6.4593   7.6961   9.2069  11.5858  12.0103
    13.2251  14.5072  14.8746  14.9544  16.3477  16.9726

          k = 0.6824-0.5910-0.1605 (  4152 PWs)   bands (ev):

   -32.5950  -0.1524   1.3977   4.5484   5.7830   9.9379  10.7340  11.5768
    12.5936  15.1648  15.7201  16.2384  17.2488  17.3928

          k = 0.0000 0.0000-0.4815 (  4162 PWs)   bands (ev):

   -32.5963  -1.2429   0.6120   9.1474   9.1474   9.9423   9.9423  10.7804
    13.5629  14.4528  14.7967  14.7967  16.1361  16.1361

     the Fermi energy is    13.8118 ev

!    total energy              =     -47.96732854 Ry
     estimated scf accuracy    <          1.4E-11 Ry
     smearing contrib. (-TS)   =       0.00054294 Ry
     internal energy E=F+TS    =     -47.96787148 Ry

     The total energy is F=E-TS. E is the sum of the following terms:
     one-electron contribution =      17.10860835 Ry
     hartree contribution      =       2.91622154 Ry
     xc contribution           =     -16.86536689 Ry
     ewald contribution        =     -51.12733448 Ry

     convergence has been achieved in   8 iterations

     Forces acting on atoms (cartesian axes, Ry/au):

     atom    1 type  1   force =     0.00000000   -0.00000000   -0.00000000
     atom    2 type  2   force =    -0.00000000   -0.00000000    0.00027858
     atom    3 type  2   force =    -0.00000000    0.00000000   -0.00027858
     atom    4 type  2   force =    -0.00000000    0.00000000    0.00092659
     atom    5 type  2   force =     0.00000000   -0.00000000   -0.00092659
     The non-local contrib.  to forces
     atom    1 type  1   force =     0.00000000    0.00000000    0.00000000
     atom    2 type  2   force =    -0.00000000   -0.00000000    0.00861467
     atom    3 type  2   force =     0.00000000   -0.00000000   -0.00861467
     atom    4 type  2   force =     0.00000000   -0.00000000   -0.00072102
     atom    5 type  2   force =    -0.00000000    0.00000000    0.00072102
     The ionic contribution  to forces
     atom    1 type  1   force =     0.00000000    0.00000000    0.00000000
     atom    2 type  2   force =     0.00000000   -0.00000000    0.07764404
     atom    3 type  2   force =     0.00000000    0.00000000   -0.07764404
     atom    4 type  2   force =     0.00000000   -0.00000000    0.03570265
     atom    5 type  2   force =     0.00000000    0.00000000   -0.03570265
     The local contribution  to forces
     atom    1 type  1   force =    -0.00000000    0.00000000    0.00000000
     atom    2 type  2   force =     0.00000000   -0.00000000   -0.08461988
     atom    3 type  2   force =    -0.00000000    0.00000000    0.08461988
     atom    4 type  2   force =     0.00000000   -0.00000000   -0.03309610
     atom    5 type  2   force =    -0.00000000    0.00000000    0.03309610
     The core correction contribution to forces
     atom    1 type  1   force =     0.00000000    0.00000000    0.00000000
     atom    2 type  2   force =     0.00000000    0.00000000   -0.00135864
     atom    3 type  2   force =    -0.00000000   -0.00000000    0.00135864
     atom    4 type  2   force =    -0.00000000    0.00000000   -0.00095981
     atom    5 type  2   force =     0.00000000   -0.00000000    0.00095981
     The Hubbard contrib.    to forces
     atom    1 type  1   force =     0.00000000    0.00000000    0.00000000
     atom    2 type  2   force =     0.00000000    0.00000000    0.00000000
     atom    3 type  2   force =     0.00000000    0.00000000    0.00000000
     atom    4 type  2   force =     0.00000000    0.00000000    0.00000000
     atom    5 type  2   force =     0.00000000    0.00000000    0.00000000
     The SCF correction term to forces
     atom    1 type  1   force =     0.00000000    0.00000000   -0.00000000
     atom    2 type  2   force =     0.00000000   -0.00000000   -0.00000161
     atom    3 type  2   force =    -0.00000000    0.00000000    0.00000161
     atom    4 type  2   force =    -0.00000000    0.00000000    0.00000087
     atom    5 type  2   force =     0.00000000   -0.00000000   -0.00000087

     Total force =     0.001368     Total SCF correction =     0.000003


     Computing stress (Cartesian axis) and pressure

          total   stress  (Ry/bohr**3)                   (kbar)     P=      506.58
   0.00343914   0.00000000  -0.00000000          505.91        0.00       -0.00
   0.00000000   0.00343914   0.00000000            0.00      505.91        0.00
  -0.00000000   0.00000000   0.00345267           -0.00        0.00      507.91


     Writing all to output data dir ./output/LiSi.save/

     init_run     :      1.11s CPU      1.36s WALL (       2 calls)
     electrons    :     24.89s CPU     28.74s WALL (       6 calls)
     update_pot   :      0.93s CPU      0.96s WALL (       4 calls)
     forces       :      1.01s CPU      1.09s WALL (       6 calls)
     stress       :      3.90s CPU      4.08s WALL (       6 calls)

     Called by init_run:
     wfcinit      :      0.42s CPU      0.43s WALL (       2 calls)
     potinit      :      0.28s CPU      0.46s WALL (       2 calls)
     hinit0       :      0.37s CPU      0.43s WALL (       2 calls)

     Called by electrons:
     c_bands      :     21.56s CPU     24.53s WALL (      43 calls)
     sum_band     :      2.82s CPU      2.97s WALL (      43 calls)
     v_of_rho     :      0.53s CPU      1.23s WALL (      47 calls)
     mix_rho      :      0.04s CPU      0.10s WALL (      43 calls)

     Called by c_bands:
     init_us_2    :      0.38s CPU      0.42s WALL (    3200 calls)
     init_us_2:cp :      0.37s CPU      0.42s WALL (    3200 calls)
     cegterg      :     20.19s CPU     20.79s WALL (    1376 calls)

     Called by *egterg:
     cdiaghg      :      1.37s CPU      1.42s WALL (    6325 calls)
     h_psi        :     17.69s CPU     18.20s WALL (    6581 calls)
     g_psi        :      0.06s CPU      0.06s WALL (    5141 calls)

     Called by h_psi:
     h_psi:calbec :      0.99s CPU      1.02s WALL (    6581 calls)
     vloc_psi     :     15.89s CPU     16.33s WALL (    6581 calls)
     add_vuspsi   :      0.77s CPU      0.79s WALL (    6581 calls)

     General routines
     calbec       :      1.19s CPU      1.23s WALL (    7541 calls)
     fft          :      0.68s CPU      1.59s WALL (     620 calls)
     ffts         :      0.04s CPU      0.07s WALL (      43 calls)
     fftw         :     16.42s CPU     16.87s WALL (  139808 calls)

     Parallel routines

     PWSCF        :     32.08s CPU     36.79s WALL


   This run was terminated on:  21: 6:41  29Dec2024            

=------------------------------------------------------------------------------=
   JOB DONE.
=------------------------------------------------------------------------------=
