
     Program PWSCF v.7.2 starts on 22Jan2025 at 11: 9:38 

     This program is part of the open-source Quantum ESPRESSO suite
     for quantum simulation of materials; please cite
         "P. Giannozzi et al., J. Phys.:Condens. Matter 21 395502 (2009);
         "P. Giannozzi et al., J. Phys.:Condens. Matter 29 465901 (2017);
         "P. Giannozzi et al., J. Chem. Phys. 152 154105 (2020);
          URL http://www.quantum-espresso.org", 
     in publications or presentations arising from this work. More details at
     http://www.quantum-espresso.org/quote

     Parallel version (MPI & OpenMP), running on       8 processor cores
     Number of MPI processes:                 8
     Threads/MPI process:                     1

     MPI processes distributed on     1 nodes
     479745 MiB available memory on the printing compute node when the environment starts

     Waiting for input...
     Reading input from standard input

     Current dimensions of program PWSCF are:
     Max number of different atomic species (ntypx) = 10
     Max number of k-points (npk) =  40000
     Max angular momentum in pseudopotentials (lmaxx) =  4

     R & G space division:  proc/nbgrp/npool/nimage =       8
     Subspace diagonalization in iterative solution of the eigenvalue problem:
     a serial algorithm will be used


     Parallelization info
     --------------------
     sticks:   dense  smooth     PW     G-vecs:    dense   smooth      PW
     Min         299     299    101                 5737     5737    1124
     Max         300     300    102                 5738     5738    1125
     Sum        2399    2399    813                45901    45901    8993

     Using Slab Decomposition



     bravais-lattice index     =            7
     lattice parameter (alat)  =       5.8683  a.u.
     unit-cell volume          =     729.0784 (a.u.)^3
     number of atoms/cell      =           10
     number of atomic types    =            2
     number of electrons       =        32.00
     number of Kohn-Sham states=           20
     kinetic-energy cutoff     =      60.0000  Ry
     charge density cutoff     =     240.0000  Ry
     scf convergence threshold =      1.0E-08
     mixing beta               =       0.8000
     number of iterations used =            8  plain     mixing
     energy convergence thresh.=      5.0E-03
     force convergence thresh. =      1.0E-02
     press convergence thresh. =      2.0E+00
     Exchange-correlation= PBE
                           (   1   4   3   4   0   0   0)
     nstep                     =           50


     celldm(1)=   5.868314  celldm(2)=   0.000000  celldm(3)=   7.215462
     celldm(4)=   0.000000  celldm(5)=   0.000000  celldm(6)=   0.000000

     crystal axes: (cart. coord. in units of alat)
               a(1) = (   0.500000  -0.500000   3.607731 )  
               a(2) = (   0.500000   0.500000   3.607731 )  
               a(3) = (  -0.500000  -0.500000   3.607731 )  

     reciprocal axes: (cart. coord. in units 2 pi/alat)
               b(1) = (  1.000000 -1.000000  0.000000 )  
               b(2) = (  0.000000  1.000000  0.138591 )  
               b(3) = ( -1.000000  0.000000  0.138591 )  


     PseudoPot. # 1 for Li read from file:
     ../pseudo/Li_ONCV_PBE_sr.upf
     MD5 check sum: 50ff420e78310ffa21704f3361e624a4
     Pseudo is Norm-conserving, Zval =  3.0
     Generated using ONCVPSP code by D. R. Hamann
     Using radial grid of 1944 points,  4 beta functions with: 
                l(1) =   0
                l(2) =   0
                l(3) =   1
                l(4) =   1

     PseudoPot. # 2 for Si read from file:
     ../pseudo/Si_ONCV_PBE_sr.upf
     MD5 check sum: e543d271109d17c80368dfa7c482276d
     Pseudo is Norm-conserving + core correction, Zval =  4.0
     Generated using ONCVPSP code by D. R. Hamann
     Using radial grid of 1510 points,  6 beta functions with: 
                l(1) =   0
                l(2) =   0
                l(3) =   1
                l(4) =   1
                l(5) =   2
                l(6) =   2

     atomic species   valence    mass     pseudopotential
        Li             3.00     6.94100     Li( 1.00)
        Si             4.00    28.08550     Si( 1.00)

     16 Sym. Ops., with inversion, found



   Cartesian axes

     site n.     atom                  positions (alat units)
         1           Li  tau(   1) = (   0.0000000   0.0000000   0.3818351  )
         2           Li  tau(   2) = (   0.0000000   0.0000000   6.8336274  )
         3           Li  tau(   3) = (   0.0000000   0.0000000   1.1547987  )
         4           Li  tau(   4) = (   0.0000000   0.0000000   6.0606637  )
         5           Li  tau(   5) = (   0.0000000   0.0000000   2.5039567  )
         6           Li  tau(   6) = (   0.0000000   0.0000000   4.7115058  )
         7           Li  tau(   7) = (   0.0000000   0.0000000   3.2268775  )
         8           Li  tau(   8) = (   0.0000000   0.0000000   3.9885850  )
         9           Si  tau(   9) = (   0.0000000   0.0000000   1.7094152  )
        10           Si  tau(  10) = (   0.0000000   0.0000000   5.5060472  )

     number of k points=    21  Marzari-Vanderbilt smearing, width (Ry)=  0.0200
                       cart. coord. in units 2pi/alat
        k(    1) = (   0.0000000   0.0000000   0.0000000), wk =   0.0277778
        k(    2) = (   0.5000000   0.0000000  -0.0692956), wk =   0.1111111
        k(    3) = (   0.0000000   0.1666667   0.0230985), wk =   0.1111111
        k(    4) = (   0.5000000   0.1666667  -0.0461971), wk =   0.2222222
        k(    5) = (   0.0000000   0.3333333   0.0461971), wk =   0.1111111
        k(    6) = (   0.5000000   0.3333333  -0.0230985), wk =   0.2222222
        k(    7) = (   0.5000000  -0.5000000  -0.1385913), wk =   0.0555556
        k(    8) = (   0.1666667  -0.1666667   0.0000000), wk =   0.0555556
        k(    9) = (   0.6666667  -0.1666667  -0.0692956), wk =   0.2222222
        k(   10) = (   0.6666667   0.0000000  -0.0461971), wk =   0.1111111
        k(   11) = (   0.1666667   0.1666667   0.0461971), wk =   0.0555556
        k(   12) = (   0.6666667   0.1666667  -0.0230985), wk =   0.1111111
        k(   13) = (   0.6666667  -0.6666667  -0.1385913), wk =   0.0555556
        k(   14) = (   0.1666667  -0.3333333  -0.0230985), wk =   0.1111111
        k(   15) = (   0.6666667  -0.3333333  -0.0923942), wk =   0.0555556
        k(   16) = (   0.3333333  -0.3333333   0.0000000), wk =   0.0555556
        k(   17) = (   0.8333333  -0.1666667  -0.0461971), wk =   0.0555556
        k(   18) = (   0.8333333   0.0000000  -0.0230985), wk =   0.1111111
        k(   19) = (   0.8333333  -0.8333333  -0.1385913), wk =   0.0555556
        k(   20) = (   0.3333333  -0.6666667  -0.0461971), wk =   0.0555556
        k(   21) = (   0.0000000   0.0000000  -0.1385913), wk =   0.0277778

     Dense  grid:    45901 G-vectors     FFT dimensions: ( 108, 108, 108)

     Estimated max dynamical RAM per process >      30.59 MB

     Estimated total dynamical RAM >     244.75 MB

     Initial potential from superposition of free atoms

     starting charge      31.9623, renormalised to      32.0000
     Starting wfcs are   24 randomized atomic wfcs

     total cpu time spent up to now is        3.9 secs

     Self-consistent Calculation

     iteration #  1     ecut=    60.00 Ry     beta= 0.80
     Davidson diagonalization with overlap
     ethr =  1.00E-02,  avg # of iterations =  6.1

     Threshold (ethr) on eigenvalues was too large:
     Diagonalizing with lowered threshold

     Davidson diagonalization with overlap
     ethr =  1.65E-04,  avg # of iterations =  5.6

     total cpu time spent up to now is       13.0 secs

     total energy              =    -131.46048618 Ry
     estimated scf accuracy    <       0.06944094 Ry

     iteration #  2     ecut=    60.00 Ry     beta= 0.80
     Davidson diagonalization with overlap
     ethr =  2.17E-04,  avg # of iterations =  5.4

     total cpu time spent up to now is       17.6 secs

     total energy              =    -131.12947216 Ry
     estimated scf accuracy    <       4.90425985 Ry

     iteration #  3     ecut=    60.00 Ry     beta= 0.80
     Davidson diagonalization with overlap
     ethr =  2.17E-04,  avg # of iterations =  5.3

     total cpu time spent up to now is       21.9 secs

     total energy              =    -131.48747588 Ry
     estimated scf accuracy    <       0.05977238 Ry

     iteration #  4     ecut=    60.00 Ry     beta= 0.80
     Davidson diagonalization with overlap
     ethr =  1.87E-04,  avg # of iterations =  2.1

     total cpu time spent up to now is       25.5 secs

     total energy              =    -131.49344673 Ry
     estimated scf accuracy    <       0.01415560 Ry

     iteration #  5     ecut=    60.00 Ry     beta= 0.80
     Davidson diagonalization with overlap
     ethr =  4.42E-05,  avg # of iterations =  2.0

     total cpu time spent up to now is       28.8 secs

     total energy              =    -131.49519677 Ry
     estimated scf accuracy    <       0.00118151 Ry

     iteration #  6     ecut=    60.00 Ry     beta= 0.80
     Davidson diagonalization with overlap
     ethr =  3.69E-06,  avg # of iterations =  3.2

     total cpu time spent up to now is       32.3 secs

     total energy              =    -131.49527149 Ry
     estimated scf accuracy    <       0.00009333 Ry

     iteration #  7     ecut=    60.00 Ry     beta= 0.80
     Davidson diagonalization with overlap
     ethr =  2.92E-07,  avg # of iterations =  2.7

     total cpu time spent up to now is       35.8 secs

     total energy              =    -131.49528120 Ry
     estimated scf accuracy    <       0.00000368 Ry

     iteration #  8     ecut=    60.00 Ry     beta= 0.80
     Davidson diagonalization with overlap
     ethr =  1.15E-08,  avg # of iterations =  3.4

     total cpu time spent up to now is       39.4 secs

     total energy              =    -131.49528228 Ry
     estimated scf accuracy    <       0.00000146 Ry

     iteration #  9     ecut=    60.00 Ry     beta= 0.80
     Davidson diagonalization with overlap
     ethr =  4.56E-09,  avg # of iterations =  1.9

     total cpu time spent up to now is       42.6 secs

     total energy              =    -131.49528241 Ry
     estimated scf accuracy    <       0.00000002 Ry

     iteration # 10     ecut=    60.00 Ry     beta= 0.80
     Davidson diagonalization with overlap
     ethr =  5.83E-11,  avg # of iterations =  4.3

     total cpu time spent up to now is       46.5 secs

     End of self-consistent calculation

          k = 0.0000 0.0000 0.0000 (  5733 PWs)   bands (ev):

   -41.2121 -41.2120 -40.5277 -40.4801 -40.3668 -40.3642 -40.1803 -40.1448
    -7.9759  -0.6957   1.9651   2.7291   3.4204   4.5416   4.5416   6.8951
     7.8240   8.3638   9.9446   9.9446

          k = 0.5000 0.0000-0.0693 (  5748 PWs)   bands (ev):

   -41.1776 -41.1775 -40.4326 -40.4159 -40.3682 -40.3436 -40.2902 -40.2495
    -4.3691  -4.3691   2.3425   2.3429   4.3762   4.4673   5.2373   5.4518
     6.6295   6.7581   7.8007   7.8008

          k = 0.0000 0.1667 0.0231 (  5703 PWs)   bands (ev):

   -41.2033 -41.2030 -40.5064 -40.4616 -40.3716 -40.3682 -40.1987 -40.1637
    -7.5704  -0.3634   1.7526   2.2244   3.0317   3.7849   4.9059   6.8672
     7.9257   8.4315   9.3358   9.9972

          k = 0.5000 0.1667-0.0462 (  5728 PWs)   bands (ev):

   -41.1757 -41.1757 -40.4315 -40.4136 -40.3660 -40.3421 -40.2886 -40.2476
    -3.9760  -3.9760   2.6217   2.6258   4.4076   4.5696   4.9089   5.1576
     5.6507   5.7326   6.8616   7.0443

          k = 0.0000 0.3333 0.0462 (  5729 PWs)   bands (ev):

   -41.1865 -41.1860 -40.4593 -40.4261 -40.3785 -40.3665 -40.2489 -40.2106
    -6.3609  -1.6425   0.6806   3.0219   3.9067   4.6207   4.8810   5.9970
     6.4869   7.2989   8.1194   9.3099

          k = 0.5000 0.3333-0.0231 (  5714 PWs)   bands (ev):

   -41.1724 -41.1723 -40.4283 -40.4106 -40.3628 -40.3384 -40.2856 -40.2441
    -2.8058  -2.8058   1.7771   1.7779   3.4565   3.4883   4.7998   4.9932
     5.7852   6.0077   6.9662   7.2372

          k = 0.5000-0.5000-0.1386 (  5726 PWs)   bands (ev):

   -41.1712 -41.1708 -40.4267 -40.4093 -40.3615 -40.3370 -40.2844 -40.2426
    -1.0857  -1.0856  -0.6365  -0.6364   4.1000   4.2511   4.9360   5.6643
     5.7191   5.7192   5.9680   7.5552

          k = 0.1667-0.1667 0.0000 (  5734 PWs)   bands (ev):

   -41.1966 -41.1966 -40.4897 -40.4477 -40.3755 -40.3696 -40.2149 -40.1795
    -7.1662  -0.0346   1.9366   2.3295   2.4626   3.3578   4.1110   7.0222
     7.3280   8.8325   8.9315   9.2491

          k = 0.6667-0.1667-0.0693 (  5717 PWs)   bands (ev):

   -41.1827 -41.1825 -40.4511 -40.4210 -40.3764 -40.3623 -40.2559 -40.2174
    -5.9608  -1.2612   0.9919   3.2082   3.2986   4.0904   4.8451   5.2670
     6.3761   7.1843   7.8060   8.1755

          k = 0.6667 0.0000-0.0462 (  5718 PWs)   bands (ev):

   -41.1864 -41.1857 -40.4593 -40.4259 -40.3782 -40.3664 -40.2486 -40.2105
    -6.3609  -1.6425   0.6799   3.0678   3.7791   4.6288   5.0083   5.9970
     6.3909   7.4657   8.1016   8.8693

          k = 0.1667 0.1667 0.0462 (  5724 PWs)   bands (ev):

   -41.1967 -41.1963 -40.4897 -40.4475 -40.3751 -40.3697 -40.2148 -40.1792
    -7.1662  -0.0347   1.9366   2.3241   2.4856   3.2978   4.1696   6.9974
     7.3535   8.6524   8.7611   9.6139

          k = 0.6667 0.1667-0.0231 (  5724 PWs)   bands (ev):

   -41.1828 -41.1827 -40.4512 -40.4211 -40.3765 -40.3624 -40.2562 -40.2174
    -5.9608  -1.2612   0.9909   3.2111   3.3543   3.9555   4.8568   5.4015
     6.3137   7.1528   7.8667   8.2950

          k = 0.6667-0.6667-0.1386 (  5730 PWs)   bands (ev):

   -41.1760 -41.1760 -40.4354 -40.4134 -40.3701 -40.3493 -40.2738 -40.2339
    -4.7677  -0.3179   0.1030   1.9824   3.9635   4.0750   4.9735   5.0716
     5.7777   6.3542   6.3592   8.3837

          k = 0.1667-0.3333-0.0231 (  5721 PWs)   bands (ev):

   -41.1829 -41.1824 -40.4510 -40.4211 -40.3764 -40.3626 -40.2558 -40.2175
    -5.9608  -1.2612   0.9928   3.2009   3.2597   4.2358   4.8336   5.1143
     6.4456   7.2405   7.6153   8.2213

          k = 0.6667-0.3333-0.0924 (  5729 PWs)   bands (ev):

   -41.1763 -41.1757 -40.4353 -40.4135 -40.3699 -40.3496 -40.2734 -40.2339
    -4.7677  -0.3178   0.1031   1.9883   3.7334   4.3741   4.9549   5.0020
     6.0542   6.2015   6.4605   7.1808

          k = 0.3333-0.3333 0.0000 (  5728 PWs)   bands (ev):

   -41.1761 -41.1758 -40.4354 -40.4132 -40.3700 -40.3495 -40.2735 -40.2339
    -4.7677  -0.3178   0.1031   1.9904   3.6942   4.4375   4.9260   5.0173
     5.9766   6.4680   6.4963   6.8018

          k = 0.8333-0.1667-0.0462 (  5711 PWs)   bands (ev):

   -41.1965 -41.1962 -40.4895 -40.4473 -40.3749 -40.3697 -40.2147 -40.1790
    -7.1662  -0.0350   1.9365   2.3163   2.5345   3.1876   4.2724   6.9455
     7.4138   8.3693   8.6489  10.1676

          k = 0.8333 0.0000-0.0231 (  5719 PWs)   bands (ev):

   -41.2036 -41.2031 -40.5069 -40.4621 -40.3718 -40.3684 -40.1987 -40.1636
    -7.5704  -0.3638   1.7512   2.2811   2.8748   3.9301   4.9059   6.7885
     7.8961   8.4132   9.0712  10.3028

          k = 0.8333-0.8333-0.1386 (  5716 PWs)   bands (ev):

   -41.1966 -41.1962 -40.4895 -40.4473 -40.3751 -40.3697 -40.2149 -40.1789
    -7.1662  -0.0352   1.9365   2.3132   2.5619   3.1337   4.3193   6.9184
     7.4511   8.2555   8.6029  10.9434

          k = 0.3333-0.6667-0.0462 (  5730 PWs)   bands (ev):

   -41.1763 -41.1758 -40.4358 -40.4135 -40.3697 -40.3495 -40.2735 -40.2338
    -4.7677  -0.3178   0.1030   1.9843   3.8429   4.2178   4.9810   5.0256
     5.9020   6.2171   6.4312   7.7461

          k = 0.0000 0.0000-0.1386 (  5724 PWs)   bands (ev):

   -41.2120 -41.2118 -40.5278 -40.4800 -40.3661 -40.3643 -40.1791 -40.1455
    -7.9759  -0.6959   2.0171   2.5786   3.5572   4.5415   4.5415   6.7702
     7.8239   8.3708  10.0093  10.0093

     the Fermi energy is     5.8508 ev

!    total energy              =    -131.49528242 Ry
     estimated scf accuracy    <          3.3E-09 Ry
     smearing contrib. (-TS)   =      -0.00153749 Ry
     internal energy E=F+TS    =    -131.49374492 Ry

     The total energy is F=E-TS. E is the sum of the following terms:
     one-electron contribution =     -59.26327166 Ry
     hartree contribution      =      28.12391699 Ry
     xc contribution           =     -34.21394419 Ry
     ewald contribution        =     -66.14044606 Ry

     convergence has been achieved in  10 iterations

     Forces acting on atoms (cartesian axes, Ry/au):

     atom    1 type  1   force =     0.00000000    0.00000000    0.00441466
     atom    2 type  1   force =     0.00000000   -0.00000000   -0.00441466
     atom    3 type  1   force =     0.00000000    0.00000000   -0.28158936
     atom    4 type  1   force =     0.00000000    0.00000000    0.28158936
     atom    5 type  1   force =     0.00000000   -0.00000000   -0.01577669
     atom    6 type  1   force =    -0.00000000    0.00000000    0.01577669
     atom    7 type  1   force =     0.00000000    0.00000000    0.00388584
     atom    8 type  1   force =     0.00000000    0.00000000   -0.00388584
     atom    9 type  2   force =     0.00000000    0.00000000    0.25399757
     atom   10 type  2   force =     0.00000000    0.00000000   -0.25399757
     The non-local contrib.  to forces
     atom    1 type  1   force =     0.00000000    0.00000000   -0.01322441
     atom    2 type  1   force =     0.00000000    0.00000000    0.01322441
     atom    3 type  1   force =     0.00000000    0.00000000    0.04622076
     atom    4 type  1   force =    -0.00000000    0.00000000   -0.04622076
     atom    5 type  1   force =     0.00000000   -0.00000000   -0.03517161
     atom    6 type  1   force =     0.00000000    0.00000000    0.03517161
     atom    7 type  1   force =     0.00000000    0.00000000   -0.00245684
     atom    8 type  1   force =     0.00000000   -0.00000000    0.00245684
     atom    9 type  2   force =     0.00000000    0.00000000    0.19528672
     atom   10 type  2   force =    -0.00000000    0.00000000   -0.19528672
     The ionic contribution  to forces
     atom    1 type  1   force =    -0.00000000    0.00000000   -0.80916061
     atom    2 type  1   force =     0.00000000    0.00000000    0.80916061
     atom    3 type  1   force =     0.00000000    0.00000000   -2.81012889
     atom    4 type  1   force =    -0.00000000    0.00000000    2.81012889
     atom    5 type  1   force =     0.00000000   -0.00000000    1.95227784
     atom    6 type  1   force =    -0.00000000    0.00000000   -1.95227784
     atom    7 type  1   force =     0.00000000    0.00000000    0.87676042
     atom    8 type  1   force =     0.00000000    0.00000000   -0.87676042
     atom    9 type  2   force =    -0.00000000   -0.00000000    0.14574723
     atom   10 type  2   force =    -0.00000000   -0.00000000   -0.14574723
     The local contribution  to forces
     atom    1 type  1   force =    -0.00000000   -0.00000000    0.82675786
     atom    2 type  1   force =    -0.00000000   -0.00000000   -0.82675786
     atom    3 type  1   force =     0.00000000   -0.00000000    2.48230822
     atom    4 type  1   force =    -0.00000000   -0.00000000   -2.48230822
     atom    5 type  1   force =    -0.00000000   -0.00000000   -1.93286585
     atom    6 type  1   force =     0.00000000    0.00000000    1.93286585
     atom    7 type  1   force =    -0.00000000   -0.00000000   -0.87037516
     atom    8 type  1   force =    -0.00000000   -0.00000000    0.87037516
     atom    9 type  2   force =     0.00000000    0.00000000   -0.07699864
     atom   10 type  2   force =     0.00000000   -0.00000000    0.07699864
     The core correction contribution to forces
     atom    1 type  1   force =     0.00000000    0.00000000    0.00000000
     atom    2 type  1   force =     0.00000000    0.00000000    0.00000000
     atom    3 type  1   force =     0.00000000    0.00000000    0.00000000
     atom    4 type  1   force =     0.00000000    0.00000000    0.00000000
     atom    5 type  1   force =     0.00000000    0.00000000    0.00000000
     atom    6 type  1   force =     0.00000000    0.00000000    0.00000000
     atom    7 type  1   force =     0.00000000    0.00000000    0.00000000
     atom    8 type  1   force =     0.00000000    0.00000000    0.00000000
     atom    9 type  2   force =    -0.00000000    0.00000000   -0.01002915
     atom   10 type  2   force =     0.00000000   -0.00000000    0.01002915
     The Hubbard contrib.    to forces
     atom    1 type  1   force =     0.00000000    0.00000000    0.00000000
     atom    2 type  1   force =     0.00000000    0.00000000    0.00000000
     atom    3 type  1   force =     0.00000000    0.00000000    0.00000000
     atom    4 type  1   force =     0.00000000    0.00000000    0.00000000
     atom    5 type  1   force =     0.00000000    0.00000000    0.00000000
     atom    6 type  1   force =     0.00000000    0.00000000    0.00000000
     atom    7 type  1   force =     0.00000000    0.00000000    0.00000000
     atom    8 type  1   force =     0.00000000    0.00000000    0.00000000
     atom    9 type  2   force =     0.00000000    0.00000000    0.00000000
     atom   10 type  2   force =     0.00000000    0.00000000    0.00000000
     The SCF correction term to forces
     atom    1 type  1   force =    -0.00000000    0.00000000    0.00004182
     atom    2 type  1   force =    -0.00000000   -0.00000000   -0.00004182
     atom    3 type  1   force =    -0.00000000    0.00000000    0.00001054
     atom    4 type  1   force =     0.00000000    0.00000000   -0.00001054
     atom    5 type  1   force =    -0.00000000    0.00000000   -0.00001707
     atom    6 type  1   force =    -0.00000000    0.00000000    0.00001707
     atom    7 type  1   force =     0.00000000    0.00000000   -0.00004258
     atom    8 type  1   force =    -0.00000000    0.00000000    0.00004258
     atom    9 type  2   force =     0.00000000    0.00000000   -0.00000859
     atom   10 type  2   force =     0.00000000   -0.00000000    0.00000859

     Total force =     0.536826     Total SCF correction =     0.000090


     Computing stress (Cartesian axis) and pressure

          total   stress  (Ry/bohr**3)                   (kbar)     P=      349.96
   0.00203153   0.00000000  -0.00000000          298.85        0.00       -0.00
  -0.00000000   0.00203153   0.00000000           -0.00      298.85        0.00
  -0.00000000   0.00000000   0.00307389           -0.00        0.00      452.19


     BFGS Geometry Optimization
     Energy error            =      0.0E+00 Ry
     Gradient error          =      2.8E-01 Ry/Bohr
     Cell gradient error     =      2.0E+02 kbar

     number of scf cycles    =   1
     number of bfgs steps    =   0

     enthalpy           new  =    -129.0171954652 Ry

     new trust radius        =       0.2815893591 bohr
ibrav =      7
 celldm(1) =      5.66770574
 celldm(3) =      7.41014579
Input lattice vectors:
     0.48290751    -0.48290751     3.57841502
     0.48290751     0.48290751     3.57841502
    -0.48290751    -0.48290751     3.57841502
New lattice vectors in INITIAL alat:
     0.48290751    -0.48290751     3.57841502
     0.48290751     0.48290751     3.57841502
    -0.48290751    -0.48290751     3.57841502
New lattice vectors in NEW alat (for information only):
     0.50000000    -0.50000000     3.70507290
     0.50000000     0.50000000     3.70507290
    -0.50000000    -0.50000000     3.70507290
Discrepancy in bohr =     0.000000    0.000000    0.000000
     new conv_thr            =       0.0000000100 Ry

     new unit-cell volume =    674.55698 a.u.^3 (    99.95903 Ang^3 )
     density =      1.85557 g/cm^3

CELL_PARAMETERS (alat=  5.86831399)
   0.482907505  -0.482907505   3.578415018
   0.482907505   0.482907505   3.578415018
  -0.482907505  -0.482907505   3.578415018

ATOMIC_POSITIONS (crystal)
Li           -0.0000000000        0.0530232606        0.0530232606
Li           -0.0000000000        0.9469767394        0.9469767394
Li            0.0000000000        0.1533947384        0.1533947384
Li           -0.0000000000        0.8466052616        0.8466052616
Li           -0.0000000000        0.3466539038        0.3466539038
Li           -0.0000000000        0.6533460962        0.6533460962
Li           -0.0000000000        0.4473087715        0.4473087715
Li           -0.0000000000        0.5526912285        0.5526912285
Si            0.0000000000        0.2429086295        0.2429086295
Si           -0.0000000000        0.7570913705        0.7570913705



     Writing config-only to output data dir ./output/LiSi.save/
     NEW-OLD atomic charge density approx. for the potential
     extrapolated charge   29.41663, renormalised to   32.00000

     total cpu time spent up to now is       49.3 secs

     Self-consistent Calculation

     iteration #  1     ecut=    60.00 Ry     beta= 0.80
     Davidson diagonalization with overlap
     ethr =  1.00E-06,  avg # of iterations = 12.2

     total cpu time spent up to now is       59.7 secs

     total energy              =    -126.85113974 Ry
     estimated scf accuracy    <       4.71701844 Ry

     iteration #  2     ecut=    60.00 Ry     beta= 0.80
     Davidson diagonalization with overlap
     ethr =  1.00E-02,  avg # of iterations =  7.5

     total cpu time spent up to now is       66.1 secs

     total energy              =    -125.75659564 Ry
     estimated scf accuracy    <     194.98061823 Ry

     iteration #  3     ecut=    60.00 Ry     beta= 0.80
     Davidson diagonalization with overlap
     ethr =  1.00E-02,  avg # of iterations =  6.6

     total cpu time spent up to now is       72.0 secs

     total energy              =    -131.63685938 Ry
     estimated scf accuracy    <      14.90443865 Ry

     iteration #  4     ecut=    60.00 Ry     beta= 0.80
     Davidson diagonalization with overlap
     ethr =  1.00E-02,  avg # of iterations =  2.0

     total cpu time spent up to now is       75.3 secs

     total energy              =    -131.09444819 Ry
     estimated scf accuracy    <       7.74532002 Ry

     iteration #  5     ecut=    60.00 Ry     beta= 0.80
     Davidson diagonalization with overlap
     ethr =  1.00E-02,  avg # of iterations =  2.7

     total cpu time spent up to now is       78.8 secs

     total energy              =    -131.45623775 Ry
     estimated scf accuracy    <       0.36619096 Ry

     iteration #  6     ecut=    60.00 Ry     beta= 0.80
     Davidson diagonalization with overlap
     ethr =  1.14E-03,  avg # of iterations =  3.4

     total cpu time spent up to now is       82.3 secs

     total energy              =    -131.50872818 Ry
     estimated scf accuracy    <       0.05155738 Ry

     iteration #  7     ecut=    60.00 Ry     beta= 0.80
     Davidson diagonalization with overlap
     ethr =  1.61E-04,  avg # of iterations =  4.1

     total cpu time spent up to now is       85.7 secs

     total energy              =    -131.50897891 Ry
     estimated scf accuracy    <       0.06399174 Ry

     iteration #  8     ecut=    60.00 Ry     beta= 0.80
     Davidson diagonalization with overlap
     ethr =  1.61E-04,  avg # of iterations =  1.0

     total cpu time spent up to now is       88.8 secs

     total energy              =    -131.50495631 Ry
     estimated scf accuracy    <       0.03006562 Ry

     iteration #  9     ecut=    60.00 Ry     beta= 0.80
     Davidson diagonalization with overlap
     ethr =  9.40E-05,  avg # of iterations =  2.3

     total cpu time spent up to now is       92.0 secs

     total energy              =    -131.50718780 Ry
     estimated scf accuracy    <       0.00208516 Ry

     iteration # 10     ecut=    60.00 Ry     beta= 0.80
     Davidson diagonalization with overlap
     ethr =  6.52E-06,  avg # of iterations =  3.6

     total cpu time spent up to now is       95.5 secs

     total energy              =    -131.50886809 Ry
     estimated scf accuracy    <       0.00379006 Ry

     iteration # 11     ecut=    60.00 Ry     beta= 0.80
     Davidson diagonalization with overlap
     ethr =  6.52E-06,  avg # of iterations =  3.0

     total cpu time spent up to now is       99.2 secs

     total energy              =    -131.51351011 Ry
     estimated scf accuracy    <       0.00499951 Ry

     iteration # 12     ecut=    60.00 Ry     beta= 0.80
     Davidson diagonalization with overlap
     ethr =  6.52E-06,  avg # of iterations =  2.0

     total cpu time spent up to now is      102.3 secs

     total energy              =    -131.51486725 Ry
     estimated scf accuracy    <       0.02182280 Ry

     iteration # 13     ecut=    60.00 Ry     beta= 0.80
     Davidson diagonalization with overlap
     ethr =  6.52E-06,  avg # of iterations =  2.1

     total cpu time spent up to now is      105.6 secs

     total energy              =    -131.51494128 Ry
     estimated scf accuracy    <       0.00383517 Ry

     iteration # 14     ecut=    60.00 Ry     beta= 0.80
     Davidson diagonalization with overlap
     ethr =  6.52E-06,  avg # of iterations =  1.6

     total cpu time spent up to now is      108.7 secs

     total energy              =    -131.51505919 Ry
     estimated scf accuracy    <       0.00036960 Ry

     iteration # 15     ecut=    60.00 Ry     beta= 0.80
     Davidson diagonalization with overlap
     ethr =  1.15E-06,  avg # of iterations =  3.1

     total cpu time spent up to now is      112.0 secs

     total energy              =    -131.51545284 Ry
     estimated scf accuracy    <       0.00048322 Ry

     iteration # 16     ecut=    60.00 Ry     beta= 0.80
     Davidson diagonalization with overlap
     ethr =  1.15E-06,  avg # of iterations =  1.0

     total cpu time spent up to now is      115.1 secs

     total energy              =    -131.51545621 Ry
     estimated scf accuracy    <       0.00060151 Ry

     iteration # 17     ecut=    60.00 Ry     beta= 0.80
     Davidson diagonalization with overlap
     ethr =  1.15E-06,  avg # of iterations =  1.0

     total cpu time spent up to now is      118.1 secs

     total energy              =    -131.51537568 Ry
     estimated scf accuracy    <       0.00060621 Ry

     iteration # 18     ecut=    60.00 Ry     beta= 0.80
     Davidson diagonalization with overlap
     ethr =  1.15E-06,  avg # of iterations =  1.8

     total cpu time spent up to now is      121.3 secs

     total energy              =    -131.51541818 Ry
     estimated scf accuracy    <       0.00005988 Ry

     iteration # 19     ecut=    60.00 Ry     beta= 0.80
     Davidson diagonalization with overlap
     ethr =  1.87E-07,  avg # of iterations =  1.3

     total cpu time spent up to now is      124.3 secs

     total energy              =    -131.51537113 Ry
     estimated scf accuracy    <       0.00018620 Ry

     iteration # 20     ecut=    60.00 Ry     beta= 0.80
     Davidson diagonalization with overlap
     ethr =  1.87E-07,  avg # of iterations =  2.7

     total cpu time spent up to now is      127.7 secs

     total energy              =    -131.51538991 Ry
     estimated scf accuracy    <       0.00001772 Ry

     iteration # 21     ecut=    60.00 Ry     beta= 0.80
     Davidson diagonalization with overlap
     ethr =  5.54E-08,  avg # of iterations =  3.1

     total cpu time spent up to now is      131.4 secs

     total energy              =    -131.51548494 Ry
     estimated scf accuracy    <       0.00036940 Ry

     iteration # 22     ecut=    60.00 Ry     beta= 0.80
     Davidson diagonalization with overlap
     ethr =  5.54E-08,  avg # of iterations =  2.5

     total cpu time spent up to now is      134.8 secs

     total energy              =    -131.51536090 Ry
     estimated scf accuracy    <       0.00092368 Ry

     iteration # 23     ecut=    60.00 Ry     beta= 0.80
     Davidson diagonalization with overlap
     ethr =  5.54E-08,  avg # of iterations =  3.0

     total cpu time spent up to now is      138.6 secs

     total energy              =    -131.51538720 Ry
     estimated scf accuracy    <       0.00006990 Ry

     iteration # 24     ecut=    60.00 Ry     beta= 0.80
     Davidson diagonalization with overlap
     ethr =  5.54E-08,  avg # of iterations =  2.5

     total cpu time spent up to now is      141.9 secs

     total energy              =    -131.51539611 Ry
     estimated scf accuracy    <       0.00000427 Ry

     iteration # 25     ecut=    60.00 Ry     beta= 0.80
     Davidson diagonalization with overlap
     ethr =  1.33E-08,  avg # of iterations =  1.7

     total cpu time spent up to now is      145.0 secs

     total energy              =    -131.51564930 Ry
     estimated scf accuracy    <       0.00019776 Ry

     iteration # 26     ecut=    60.00 Ry     beta= 0.80
     Davidson diagonalization with overlap
     ethr =  1.33E-08,  avg # of iterations =  2.4

     total cpu time spent up to now is      148.3 secs

     total energy              =    -131.51561722 Ry
     estimated scf accuracy    <       0.00035497 Ry

     iteration # 27     ecut=    60.00 Ry     beta= 0.80
     Davidson diagonalization with overlap
     ethr =  1.33E-08,  avg # of iterations =  2.9

     total cpu time spent up to now is      151.8 secs

     total energy              =    -131.51561229 Ry
     estimated scf accuracy    <       0.00009465 Ry

     iteration # 28     ecut=    60.00 Ry     beta= 0.80
     Davidson diagonalization with overlap
     ethr =  1.33E-08,  avg # of iterations =  2.7

     total cpu time spent up to now is      155.1 secs

     total energy              =    -131.51561398 Ry
     estimated scf accuracy    <       0.00001151 Ry

     iteration # 29     ecut=    60.00 Ry     beta= 0.80
     Davidson diagonalization with overlap
     ethr =  1.33E-08,  avg # of iterations =  1.7

     total cpu time spent up to now is      158.1 secs

     total energy              =    -131.51561467 Ry
     estimated scf accuracy    <       0.00000047 Ry

     iteration # 30     ecut=    60.00 Ry     beta= 0.80
     Davidson diagonalization with overlap
     ethr =  1.48E-09,  avg # of iterations =  1.6

     total cpu time spent up to now is      161.2 secs

     total energy              =    -131.51561458 Ry
     estimated scf accuracy    <       0.00000072 Ry

     iteration # 31     ecut=    60.00 Ry     beta= 0.80
     Davidson diagonalization with overlap
     ethr =  1.48E-09,  avg # of iterations =  1.7

     total cpu time spent up to now is      164.2 secs

     total energy              =    -131.51561461 Ry
     estimated scf accuracy    <       0.00000003 Ry

     iteration # 32     ecut=    60.00 Ry     beta= 0.80
     Davidson diagonalization with overlap
     ethr =  8.79E-11,  avg # of iterations =  3.8

     total cpu time spent up to now is      167.7 secs

     total energy              =    -131.51561463 Ry
     estimated scf accuracy    <       0.00000007 Ry

     iteration # 33     ecut=    60.00 Ry     beta= 0.80
     Davidson diagonalization with overlap
     ethr =  8.79E-11,  avg # of iterations =  1.0

     total cpu time spent up to now is      170.6 secs

     total energy              =    -131.51561461 Ry
     estimated scf accuracy    <       0.00000007 Ry

     iteration # 34     ecut=    60.00 Ry     beta= 0.80
     Davidson diagonalization with overlap
     ethr =  8.79E-11,  avg # of iterations =  1.6

     total cpu time spent up to now is      173.7 secs

     End of self-consistent calculation

          k = 0.0000 0.0000 0.0000 (  5733 PWs)   bands (ev):

   -40.1852 -40.1839 -39.8910 -39.8370 -39.7218 -39.7216 -39.4641 -39.4271
    -8.1904  -0.5118   2.5515   3.2547   3.8720   5.2087   5.2087   7.3977
     7.9465   9.9641  11.3206  11.3206

          k = 0.5177-0.0000-0.0699 (  5748 PWs)   bands (ev):

   -40.0329 -40.0326 -39.8619 -39.8608 -39.6712 -39.6688 -39.6279 -39.6239
    -4.3176  -4.3176   2.8550   2.8550   5.0646   5.0732   5.9415   6.0088
     7.3137   7.3990   9.9328  10.1118

          k =-0.0000 0.1726 0.0233 (  5703 PWs)   bands (ev):

   -40.1566 -40.1556 -39.8608 -39.8086 -39.7461 -39.7455 -39.4905 -39.4535
    -7.7538  -0.1351   2.1865   2.8144   3.5628   4.2602   5.5854   7.5469
     8.8296   9.2872  10.2357  10.8038

          k = 0.5177 0.1726-0.0466 (  5728 PWs)   bands (ev):

   -40.0305 -40.0301 -39.8595 -39.8583 -39.6688 -39.6664 -39.6256 -39.6216
    -3.8989  -3.8989   3.1796   3.1833   5.0934   5.1907   5.6786   5.8038
     6.1530   6.3023   7.4712   7.7191

          k =-0.0000 0.3451 0.0466 (  5729 PWs)   bands (ev):

   -40.0861 -40.0854 -39.8146 -39.8118 -39.7755 -39.7286 -39.5653 -39.5251
    -6.4535  -1.3999   0.9996   3.6277   4.4751   5.3485   5.4660   6.7156
     7.2298   8.0402   8.7442  10.0823

          k = 0.5177 0.3451-0.0233 (  5714 PWs)   bands (ev):

   -40.0255 -40.0252 -39.8545 -39.8534 -39.6640 -39.6617 -39.6209 -39.6169
    -2.6608  -2.6608   2.3385   2.3390   4.0804   4.1158   5.3440   5.5716
     6.2739   6.6039   7.7346   7.9113

          k = 0.5177-0.5177-0.1397 (  5726 PWs)   bands (ev):

   -40.0230 -40.0229 -39.8520 -39.8511 -39.6617 -39.6594 -39.6186 -39.6146
    -1.0382  -1.0381  -0.0356  -0.0356   4.7853   5.0025   5.4408   6.3868
     6.4014   6.4180   6.4180   8.1013

          k = 0.1726-0.1726-0.0000 (  5734 PWs)   bands (ev):

   -40.1328 -40.1315 -39.8352 -39.7867 -39.7663 -39.7625 -39.5135 -39.4759
    -7.3191   0.2382   2.2020   3.0487   3.0555   3.8805   4.6145   7.7575
     8.3138   9.6903   9.9143   9.9383

          k = 0.6903-0.1726-0.0699 (  5717 PWs)   bands (ev):

   -40.0728 -40.0724 -39.8219 -39.8201 -39.7601 -39.7131 -39.5773 -39.5368
    -6.0243  -1.0044   1.3573   3.8396   3.8708   4.6582   5.6364   5.8342
     7.0661   7.9495   8.4093   9.0655

          k = 0.6903-0.0000-0.0466 (  5718 PWs)   bands (ev):

   -40.0859 -40.0856 -39.8147 -39.8115 -39.7753 -39.7286 -39.5652 -39.5251
    -6.4535  -1.3999   0.9992   3.6675   4.3615   5.3899   5.5466   6.7156
     7.1237   8.2016   8.7389   9.6963

          k = 0.1726 0.1726 0.0466 (  5724 PWs)   bands (ev):

   -40.1325 -40.1317 -39.8351 -39.7866 -39.7661 -39.7625 -39.5135 -39.4757
    -7.3191   0.2381   2.2020   3.0459   3.0717   3.8331   4.6615   7.7255
     8.3484   9.4919   9.6638  10.4396

          k = 0.6903 0.1726-0.0233 (  5724 PWs)   bands (ev):

   -40.0727 -40.0725 -39.8219 -39.8202 -39.7602 -39.7131 -39.5775 -39.5367
    -6.0243  -1.0044   1.3567   3.8549   3.9024   4.5440   5.6594   5.9427
     6.9764   7.9660   8.5328   9.0376

          k = 0.6903-0.6903-0.1397 (  5730 PWs)   bands (ev):

   -40.0431 -40.0430 -39.8418 -39.8405 -39.7179 -39.6721 -39.6120 -39.5700
    -4.7473  -0.2207   0.7697   2.4274   4.5365   4.8272   5.4749   5.8963
     6.3447   6.9718   7.0920   8.9910

          k = 0.1726-0.3451-0.0233 (  5721 PWs)   bands (ev):

   -40.0729 -40.0723 -39.8218 -39.8202 -39.7601 -39.7132 -39.5772 -39.5369
    -6.0243  -1.0044   1.3580   3.8072   3.8646   4.7815   5.5970   5.7287
     7.1787   7.8844   8.3098   9.1302

          k = 0.6903-0.3451-0.0932 (  5729 PWs)   bands (ev):

   -40.0432 -40.0428 -39.8415 -39.8405 -39.7179 -39.6723 -39.6117 -39.5701
    -4.7473  -0.2207   0.7697   2.4321   4.3616   5.0695   5.5303   5.7199
     6.6581   6.8489   7.1600   7.8121

          k = 0.3451-0.3451-0.0000 (  5728 PWs)   bands (ev):

   -40.0432 -40.0428 -39.8417 -39.8404 -39.7179 -39.6722 -39.6118 -39.5701
    -4.7473  -0.2206   0.7697   2.4337   4.3250   5.1252   5.5637   5.6832
     6.5621   7.1671   7.2840   7.2987

          k = 0.8628-0.1726-0.0466 (  5711 PWs)   bands (ev):

   -40.1323 -40.1317 -39.8349 -39.7865 -39.7661 -39.7624 -39.5134 -39.4755
    -7.3191   0.2379   2.2019   3.0449   3.1028   3.7458   4.7454   7.6615
     8.4393   9.1588   9.6198  11.0193

          k = 0.8628-0.0000-0.0233 (  5719 PWs)   bands (ev):

   -40.1566 -40.1561 -39.8609 -39.8088 -39.7462 -39.7451 -39.4904 -39.4533
    -7.7538  -0.1353   2.1865   2.8566   3.4363   4.3781   5.5854   7.4557
     8.8578   9.2799   9.8839  11.4077

          k = 0.8628-0.8628-0.1397 (  5716 PWs)   bands (ev):

   -40.1322 -40.1319 -39.8351 -39.7865 -39.7661 -39.7624 -39.5136 -39.4754
    -7.3191   0.2378   2.2019   3.0447   3.1202   3.7038   4.7840   7.6295
     8.5077   9.0093   9.6013  11.5984

          k = 0.3451-0.6903-0.0466 (  5730 PWs)   bands (ev):

   -40.0431 -40.0430 -39.8417 -39.8406 -39.7180 -39.6722 -39.6118 -39.5700
    -4.7473  -0.2207   0.7697   2.4290   4.4583   4.9286   5.4884   5.8182
     6.5050   6.8509   7.1326   8.4001

          k = 0.0000-0.0000-0.1397 (  5724 PWs)   bands (ev):

   -40.1848 -40.1842 -39.8909 -39.8370 -39.7215 -39.7211 -39.4632 -39.4275
    -8.1904  -0.5120   2.5910   3.1340   3.9812   5.2087   5.2087   7.3006
     7.9465   9.9657  11.4446  11.4446

     the Fermi energy is     6.4183 ev

!    total energy              =    -131.51561462 Ry
     estimated scf accuracy    <          1.0E-10 Ry
     smearing contrib. (-TS)   =      -0.00003045 Ry
     internal energy E=F+TS    =    -131.51558417 Ry

     The total energy is F=E-TS. E is the sum of the following terms:
     one-electron contribution =     -54.78532025 Ry
     hartree contribution      =      26.74994751 Ry
     xc contribution           =     -34.45054054 Ry
     ewald contribution        =     -69.02967089 Ry

     convergence has been achieved in  34 iterations

     Forces acting on atoms (cartesian axes, Ry/au):

     atom    1 type  1   force =    -0.00000000    0.00000000   -0.00209195
     atom    2 type  1   force =     0.00000000    0.00000000    0.00209195
     atom    3 type  1   force =     0.00000000   -0.00000000   -0.09816713
     atom    4 type  1   force =    -0.00000000   -0.00000000    0.09816713
     atom    5 type  1   force =    -0.00000000   -0.00000000   -0.00572170
     atom    6 type  1   force =    -0.00000000    0.00000000    0.00572170
     atom    7 type  1   force =    -0.00000000    0.00000000    0.00430584
     atom    8 type  1   force =     0.00000000    0.00000000   -0.00430584
     atom    9 type  2   force =     0.00000000   -0.00000000    0.03473527
     atom   10 type  2   force =    -0.00000000   -0.00000000   -0.03473527
     The non-local contrib.  to forces
     atom    1 type  1   force =    -0.00000000   -0.00000000   -0.00927017
     atom    2 type  1   force =     0.00000000    0.00000000    0.00927017
     atom    3 type  1   force =    -0.00000000    0.00000000    0.02963316
     atom    4 type  1   force =    -0.00000000   -0.00000000   -0.02963316
     atom    5 type  1   force =    -0.00000000    0.00000000   -0.05175296
     atom    6 type  1   force =     0.00000000    0.00000000    0.05175296
     atom    7 type  1   force =     0.00000000   -0.00000000    0.01494120
     atom    8 type  1   force =     0.00000000   -0.00000000   -0.01494120
     atom    9 type  2   force =     0.00000000    0.00000000    0.03595408
     atom   10 type  2   force =    -0.00000000   -0.00000000   -0.03595408
     The ionic contribution  to forces
     atom    1 type  1   force =     0.00000000    0.00000000   -0.91611609
     atom    2 type  1   force =     0.00000000    0.00000000    0.91611609
     atom    3 type  1   force =    -0.00000000   -0.00000000   -2.09415427
     atom    4 type  1   force =     0.00000000    0.00000000    2.09415427
     atom    5 type  1   force =     0.00000000    0.00000000    1.81107659
     atom    6 type  1   force =    -0.00000000   -0.00000000   -1.81107659
     atom    7 type  1   force =     0.00000000    0.00000000    0.90505044
     atom    8 type  1   force =     0.00000000    0.00000000   -0.90505044
     atom    9 type  2   force =     0.00000000   -0.00000000   -0.19802361
     atom   10 type  2   force =    -0.00000000   -0.00000000    0.19802361
     The local contribution  to forces
     atom    1 type  1   force =    -0.00000000   -0.00000000    0.92329391
     atom    2 type  1   force =    -0.00000000   -0.00000000   -0.92329391
     atom    3 type  1   force =    -0.00000000    0.00000000    1.96634086
     atom    4 type  1   force =    -0.00000000   -0.00000000   -1.96634086
     atom    5 type  1   force =     0.00000000   -0.00000000   -1.76503324
     atom    6 type  1   force =    -0.00000000   -0.00000000    1.76503324
     atom    7 type  1   force =    -0.00000000    0.00000000   -0.91568533
     atom    8 type  1   force =    -0.00000000   -0.00000000    0.91568533
     atom    9 type  2   force =    -0.00000000    0.00000000    0.19732577
     atom   10 type  2   force =     0.00000000   -0.00000000   -0.19732577
     The core correction contribution to forces
     atom    1 type  1   force =     0.00000000    0.00000000    0.00000000
     atom    2 type  1   force =     0.00000000    0.00000000    0.00000000
     atom    3 type  1   force =     0.00000000    0.00000000    0.00000000
     atom    4 type  1   force =     0.00000000    0.00000000    0.00000000
     atom    5 type  1   force =     0.00000000    0.00000000    0.00000000
     atom    6 type  1   force =     0.00000000    0.00000000    0.00000000
     atom    7 type  1   force =     0.00000000    0.00000000    0.00000000
     atom    8 type  1   force =     0.00000000    0.00000000    0.00000000
     atom    9 type  2   force =    -0.00000000   -0.00000000   -0.00052254
     atom   10 type  2   force =     0.00000000    0.00000000    0.00052254
     The Hubbard contrib.    to forces
     atom    1 type  1   force =     0.00000000    0.00000000    0.00000000
     atom    2 type  1   force =     0.00000000    0.00000000    0.00000000
     atom    3 type  1   force =     0.00000000    0.00000000    0.00000000
     atom    4 type  1   force =     0.00000000    0.00000000    0.00000000
     atom    5 type  1   force =     0.00000000    0.00000000    0.00000000
     atom    6 type  1   force =     0.00000000    0.00000000    0.00000000
     atom    7 type  1   force =     0.00000000    0.00000000    0.00000000
     atom    8 type  1   force =     0.00000000    0.00000000    0.00000000
     atom    9 type  2   force =     0.00000000    0.00000000    0.00000000
     atom   10 type  2   force =     0.00000000    0.00000000    0.00000000
     The SCF correction term to forces
     atom    1 type  1   force =    -0.00000000    0.00000000    0.00000041
     atom    2 type  1   force =     0.00000000   -0.00000000   -0.00000041
     atom    3 type  1   force =    -0.00000000   -0.00000000    0.00001311
     atom    4 type  1   force =    -0.00000000    0.00000000   -0.00001311
     atom    5 type  1   force =     0.00000000   -0.00000000   -0.00001208
     atom    6 type  1   force =     0.00000000   -0.00000000    0.00001208
     atom    7 type  1   force =    -0.00000000   -0.00000000   -0.00000048
     atom    8 type  1   force =     0.00000000    0.00000000    0.00000048
     atom    9 type  2   force =     0.00000000   -0.00000000    0.00000157
     atom   10 type  2   force =    -0.00000000    0.00000000   -0.00000157

     Total force =     0.147641     Total SCF correction =     0.000025


     Computing stress (Cartesian axis) and pressure

          total   stress  (Ry/bohr**3)                   (kbar)     P=      445.58
   0.00347538  -0.00000000  -0.00000000          511.25       -0.00       -0.00
  -0.00000000   0.00347538   0.00000000           -0.00      511.25        0.00
  -0.00000000   0.00000000   0.00213622           -0.00        0.00      314.25

     Energy error            =      2.1E-01 Ry
     Gradient error          =      9.8E-02 Ry/Bohr
     Cell gradient error     =      1.9E+02 kbar

     number of scf cycles    =   2
     number of bfgs steps    =   1

     enthalpy           old  =    -129.0171954652 Ry
     enthalpy           new  =    -129.2228420484 Ry

     CASE: enthalpy          _new < enthalpy          _old

     new trust radius        =       0.2015353221 bohr
ibrav =      7
 celldm(1) =      5.65352226
 celldm(3) =      7.14051448
Input lattice vectors:
     0.48169903    -0.48169903     3.43957887
     0.48169903     0.48169903     3.43957887
    -0.48169903    -0.48169903     3.43957887
New lattice vectors in INITIAL alat:
     0.48169903    -0.48169903     3.43957887
     0.48169903     0.48169903     3.43957887
    -0.48169903    -0.48169903     3.43957887
New lattice vectors in NEW alat (for information only):
     0.50000000    -0.50000000     3.57025724
     0.50000000     0.50000000     3.57025724
    -0.50000000    -0.50000000     3.57025724
Discrepancy in bohr =     0.000000    0.000000    0.000000
     new conv_thr            =       0.0000000010 Ry

     new unit-cell volume =    645.14425 a.u.^3 (    95.60051 Ang^3 )
     density =      1.94016 g/cm^3

CELL_PARAMETERS (alat=  5.86831399)
   0.481699025  -0.481699025   3.439578867
   0.481699025   0.481699025   3.439578867
  -0.481699025  -0.481699025   3.439578867

ATOMIC_POSITIONS (crystal)
Li            0.0000000000        0.0529755494        0.0529755494
Li            0.0000000000        0.9470244506        0.9470244506
Li            0.0000000000        0.1495554081        0.1495554081
Li            0.0000000000        0.8504445919        0.8504445919
Li            0.0000000000        0.3464322095        0.3464322095
Li            0.0000000000        0.6535677905        0.6535677905
Li            0.0000000000        0.4474494537        0.4474494537
Li            0.0000000000        0.5525505463        0.5525505463
Si            0.0000000000        0.2447725862        0.2447725862
Si            0.0000000000        0.7552274138        0.7552274138



     Writing config-only to output data dir ./output/LiSi.save/
     NEW-OLD atomic charge density approx. for the potential
     extrapolated charge   30.54281, renormalised to   32.00000

     total cpu time spent up to now is      176.3 secs

     Self-consistent Calculation

     iteration #  1     ecut=    60.00 Ry     beta= 0.80
     Davidson diagonalization with overlap
     ethr =  1.00E-06,  avg # of iterations =  9.8

     total cpu time spent up to now is      184.3 secs

     total energy              =    -130.85017388 Ry
     estimated scf accuracy    <       0.60826118 Ry

     iteration #  2     ecut=    60.00 Ry     beta= 0.80
     Davidson diagonalization with overlap
     ethr =  1.90E-03,  avg # of iterations =  8.9

     total cpu time spent up to now is      189.7 secs

     total energy              =    -127.45978739 Ry
     estimated scf accuracy    <      76.60566045 Ry

     iteration #  3     ecut=    60.00 Ry     beta= 0.80
     Davidson diagonalization with overlap
     ethr =  1.90E-03,  avg # of iterations =  6.3

     total cpu time spent up to now is      194.4 secs

     total energy              =    -131.45263646 Ry
     estimated scf accuracy    <       0.73214543 Ry

     iteration #  4     ecut=    60.00 Ry     beta= 0.80
     Davidson diagonalization with overlap
     ethr =  1.90E-03,  avg # of iterations =  1.1

     total cpu time spent up to now is      197.2 secs

     total energy              =    -131.44891979 Ry
     estimated scf accuracy    <       0.24811461 Ry

     iteration #  5     ecut=    60.00 Ry     beta= 0.80
     Davidson diagonalization with overlap
     ethr =  7.75E-04,  avg # of iterations =  2.5

     total cpu time spent up to now is      200.1 secs

     total energy              =    -131.45465306 Ry
     estimated scf accuracy    <       0.07070827 Ry

     iteration #  6     ecut=    60.00 Ry     beta= 0.80
     Davidson diagonalization with overlap
     ethr =  2.21E-04,  avg # of iterations =  2.7

     total cpu time spent up to now is      203.1 secs

     total energy              =    -131.46617245 Ry
     estimated scf accuracy    <       0.02829945 Ry

     iteration #  7     ecut=    60.00 Ry     beta= 0.80
     Davidson diagonalization with overlap
     ethr =  8.84E-05,  avg # of iterations =  2.0

     total cpu time spent up to now is      206.0 secs

     total energy              =    -131.46625648 Ry
     estimated scf accuracy    <       0.00833473 Ry

     iteration #  8     ecut=    60.00 Ry     beta= 0.80
     Davidson diagonalization with overlap
     ethr =  2.60E-05,  avg # of iterations =  2.0

     total cpu time spent up to now is      208.9 secs

     total energy              =    -131.46573520 Ry
     estimated scf accuracy    <       0.00383606 Ry

     iteration #  9     ecut=    60.00 Ry     beta= 0.80
     Davidson diagonalization with overlap
     ethr =  1.20E-05,  avg # of iterations =  2.6

     total cpu time spent up to now is      211.7 secs

     total energy              =    -131.46591470 Ry
     estimated scf accuracy    <       0.00043709 Ry

     iteration # 10     ecut=    60.00 Ry     beta= 0.80
     Davidson diagonalization with overlap
     ethr =  1.37E-06,  avg # of iterations =  3.7

     total cpu time spent up to now is      214.8 secs

     total energy              =    -131.46593544 Ry
     estimated scf accuracy    <       0.00003412 Ry

     iteration # 11     ecut=    60.00 Ry     beta= 0.80
     Davidson diagonalization with overlap
     ethr =  1.07E-07,  avg # of iterations =  3.2

     total cpu time spent up to now is      218.0 secs

     total energy              =    -131.46690701 Ry
     estimated scf accuracy    <       0.00299886 Ry

     iteration # 12     ecut=    60.00 Ry     beta= 0.80
     Davidson diagonalization with overlap
     ethr =  1.07E-07,  avg # of iterations =  1.0

     total cpu time spent up to now is      220.7 secs

     total energy              =    -131.46683086 Ry
     estimated scf accuracy    <       0.00314310 Ry

     iteration # 13     ecut=    60.00 Ry     beta= 0.80
     Davidson diagonalization with overlap
     ethr =  1.07E-07,  avg # of iterations =  2.0

     total cpu time spent up to now is      223.6 secs

     total energy              =    -131.46692466 Ry
     estimated scf accuracy    <       0.00243616 Ry

     iteration # 14     ecut=    60.00 Ry     beta= 0.80
     Davidson diagonalization with overlap
     ethr =  1.07E-07,  avg # of iterations =  1.6

     total cpu time spent up to now is      226.4 secs

     total energy              =    -131.46702640 Ry
     estimated scf accuracy    <       0.00329508 Ry

     iteration # 15     ecut=    60.00 Ry     beta= 0.80
     Davidson diagonalization with overlap
     ethr =  1.07E-07,  avg # of iterations =  1.8

     total cpu time spent up to now is      229.2 secs

     total energy              =    -131.46707946 Ry
     estimated scf accuracy    <       0.00425329 Ry

     iteration # 16     ecut=    60.00 Ry     beta= 0.80
     Davidson diagonalization with overlap
     ethr =  1.07E-07,  avg # of iterations =  1.1

     total cpu time spent up to now is      231.9 secs

     total energy              =    -131.46712641 Ry
     estimated scf accuracy    <       0.00470533 Ry

     iteration # 17     ecut=    60.00 Ry     beta= 0.80
     Davidson diagonalization with overlap
     ethr =  1.07E-07,  avg # of iterations =  1.2

     total cpu time spent up to now is      234.7 secs

     total energy              =    -131.46732135 Ry
     estimated scf accuracy    <       0.00515264 Ry

     iteration # 18     ecut=    60.00 Ry     beta= 0.80
     Davidson diagonalization with overlap
     ethr =  1.07E-07,  avg # of iterations =  2.6

     total cpu time spent up to now is      237.6 secs

     total energy              =    -131.46605627 Ry
     estimated scf accuracy    <       0.00710022 Ry

     iteration # 19     ecut=    60.00 Ry     beta= 0.80
     Davidson diagonalization with overlap
     ethr =  1.07E-07,  avg # of iterations =  4.6

     total cpu time spent up to now is      241.6 secs

     total energy              =    -131.46658060 Ry
     estimated scf accuracy    <       0.00004082 Ry

     iteration # 20     ecut=    60.00 Ry     beta= 0.80
     Davidson diagonalization with overlap
     ethr =  1.07E-07,  avg # of iterations =  1.5

     total cpu time spent up to now is      244.4 secs

     total energy              =    -131.46658462 Ry
     estimated scf accuracy    <       0.00000007 Ry

     iteration # 21     ecut=    60.00 Ry     beta= 0.80
     Davidson diagonalization with overlap
     ethr =  2.29E-10,  avg # of iterations =  4.5

     total cpu time spent up to now is      248.0 secs

     total energy              =    -131.46670917 Ry
     estimated scf accuracy    <       0.00015212 Ry

     iteration # 22     ecut=    60.00 Ry     beta= 0.80
     Davidson diagonalization with overlap
     ethr =  2.29E-10,  avg # of iterations =  2.3

     total cpu time spent up to now is      251.0 secs

     total energy              =    -131.46670224 Ry
     estimated scf accuracy    <       0.00016656 Ry

     iteration # 23     ecut=    60.00 Ry     beta= 0.80
     Davidson diagonalization with overlap
     ethr =  2.29E-10,  avg # of iterations =  3.9

     total cpu time spent up to now is      254.5 secs

     total energy              =    -131.46670448 Ry
     estimated scf accuracy    <       0.00010856 Ry

     iteration # 24     ecut=    60.00 Ry     beta= 0.80
     Davidson diagonalization with overlap
     ethr =  2.29E-10,  avg # of iterations =  2.2

     total cpu time spent up to now is      257.6 secs

     total energy              =    -131.46669847 Ry
     estimated scf accuracy    <       0.00012372 Ry

     iteration # 25     ecut=    60.00 Ry     beta= 0.80
     Davidson diagonalization with overlap
     ethr =  2.29E-10,  avg # of iterations =  3.9

     total cpu time spent up to now is      261.1 secs

     total energy              =    -131.46669534 Ry
     estimated scf accuracy    <       0.00007417 Ry

     iteration # 26     ecut=    60.00 Ry     beta= 0.80
     Davidson diagonalization with overlap
     ethr =  2.29E-10,  avg # of iterations =  3.8

     total cpu time spent up to now is      264.6 secs

     total energy              =    -131.46669307 Ry
     estimated scf accuracy    <       0.00004391 Ry

     iteration # 27     ecut=    60.00 Ry     beta= 0.80
     Davidson diagonalization with overlap
     ethr =  2.29E-10,  avg # of iterations =  3.8

     total cpu time spent up to now is      268.0 secs

     total energy              =    -131.46669016 Ry
     estimated scf accuracy    <       0.00002300 Ry

     iteration # 28     ecut=    60.00 Ry     beta= 0.80
     Davidson diagonalization with overlap
     ethr =  2.29E-10,  avg # of iterations =  4.3

     total cpu time spent up to now is      271.7 secs

     total energy              =    -131.46669066 Ry
     estimated scf accuracy    <       0.00000247 Ry

     iteration # 29     ecut=    60.00 Ry     beta= 0.80
     Davidson diagonalization with overlap
     ethr =  2.29E-10,  avg # of iterations =  3.2

     total cpu time spent up to now is      275.0 secs

     total energy              =    -131.46669082 Ry
     estimated scf accuracy    <       0.00000004 Ry

     iteration # 30     ecut=    60.00 Ry     beta= 0.80
     Davidson diagonalization with overlap
     ethr =  1.15E-10,  avg # of iterations =  2.2

     total cpu time spent up to now is      277.9 secs

     End of self-consistent calculation

          k = 0.0000 0.0000 0.0000 (  5733 PWs)   bands (ev):

   -39.7585 -39.7547 -39.4498 -39.3768 -39.2879 -39.2869 -39.0029 -38.9492
    -8.0338  -0.1976   2.9655   3.7233   4.3878   5.3864   5.3864   8.1608
    10.2636  11.5528  11.5528  12.5761

          k = 0.5190 0.0000-0.0727 (  5748 PWs)   bands (ev):

   -39.5971 -39.5952 -39.4344 -39.4329 -39.2698 -39.2101 -39.1696 -39.1046
    -4.1506  -4.1506   3.1593   3.1593   5.3478   5.4311   6.2281   6.4913
     7.7542   7.9814  10.6487  10.7363

          k = 0.0000 0.1730 0.0242 (  5703 PWs)   bands (ev):

   -39.7288 -39.7255 -39.4196 -39.3488 -39.3134 -39.3122 -39.0293 -38.9748
    -7.5959   0.1782   2.3614   3.2144   4.0184   4.7728   5.7631   8.2241
     9.1769   9.4973  10.5518  11.1308

          k = 0.5190 0.1730-0.0485 (  5728 PWs)   bands (ev):

   -39.5945 -39.5924 -39.4318 -39.4302 -39.2673 -39.2078 -39.1670 -39.1022
    -3.7314  -3.7314   3.4815   3.4868   5.3642   5.4906   5.9126   6.0168
     6.4526   6.7053   7.9468   8.2580

          k = 0.0000 0.3460 0.0485 (  5729 PWs)   bands (ev):

   -39.6546 -39.6522 -39.3806 -39.3794 -39.3412 -39.2748 -39.1014 -39.0425
    -6.2918  -1.2269   1.3079   3.9915   4.8955   5.6807   5.9410   6.8932
     7.5335   8.4020   9.4748  10.5906

          k = 0.5190 0.3460-0.0242 (  5714 PWs)   bands (ev):

   -39.5894 -39.5874 -39.4267 -39.4251 -39.2624 -39.2032 -39.1620 -39.0976
    -2.4937  -2.4937   2.5323   2.5332   4.3535   4.4040   5.5839   5.8565
     6.5822   6.9405   8.1872   8.4301

          k = 0.5190-0.5190-0.1454 (  5726 PWs)   bands (ev):

   -39.5868 -39.5850 -39.4241 -39.4227 -39.2601 -39.2010 -39.1597 -39.0954
    -0.8973  -0.8972   0.1831   0.1831   4.9879   5.2588   5.6445   6.6920
     6.7542   6.7544   6.7711   8.6751

          k = 0.1730-0.1730-0.0000 (  5734 PWs)   bands (ev):

   -39.7037 -39.7005 -39.3936 -39.3350 -39.3349 -39.3226 -39.0519 -38.9962
    -7.1599   0.5507   2.3548   3.2577   3.4397   4.3236   5.1227   8.4387
     8.5352  10.0717  10.2420  10.3088

          k = 0.6920-0.1730-0.0727 (  5717 PWs)   bands (ev):

   -39.6405 -39.6382 -39.3898 -39.3884 -39.3257 -39.2606 -39.1122 -39.0526
    -5.8616  -0.8331   1.6649   4.0537   4.1937   5.0586   5.9381   6.3288
     7.3398   8.3273   8.6508   9.6766

          k = 0.6920 0.0000-0.0485 (  5718 PWs)   bands (ev):

   -39.6544 -39.6523 -39.3807 -39.3791 -39.3411 -39.2748 -39.1014 -39.0424
    -6.2918  -1.2269   1.3073   4.0359   4.7740   5.7015   6.0491   7.4071
     8.6331   9.4240  10.2202  10.6847

          k = 0.1730 0.1730 0.0485 (  5724 PWs)   bands (ev):

   -39.7036 -39.7006 -39.3936 -39.3351 -39.3348 -39.3226 -39.0518 -38.9962
    -7.1599   0.5506   2.3548   3.2577   3.4545   4.2731   5.1719   8.4085
     8.5764   9.7888  10.0529  10.8474

          k = 0.6920 0.1730-0.0242 (  5724 PWs)   bands (ev):

   -39.6404 -39.6384 -39.3899 -39.3884 -39.3257 -39.2606 -39.1123 -39.0526
    -5.8616  -0.8331   1.6640   4.0534   4.2466   4.9359   5.9642   6.4450
     7.2276   8.3759   8.7337   9.7289

          k = 0.6920-0.6920-0.1454 (  5730 PWs)   bands (ev):

   -39.6086 -39.6067 -39.4123 -39.4106 -39.2886 -39.2266 -39.1405 -39.0787
    -4.5820  -0.0772   0.9908   2.7239   4.8510   5.0598   5.8049   6.1573
     6.5520   7.4365   7.4600   9.6045

          k = 0.1730-0.3460-0.0242 (  5721 PWs)   bands (ev):

   -39.6407 -39.6381 -39.3897 -39.3885 -39.3257 -39.2607 -39.1121 -39.0526
    -5.8616  -0.8331   1.6658   4.0539   4.1503   5.1892   5.9097   6.2025
     7.4824   8.2164   8.5889   9.6741

          k = 0.6920-0.3460-0.0969 (  5729 PWs)   bands (ev):

   -39.6087 -39.6066 -39.4121 -39.4107 -39.2886 -39.2267 -39.1403 -39.0787
    -4.5820  -0.0771   0.9908   2.7308   4.6386   5.3070   5.8907   5.9338
     7.1285   7.1378   7.5343   8.2121

          k = 0.3460-0.3460-0.0000 (  5728 PWs)   bands (ev):

   -39.6088 -39.6065 -39.4121 -39.4107 -39.2886 -39.2266 -39.1404 -39.0787
    -4.5820  -0.0771   0.9908   2.7331   4.5973   5.3551   5.8907   5.9345
     7.0387   7.5393   7.5929   7.6719

          k = 0.8650-0.1730-0.0485 (  5711 PWs)   bands (ev):

   -39.7032 -39.7008 -39.3935 -39.3351 -39.3348 -39.3225 -39.0518 -38.9961
    -7.1599   0.5503   2.3548   3.2577   3.4877   4.1794   5.2599   8.3475
     8.6884   9.4085  10.0200  11.4933

          k = 0.8650 0.0000-0.0242 (  5719 PWs)   bands (ev):

   -39.7284 -39.7262 -39.4197 -39.3489 -39.3137 -39.3119 -39.0293 -38.9748
    -7.5959   0.1780   2.3614   3.2611   3.8818   4.8977   5.7630   8.1442
     9.2189   9.4902  10.1282  11.8321

          k = 0.8650-0.8650-0.1454 (  5716 PWs)   bands (ev):

   -39.7031 -39.7009 -39.3936 -39.3351 -39.3348 -39.3225 -39.0519 -38.9961
    -7.1599   0.5501   2.3548   3.2577   3.5066   4.1341   5.3005   8.3169
     8.7813   9.2257  10.0054  12.2223

          k = 0.3460-0.6920-0.0485 (  5730 PWs)   bands (ev):

   -39.6086 -39.6067 -39.4122 -39.4107 -39.2886 -39.2266 -39.1403 -39.0786
    -4.5820  -0.0771   0.9908   2.7262   4.7500   5.1742   5.8276   6.0528
     6.7474   7.3077   7.5129   8.8660

          k = 0.0000 0.0000-0.1454 (  5724 PWs)   bands (ev):

   -39.7578 -39.7555 -39.4498 -39.3768 -39.2879 -39.2866 -39.0025 -38.9495
    -8.0338  -0.1978   3.0092   3.5921   4.5048   5.3864   5.3864   8.0578
     8.0911  10.2688  11.7206  11.7206

     the Fermi energy is     6.7500 ev

!    total energy              =    -131.46669083 Ry
     estimated scf accuracy    <          4.8E-12 Ry
     smearing contrib. (-TS)   =       0.00017108 Ry
     internal energy E=F+TS    =    -131.46686190 Ry

     The total energy is F=E-TS. E is the sum of the following terms:
     one-electron contribution =     -51.89447177 Ry
     hartree contribution      =      25.80770183 Ry
     xc contribution           =     -34.56706031 Ry
     ewald contribution        =     -70.81303165 Ry

     convergence has been achieved in  30 iterations

     Forces acting on atoms (cartesian axes, Ry/au):

     atom    1 type  1   force =     0.00000000    0.00000000   -0.00887583
     atom    2 type  1   force =    -0.00000000   -0.00000000    0.00887583
     atom    3 type  1   force =     0.00000000    0.00000000   -0.06686835
     atom    4 type  1   force =     0.00000000   -0.00000000    0.06686835
     atom    5 type  1   force =    -0.00000000   -0.00000000    0.00642423
     atom    6 type  1   force =     0.00000000   -0.00000000   -0.00642423
     atom    7 type  1   force =    -0.00000000    0.00000000    0.00872710
     atom    8 type  1   force =     0.00000000   -0.00000000   -0.00872710
     atom    9 type  2   force =     0.00000000    0.00000000   -0.00268598
     atom   10 type  2   force =    -0.00000000   -0.00000000    0.00268598
     The non-local contrib.  to forces
     atom    1 type  1   force =     0.00000000   -0.00000000    0.00600185
     atom    2 type  1   force =    -0.00000000   -0.00000000   -0.00600185
     atom    3 type  1   force =    -0.00000000   -0.00000000    0.02872204
     atom    4 type  1   force =     0.00000000   -0.00000000   -0.02872204
     atom    5 type  1   force =     0.00000000   -0.00000000   -0.05268287
     atom    6 type  1   force =    -0.00000000   -0.00000000    0.05268287
     atom    7 type  1   force =    -0.00000000   -0.00000000    0.02263271
     atom    8 type  1   force =     0.00000000   -0.00000000   -0.02263271
     atom    9 type  2   force =     0.00000000   -0.00000000    0.00299075
     atom   10 type  2   force =     0.00000000    0.00000000   -0.00299075
     The ionic contribution  to forces
     atom    1 type  1   force =    -0.00000000   -0.00000000   -0.94985466
     atom    2 type  1   force =     0.00000000    0.00000000    0.94985466
     atom    3 type  1   force =     0.00000000    0.00000000   -1.71889483
     atom    4 type  1   force =     0.00000000    0.00000000    1.71889483
     atom    5 type  1   force =    -0.00000000   -0.00000000    1.61457259
     atom    6 type  1   force =    -0.00000000   -0.00000000   -1.61457259
     atom    7 type  1   force =     0.00000000    0.00000000    0.87085605
     atom    8 type  1   force =     0.00000000    0.00000000   -0.87085605
     atom    9 type  2   force =     0.00000000    0.00000000   -0.19812175
     atom   10 type  2   force =     0.00000000    0.00000000    0.19812175
     The local contribution  to forces
     atom    1 type  1   force =    -0.00000000    0.00000000    0.93497830
     atom    2 type  1   force =     0.00000000   -0.00000000   -0.93497830
     atom    3 type  1   force =    -0.00000000    0.00000000    1.62330515
     atom    4 type  1   force =     0.00000000   -0.00000000   -1.62330515
     atom    5 type  1   force =     0.00000000    0.00000000   -1.55546538
     atom    6 type  1   force =    -0.00000000   -0.00000000    1.55546538
     atom    7 type  1   force =     0.00000000    0.00000000   -0.88476295
     atom    8 type  1   force =    -0.00000000   -0.00000000    0.88476295
     atom    9 type  2   force =     0.00000000    0.00000000    0.19138923
     atom   10 type  2   force =    -0.00000000   -0.00000000   -0.19138923
     The core correction contribution to forces
     atom    1 type  1   force =     0.00000000    0.00000000    0.00000000
     atom    2 type  1   force =     0.00000000    0.00000000    0.00000000
     atom    3 type  1   force =     0.00000000    0.00000000    0.00000000
     atom    4 type  1   force =     0.00000000    0.00000000    0.00000000
     atom    5 type  1   force =     0.00000000    0.00000000    0.00000000
     atom    6 type  1   force =     0.00000000    0.00000000    0.00000000
     atom    7 type  1   force =     0.00000000    0.00000000    0.00000000
     atom    8 type  1   force =     0.00000000    0.00000000    0.00000000
     atom    9 type  2   force =    -0.00000000   -0.00000000    0.00105554
     atom   10 type  2   force =    -0.00000000   -0.00000000   -0.00105554
     The Hubbard contrib.    to forces
     atom    1 type  1   force =     0.00000000    0.00000000    0.00000000
     atom    2 type  1   force =     0.00000000    0.00000000    0.00000000
     atom    3 type  1   force =     0.00000000    0.00000000    0.00000000
     atom    4 type  1   force =     0.00000000    0.00000000    0.00000000
     atom    5 type  1   force =     0.00000000    0.00000000    0.00000000
     atom    6 type  1   force =     0.00000000    0.00000000    0.00000000
     atom    7 type  1   force =     0.00000000    0.00000000    0.00000000
     atom    8 type  1   force =     0.00000000    0.00000000    0.00000000
     atom    9 type  2   force =     0.00000000    0.00000000    0.00000000
     atom   10 type  2   force =     0.00000000    0.00000000    0.00000000
     The SCF correction term to forces
     atom    1 type  1   force =     0.00000000   -0.00000000   -0.00000131
     atom    2 type  1   force =     0.00000000   -0.00000000    0.00000131
     atom    3 type  1   force =     0.00000000   -0.00000000   -0.00000071
     atom    4 type  1   force =     0.00000000    0.00000000    0.00000071
     atom    5 type  1   force =    -0.00000000    0.00000000   -0.00000012
     atom    6 type  1   force =     0.00000000    0.00000000    0.00000012
     atom    7 type  1   force =     0.00000000   -0.00000000    0.00000129
     atom    8 type  1   force =     0.00000000   -0.00000000   -0.00000129
     atom    9 type  2   force =    -0.00000000    0.00000000    0.00000025
     atom   10 type  2   force =    -0.00000000   -0.00000000   -0.00000025

     Total force =     0.096693     Total SCF correction =     0.000003


     Computing stress (Cartesian axis) and pressure

          total   stress  (Ry/bohr**3)                   (kbar)     P=      507.27
   0.00370470  -0.00000000  -0.00000000          544.98       -0.00       -0.00
  -0.00000000   0.00370470   0.00000000           -0.00      544.98        0.00
  -0.00000000   0.00000000   0.00293575           -0.00        0.00      431.86

     Energy error            =      5.1E-02 Ry
     Gradient error          =      6.7E-02 Ry/Bohr
     Cell gradient error     =      6.8E+01 kbar

     number of scf cycles    =   3
     number of bfgs steps    =   2

     enthalpy           old  =    -129.2228420484 Ry
     enthalpy           new  =    -129.2738901050 Ry

     CASE: enthalpy          _new < enthalpy          _old

     new trust radius        =       0.1878533989 bohr
ibrav =      7
 celldm(1) =      5.70145752
 celldm(3) =      6.84111775
Input lattice vectors:
     0.48578327    -0.48578327     3.32330055
     0.48578327     0.48578327     3.32330055
    -0.48578327    -0.48578327     3.32330055
New lattice vectors in INITIAL alat:
     0.48578327    -0.48578327     3.32330055
     0.48578327     0.48578327     3.32330055
    -0.48578327    -0.48578327     3.32330055
New lattice vectors in NEW alat (for information only):
     0.50000000    -0.50000000     3.42055887
     0.50000000     0.50000000     3.42055887
    -0.50000000    -0.50000000     3.42055887
Discrepancy in bohr =     0.000000    0.000000    0.000000
     new conv_thr            =       0.0000000007 Ry

     new unit-cell volume =    633.94963 a.u.^3 (    93.94164 Ang^3 )
     density =      1.97442 g/cm^3

CELL_PARAMETERS (alat=  5.86831399)
   0.485783270  -0.485783270   3.323300554
   0.485783270   0.485783270   3.323300554
  -0.485783270  -0.485783270   3.323300554

ATOMIC_POSITIONS (crystal)
Li            0.0000000000        0.0526101830        0.0526101830
Li           -0.0000000000        0.9473898170        0.9473898170
Li            0.0000000000        0.1449020074        0.1449020074
Li            0.0000000000        0.8550979926        0.8550979926
Li           -0.0000000000        0.3465846590        0.3465846590
Li           -0.0000000000        0.6534153410        0.6534153410
Li           -0.0000000000        0.4478592387        0.4478592387
Li           -0.0000000000        0.5521407613        0.5521407613
Si            0.0000000000        0.2459062045        0.2459062045
Si           -0.0000000000        0.7540937955        0.7540937955



     Writing config-only to output data dir ./output/LiSi.save/
     NEW-OLD atomic charge density approx. for the potential
     extrapolated charge   31.43559, renormalised to   32.00000

     total cpu time spent up to now is      280.3 secs

     Self-consistent Calculation

     iteration #  1     ecut=    60.00 Ry     beta= 0.80
     Davidson diagonalization with overlap
     ethr =  1.00E-06,  avg # of iterations =  9.3

     total cpu time spent up to now is      287.6 secs

     total energy              =    -131.41719503 Ry
     estimated scf accuracy    <       0.03115032 Ry

     iteration #  2     ecut=    60.00 Ry     beta= 0.80
     Davidson diagonalization with overlap
     ethr =  9.73E-05,  avg # of iterations =  6.4

     total cpu time spent up to now is      292.0 secs

     total energy              =    -131.26342144 Ry
     estimated scf accuracy    <       4.07702055 Ry

     iteration #  3     ecut=    60.00 Ry     beta= 0.80
     Davidson diagonalization with overlap
     ethr =  9.73E-05,  avg # of iterations =  5.4

     total cpu time spent up to now is      295.8 secs

     total energy              =    -131.45087510 Ry
     estimated scf accuracy    <       0.05000799 Ry

     iteration #  4     ecut=    60.00 Ry     beta= 0.80
     Davidson diagonalization with overlap
     ethr =  9.73E-05,  avg # of iterations =  1.3

     total cpu time spent up to now is      298.6 secs

     total energy              =    -131.45116441 Ry
     estimated scf accuracy    <       0.01376153 Ry

     iteration #  5     ecut=    60.00 Ry     beta= 0.80
     Davidson diagonalization with overlap
     ethr =  4.30E-05,  avg # of iterations =  1.3

     total cpu time spent up to now is      301.2 secs

     total energy              =    -131.45066167 Ry
     estimated scf accuracy    <       0.00557792 Ry

     iteration #  6     ecut=    60.00 Ry     beta= 0.80
     Davidson diagonalization with overlap
     ethr =  1.74E-05,  avg # of iterations =  2.0

     total cpu time spent up to now is      304.0 secs

     total energy              =    -131.45099822 Ry
     estimated scf accuracy    <       0.00001441 Ry

     iteration #  7     ecut=    60.00 Ry     beta= 0.80
     Davidson diagonalization with overlap
     ethr =  4.50E-08,  avg # of iterations =  6.0

     total cpu time spent up to now is      307.8 secs

     total energy              =    -131.45100851 Ry
     estimated scf accuracy    <       0.00002300 Ry

     iteration #  8     ecut=    60.00 Ry     beta= 0.80
     Davidson diagonalization with overlap
     ethr =  4.50E-08,  avg # of iterations =  1.3

     total cpu time spent up to now is      310.5 secs

     total energy              =    -131.45100975 Ry
     estimated scf accuracy    <       0.00000016 Ry

     iteration #  9     ecut=    60.00 Ry     beta= 0.80
     Davidson diagonalization with overlap
     ethr =  4.89E-10,  avg # of iterations =  2.8

     total cpu time spent up to now is      313.5 secs

     total energy              =    -131.45100975 Ry
     estimated scf accuracy    <       0.00000041 Ry

     iteration # 10     ecut=    60.00 Ry     beta= 0.80
     Davidson diagonalization with overlap
     ethr =  4.89E-10,  avg # of iterations =  1.6

     total cpu time spent up to now is      316.3 secs

     total energy              =    -131.45100978 Ry
     estimated scf accuracy    <          1.3E-09 Ry

     iteration # 11     ecut=    60.00 Ry     beta= 0.80
     Davidson diagonalization with overlap
     ethr =  4.02E-12,  avg # of iterations =  3.9

     total cpu time spent up to now is      319.5 secs

     End of self-consistent calculation

          k = 0.0000 0.0000 0.0000 (  5733 PWs)   bands (ev):

   -39.6150 -39.6002 -39.3278 -39.2443 -39.1286 -39.1213 -38.8586 -38.7798
    -7.7265   0.1187   3.1250   4.0158   4.7474   5.4496   5.4496   8.2848
     8.6807  10.1253  11.4307  11.4308

          k = 0.5146 0.0000-0.0752 (  5748 PWs)   bands (ev):

   -39.4906 -39.4766 -39.2461 -39.2430 -39.2005 -39.1280 -38.9669 -38.8755
    -3.9107  -3.9107   3.3811   3.3812   5.3295   5.5059   6.2474   6.7536
     7.9501   8.3610   8.8005   8.8005

          k = 0.0000 0.1715 0.0251 (  5703 PWs)   bands (ev):

   -39.5896 -39.5752 -39.3039 -39.2251 -39.1496 -39.1401 -38.8796 -38.7993
    -7.2964   0.4835   2.4972   3.3560   4.2888   5.1189   5.8221   8.5420
     9.3645   9.5438  10.5500  11.1249

          k = 0.5146 0.1715-0.0502 (  5728 PWs)   bands (ev):

   -39.4880 -39.4741 -39.2437 -39.2405 -39.1982 -39.1260 -38.9644 -38.8733
    -3.4979  -3.4979   3.6881   3.6980   5.3418   5.5285   5.9677   6.0880
     6.5163   6.9147   8.1658   8.5987

          k = 0.0000 0.3431 0.0502 (  5729 PWs)   bands (ev):

   -39.5297 -39.5159 -39.2504 -39.2141 -39.1986 -39.1530 -38.9318 -38.8454
    -6.0152  -1.0355   1.5839   4.0840   5.1004   5.8276   6.2386   6.9398
     7.5280   8.4718   9.9835  10.7140

          k = 0.5146 0.3431-0.0251 (  5714 PWs)   bands (ev):

   -39.4830 -39.4693 -39.2389 -39.2358 -39.1941 -39.1220 -38.9598 -38.8690
    -2.2773  -2.2773   2.6443   2.6458   4.4868   4.5748   5.5418   5.8949
     6.6396   7.0615   8.3971   8.7380

          k = 0.5146-0.5146-0.1505 (  5726 PWs)   bands (ev):

   -39.4807 -39.4670 -39.2367 -39.2337 -39.1923 -39.1203 -38.9577 -38.8672
    -0.6722  -0.6720   0.2994   0.2994   4.9852   5.3644   5.5695   6.7424
     6.9044   6.9047   6.9584   8.9890

          k = 0.1715-0.1715-0.0000 (  5734 PWs)   bands (ev):

   -39.5684 -39.5543 -39.2842 -39.2120 -39.1665 -39.1523 -38.8969 -38.8149
    -6.8680   0.8453   2.5227   3.3289   3.5613   4.5786   5.4509   8.4716
     8.7979  10.2233  10.3122  10.4201

          k = 0.6862-0.1715-0.0752 (  5717 PWs)   bands (ev):

   -39.5187 -39.5051 -39.2423 -39.2177 -39.2024 -39.1467 -38.9379 -38.8508
    -5.5923  -0.6450   1.9293   4.1412   4.2716   5.2366   6.0611   6.6198
     7.3196   8.4241   8.7096   9.9994

          k = 0.6862 0.0000-0.0502 (  5718 PWs)   bands (ev):

   -39.5295 -39.5160 -39.2502 -39.2140 -39.1987 -39.1529 -38.9317 -38.8454
    -6.0152  -1.0355   1.5827   4.1368   4.9613   5.8540   6.3622   6.9398
     7.3769   8.7419   9.9123  10.4572

          k = 0.1715 0.1715 0.0502 (  5724 PWs)   bands (ev):

   -39.5683 -39.5544 -39.2841 -39.2121 -39.1666 -39.1522 -38.8968 -38.8149
    -6.8680   0.8450   2.5226   3.3288   3.5793   4.5178   5.5101   8.5218
     8.7682   9.7724  10.2919  10.9599

          k = 0.6862 0.1715-0.0251 (  5724 PWs)   bands (ev):

   -39.5187 -39.5053 -39.2423 -39.2177 -39.2025 -39.1467 -38.9380 -38.8508
[...]

     total cpu time spent up to now is     1278.0 secs

     total energy              =    -131.54850227 Ry
     estimated scf accuracy    <       0.43202385 Ry

     iteration #  6     ecut=    60.00 Ry     beta= 0.80
     Davidson diagonalization with overlap
     ethr =  1.35E-03,  avg # of iterations =  2.2

     total cpu time spent up to now is     1280.7 secs

     total energy              =    -131.51577531 Ry
     estimated scf accuracy    <       0.25928977 Ry

     iteration #  7     ecut=    60.00 Ry     beta= 0.80
     Davidson diagonalization with overlap
     ethr =  8.10E-04,  avg # of iterations =  1.6

     total cpu time spent up to now is     1283.3 secs

     total energy              =    -131.54206454 Ry
     estimated scf accuracy    <       0.00498397 Ry

     iteration #  8     ecut=    60.00 Ry     beta= 0.80
     Davidson diagonalization with overlap
     ethr =  1.56E-05,  avg # of iterations =  5.2

     total cpu time spent up to now is     1286.5 secs

     total energy              =    -131.54152085 Ry
     estimated scf accuracy    <       0.00724905 Ry

     iteration #  9     ecut=    60.00 Ry     beta= 0.80
     Davidson diagonalization with overlap
     ethr =  1.56E-05,  avg # of iterations =  2.2

     total cpu time spent up to now is     1289.3 secs

     total energy              =    -131.54179506 Ry
     estimated scf accuracy    <       0.00283956 Ry

     iteration # 10     ecut=    60.00 Ry     beta= 0.80
     Davidson diagonalization with overlap
     ethr =  8.87E-06,  avg # of iterations =  4.0

     total cpu time spent up to now is     1292.6 secs

     total energy              =    -131.54513825 Ry
     estimated scf accuracy    <       0.04154173 Ry

     iteration # 11     ecut=    60.00 Ry     beta= 0.80
     Davidson diagonalization with overlap
     ethr =  8.87E-06,  avg # of iterations =  1.2

     total cpu time spent up to now is     1295.2 secs

     total energy              =    -131.54264622 Ry
     estimated scf accuracy    <       0.02970821 Ry

     iteration # 12     ecut=    60.00 Ry     beta= 0.80
     Davidson diagonalization with overlap
     ethr =  8.87E-06,  avg # of iterations =  2.3

     total cpu time spent up to now is     1298.0 secs

     total energy              =    -131.54355807 Ry
     estimated scf accuracy    <       0.01123240 Ry

     iteration # 13     ecut=    60.00 Ry     beta= 0.80
     Davidson diagonalization with overlap
     ethr =  8.87E-06,  avg # of iterations =  1.0

     total cpu time spent up to now is     1300.5 secs

     total energy              =    -131.54023510 Ry
     estimated scf accuracy    <       0.01376426 Ry

     iteration # 14     ecut=    60.00 Ry     beta= 0.80
     Davidson diagonalization with overlap
     ethr =  8.87E-06,  avg # of iterations =  2.7

     total cpu time spent up to now is     1303.5 secs

     total energy              =    -131.54159504 Ry
     estimated scf accuracy    <       0.00042216 Ry

     iteration # 15     ecut=    60.00 Ry     beta= 0.80
     Davidson diagonalization with overlap
     ethr =  1.32E-06,  avg # of iterations =  1.9

     total cpu time spent up to now is     1306.2 secs

     total energy              =    -131.54139712 Ry
     estimated scf accuracy    <       0.00155170 Ry

     iteration # 16     ecut=    60.00 Ry     beta= 0.80
     Davidson diagonalization with overlap
     ethr =  1.32E-06,  avg # of iterations =  2.0

     total cpu time spent up to now is     1308.9 secs

     total energy              =    -131.54131939 Ry
     estimated scf accuracy    <       0.00047339 Ry

     iteration # 17     ecut=    60.00 Ry     beta= 0.80
     Davidson diagonalization with overlap
     ethr =  1.32E-06,  avg # of iterations =  2.2

     total cpu time spent up to now is     1311.6 secs

     total energy              =    -131.54136972 Ry
     estimated scf accuracy    <       0.00000628 Ry

     iteration # 18     ecut=    60.00 Ry     beta= 0.80
     Davidson diagonalization with overlap
     ethr =  1.96E-08,  avg # of iterations =  3.8

     total cpu time spent up to now is     1314.6 secs

     total energy              =    -131.54137127 Ry
     estimated scf accuracy    <       0.00000056 Ry

     iteration # 19     ecut=    60.00 Ry     beta= 0.80
     Davidson diagonalization with overlap
     ethr =  1.76E-09,  avg # of iterations =  2.8

     total cpu time spent up to now is     1317.6 secs

     total energy              =    -131.54137135 Ry
     estimated scf accuracy    <       0.00000042 Ry

     iteration # 20     ecut=    60.00 Ry     beta= 0.80
     Davidson diagonalization with overlap
     ethr =  1.31E-09,  avg # of iterations =  1.0

     total cpu time spent up to now is     1320.1 secs

     total energy              =    -131.54137133 Ry
     estimated scf accuracy    <       0.00000016 Ry

     iteration # 21     ecut=    60.00 Ry     beta= 0.80
     Davidson diagonalization with overlap
     ethr =  4.93E-10,  avg # of iterations =  1.8

     total cpu time spent up to now is     1322.8 secs

     total energy              =    -131.54137134 Ry
     estimated scf accuracy    <       0.00000001 Ry

     iteration # 22     ecut=    60.00 Ry     beta= 0.80
     Davidson diagonalization with overlap
     ethr =  4.33E-11,  avg # of iterations =  2.5

     total cpu time spent up to now is     1325.6 secs

     total energy              =    -131.54137134 Ry
     estimated scf accuracy    <          1.6E-10 Ry

     iteration # 23     ecut=    60.00 Ry     beta= 0.80
     Davidson diagonalization with overlap
     ethr =  4.97E-13,  avg # of iterations =  4.2

     total cpu time spent up to now is     1328.9 secs

     End of self-consistent calculation

          k = 0.0000 0.0000 0.0000 (  4689 PWs)   bands (ev):

   -39.6771 -39.2150 -38.2906 -38.2864 -37.9835 -37.9508 -37.9421 -37.9279
    -7.1268  -0.6682   3.4765   4.2746   4.5209   5.9359   8.8820   8.8820
     9.5539  10.7216  13.3309  13.3309

          k = 0.5567-0.0000-0.0688 (  4622 PWs)   bands (ev):

   -39.5878 -39.1162 -38.1388 -38.1385 -38.0576 -38.0533 -38.0331 -38.0023
    -2.7414  -2.7414   2.7533   2.7534   5.5182   6.3779   6.7207   7.1719
     7.7140   9.5330   9.8845  10.5452

          k =-0.0000 0.1856 0.0229 (  4658 PWs)   bands (ev):

   -39.6553 -39.1914 -38.2640 -38.2607 -37.9955 -37.9645 -37.9589 -37.9451
    -6.6318  -0.2974   3.6879   4.4488   4.8006   4.9879   6.2051   9.3354
     9.9260  10.4539  11.7835  12.6036

          k = 0.5567 0.1856-0.0459 (  4638 PWs)   bands (ev):

   -39.5817 -39.1127 -38.1336 -38.1332 -38.0530 -38.0489 -38.0279 -37.9974
    -2.2539  -2.2539   3.1689   3.1696   5.6512   6.5140   6.6693   7.4142
     7.8505   9.3156   9.3924   9.7047

          k =-0.0000 0.3711 0.0459 (  4650 PWs)   bands (ev):

   -39.6109 -39.1424 -38.1966 -38.1946 -38.0214 -38.0081 -38.0076 -37.9839
    -5.1570   0.2128   1.3844   4.1044   4.8312   5.6956   6.5723   8.0956
     8.8494   9.6994  10.6950  10.7412

          k = 0.5567 0.3711-0.0229 (  4613 PWs)   bands (ev):

   -39.5697 -39.1037 -38.1220 -38.1218 -38.0428 -38.0390 -38.0161 -37.9869
    -0.8190  -0.8189   4.2472   4.2569   5.2050   5.2230   6.0130   6.4411
     7.1549   8.0305   8.1088   9.4857

          k = 0.5567-0.5567-0.1377 (  4570 PWs)   bands (ev):

   -39.5632 -39.0987 -38.1158 -38.1155 -38.0373 -38.0335 -38.0097 -37.9813
     0.9775   0.9778   2.3874   2.3874   5.4810   5.6572   6.1740   6.7038
     7.2706   7.2711   7.6736   8.7952

          k = 0.1856-0.1856 0.0000 (  4685 PWs)   bands (ev):

   -39.6377 -39.1729 -38.2408 -38.2377 -38.0041 -37.9771 -37.9732 -37.9590
    -6.1374   0.0850   3.8962   4.7433   4.8436   5.0790   6.0715   6.6017
     9.5361  10.5490  10.7862  11.8039

          k = 0.7423-0.1856-0.0688 (  4656 PWs)   bands (ev):

   -39.6007 -39.1333 -38.1815 -38.1795 -38.0216 -38.0130 -38.0125 -37.9845
    -4.6649   0.6934   1.7398   4.4596   5.0133   6.0093   6.8224   7.0870
     7.8960   8.5680   9.8375  11.0886

          k = 0.7423-0.0000-0.0459 (  4668 PWs)   bands (ev):

   -39.6111 -39.1427 -38.1969 -38.1947 -38.0218 -38.0084 -38.0082 -37.9841
    -5.1570   0.2127   1.3843   4.1278   4.7663   5.7426   6.6075   8.1529
     8.5317  10.0809  10.6949  10.7579

          k = 0.1856 0.1856 0.0459 (  4666 PWs)   bands (ev):

   -39.6374 -39.1724 -38.2403 -38.2375 -38.0038 -37.9768 -37.9731 -37.9587
    -6.1373   0.0851   3.9227   4.5878   4.8435   5.2682   6.0677   6.5236
     9.5640  10.6469  10.6506  12.0230

          k = 0.7423 0.1856-0.0229 (  4654 PWs)   bands (ev):

   -39.6007 -39.1331 -38.1813 -38.1794 -38.0218 -38.0129 -38.0124 -37.9846
    -4.6649   0.6933   1.7396   4.5087   4.9180   6.0625   6.8016   7.1850
     7.9878   8.2214  10.2534  10.8635

          k = 0.7423-0.7423-0.1377 (  4636 PWs)   bands (ev):

   -39.5803 -39.1134 -38.1455 -38.1444 -38.0310 -38.0270 -38.0166 -37.9861
    -3.2014   1.9466   2.1523   3.7557   5.4083   5.4787   6.6727   7.0947
     7.2225   8.2827   8.4867   9.8297

          k = 0.1856-0.3711-0.0229 (  4652 PWs)   bands (ev):

   -39.6006 -39.1332 -38.1812 -38.1795 -38.0216 -38.0131 -38.0124 -37.9846
    -4.6649   0.6934   1.7399   4.4220   5.1052   5.9475   6.8634   6.9778
     7.8827   8.9658   9.4093  11.0699

          k = 0.7423-0.3711-0.0918 (  4630 PWs)   bands (ev):

   -39.5801 -39.1138 -38.1457 -38.1441 -38.0308 -38.0269 -38.0166 -37.9860
    -3.2014   1.9467   2.1533   3.7569   5.1540   5.8930   6.5379   6.8627
     7.5843   8.0112   8.9146   8.9481

          k = 0.3711-0.3711 0.0000 (  4633 PWs)   bands (ev):

   -39.5801 -39.1139 -38.1456 -38.1441 -38.0309 -38.0271 -38.0168 -37.9859
    -3.2014   1.9468   2.1536   3.7573   5.1159   6.0102   6.5065   6.7586
     7.7356   7.9738   8.7190   9.0075

          k = 0.9279-0.1856-0.0459 (  4660 PWs)   bands (ev):

   -39.6373 -39.1725 -38.2402 -38.2373 -38.0037 -37.9765 -37.9732 -37.9585
    -6.1373   0.0850   3.9963   4.3784   4.8434   5.5734   6.0437   6.3357
     9.6323  10.4230  10.8954  12.1841

          k = 0.9279 0.0000-0.0229 (  4652 PWs)   bands (ev):

   -39.6552 -39.1915 -38.2640 -38.2608 -37.9952 -37.9642 -37.9587 -37.9448
    -6.6317  -0.2975   3.8058   4.0855   4.8982   5.4732   5.7971   9.3352
    10.1944  10.4942  11.4957  12.6188

          k = 0.9279-0.9279-0.1377 (  4646 PWs)   bands (ev):

   -39.6373 -39.1720 -38.2398 -38.2369 -38.0035 -37.9765 -37.9729 -37.9584
    -6.1373   0.0851   4.0647   4.2619   4.8434   5.8105   5.9506   6.2197
     9.6768  10.3178  11.0611  12.0133

          k = 0.3711-0.7423-0.0459 (  4647 PWs)   bands (ev):

   -39.5803 -39.1140 -38.1459 -38.1445 -38.0309 -38.0271 -38.0170 -37.9862
    -3.2014   1.9466   2.1526   3.7561   5.2646   5.6678   6.6173   7.0261
     7.3411   8.1339   8.6856   9.4273

          k =-0.0000 0.0000-0.1377 (  4688 PWs)   bands (ev):

   -39.6771 -39.2150 -38.2911 -38.2874 -37.9833 -37.9506 -37.9414 -37.9277
    -7.1268  -0.6684   3.6073   3.8399   5.1788   5.5009   8.8818   8.8818
     9.8510  10.7215  12.6621  13.4678

     the Fermi energy is     7.5877 ev

!    total energy              =    -131.54137134 Ry
     estimated scf accuracy    <          3.1E-11 Ry
     smearing contrib. (-TS)   =       0.00186130 Ry
     internal energy E=F+TS    =    -131.54323264 Ry

     The total energy is F=E-TS. E is the sum of the following terms:
     one-electron contribution =     -44.91866597 Ry
     hartree contribution      =      23.40275912 Ry
     xc contribution           =     -34.61768017 Ry
     ewald contribution        =     -75.40964562 Ry

     convergence has been achieved in  23 iterations

     Forces acting on atoms (cartesian axes, Ry/au):

     atom    1 type  1   force =    -0.00000000   -0.00000000   -0.00024025
     atom    2 type  1   force =     0.00000000    0.00000000    0.00024025
     atom    3 type  1   force =    -0.00000000   -0.00000000    0.00023063
     atom    4 type  1   force =     0.00000000    0.00000000   -0.00023063
     atom    5 type  1   force =     0.00000000    0.00000000    0.00012649
     atom    6 type  1   force =    -0.00000000    0.00000000   -0.00012649
     atom    7 type  1   force =     0.00000000   -0.00000000    0.00015139
     atom    8 type  1   force =    -0.00000000    0.00000000   -0.00015139
     atom    9 type  2   force =     0.00000000   -0.00000000   -0.00022553
     atom   10 type  2   force =     0.00000000   -0.00000000    0.00022553
     The non-local contrib.  to forces
     atom    1 type  1   force =    -0.00000000   -0.00000000   -0.00286092
     atom    2 type  1   force =     0.00000000    0.00000000    0.00286092
     atom    3 type  1   force =     0.00000000   -0.00000000   -0.02434598
     atom    4 type  1   force =    -0.00000000    0.00000000    0.02434598
     atom    5 type  1   force =    -0.00000000    0.00000000   -0.01428743
     atom    6 type  1   force =    -0.00000000    0.00000000    0.01428743
     atom    7 type  1   force =    -0.00000000   -0.00000000    0.02571513
     atom    8 type  1   force =     0.00000000   -0.00000000   -0.02571513
     atom    9 type  2   force =     0.00000000    0.00000000    0.07206272
     atom   10 type  2   force =    -0.00000000   -0.00000000   -0.07206272
     The ionic contribution  to forces
     atom    1 type  1   force =     0.00000000    0.00000000    0.21408610
     atom    2 type  1   force =    -0.00000000   -0.00000000   -0.21408610
     atom    3 type  1   force =    -0.00000000   -0.00000000   -0.24993729
     atom    4 type  1   force =    -0.00000000    0.00000000    0.24993729
     atom    5 type  1   force =    -0.00000000   -0.00000000    0.65738176
     atom    6 type  1   force =     0.00000000    0.00000000   -0.65738176
     atom    7 type  1   force =     0.00000000    0.00000000   -0.29006363
     atom    8 type  1   force =    -0.00000000   -0.00000000    0.29006363
     atom    9 type  2   force =    -0.00000000   -0.00000000   -0.37778323
     atom   10 type  2   force =    -0.00000000    0.00000000    0.37778323
     The local contribution  to forces
     atom    1 type  1   force =    -0.00000000   -0.00000000   -0.21147024
     atom    2 type  1   force =    -0.00000000    0.00000000    0.21147024
     atom    3 type  1   force =     0.00000000    0.00000000    0.27450939
     atom    4 type  1   force =    -0.00000000    0.00000000   -0.27450939
     atom    5 type  1   force =     0.00000000    0.00000000   -0.64296698
     atom    6 type  1   force =     0.00000000    0.00000000    0.64296698
     atom    7 type  1   force =    -0.00000000    0.00000000    0.26450610
     atom    8 type  1   force =    -0.00000000   -0.00000000   -0.26450610
     atom    9 type  2   force =    -0.00000000    0.00000000    0.30648435
     atom   10 type  2   force =     0.00000000   -0.00000000   -0.30648435
     The core correction contribution to forces
     atom    1 type  1   force =     0.00000000    0.00000000    0.00000000
     atom    2 type  1   force =     0.00000000    0.00000000    0.00000000
     atom    3 type  1   force =     0.00000000    0.00000000    0.00000000
     atom    4 type  1   force =     0.00000000    0.00000000    0.00000000
     atom    5 type  1   force =     0.00000000    0.00000000    0.00000000
     atom    6 type  1   force =     0.00000000    0.00000000    0.00000000
     atom    7 type  1   force =     0.00000000    0.00000000    0.00000000
     atom    8 type  1   force =     0.00000000    0.00000000    0.00000000
     atom    9 type  2   force =    -0.00000000    0.00000000   -0.00098932
     atom   10 type  2   force =    -0.00000000   -0.00000000    0.00098932
     The Hubbard contrib.    to forces
     atom    1 type  1   force =     0.00000000    0.00000000    0.00000000
     atom    2 type  1   force =     0.00000000    0.00000000    0.00000000
     atom    3 type  1   force =     0.00000000    0.00000000    0.00000000
     atom    4 type  1   force =     0.00000000    0.00000000    0.00000000
     atom    5 type  1   force =     0.00000000    0.00000000    0.00000000
     atom    6 type  1   force =     0.00000000    0.00000000    0.00000000
     atom    7 type  1   force =     0.00000000    0.00000000    0.00000000
     atom    8 type  1   force =     0.00000000    0.00000000    0.00000000
     atom    9 type  2   force =     0.00000000    0.00000000    0.00000000
     atom   10 type  2   force =     0.00000000    0.00000000    0.00000000
     The SCF correction term to forces
     atom    1 type  1   force =    -0.00000000    0.00000000    0.00000481
     atom    2 type  1   force =     0.00000000    0.00000000   -0.00000481
     atom    3 type  1   force =    -0.00000000    0.00000000    0.00000451
     atom    4 type  1   force =     0.00000000   -0.00000000   -0.00000451
     atom    5 type  1   force =     0.00000000   -0.00000000   -0.00000086
     atom    6 type  1   force =    -0.00000000    0.00000000    0.00000086
     atom    7 type  1   force =     0.00000000   -0.00000000   -0.00000622
     atom    8 type  1   force =    -0.00000000    0.00000000    0.00000622
     atom    9 type  2   force =     0.00000000    0.00000000   -0.00000004
     atom   10 type  2   force =    -0.00000000   -0.00000000    0.00000004

     Total force =     0.000634     Total SCF correction =     0.000013


     Computing stress (Cartesian axis) and pressure

          total   stress  (Ry/bohr**3)                   (kbar)     P=      480.30
   0.00324331  -0.00000000  -0.00000000          477.11       -0.00       -0.00
  -0.00000000   0.00324331   0.00000000           -0.00      477.11        0.00
   0.00000000  -0.00000000   0.00330840            0.00       -0.00      486.68


     Writing all to output data dir ./output/LiSi.save/

     init_run     :      3.78s CPU      5.23s WALL (       2 calls)
     electrons    :   1191.29s CPU   1256.39s WALL (      30 calls)
     update_pot   :     14.32s CPU     14.48s WALL (      28 calls)
     forces       :     10.42s CPU     10.65s WALL (      30 calls)
     stress       :     40.64s CPU     42.24s WALL (      30 calls)

     Called by init_run:
     wfcinit      :      2.64s CPU      3.14s WALL (       2 calls)
     potinit      :      0.52s CPU      1.01s WALL (       2 calls)
     hinit0       :      0.57s CPU      0.88s WALL (       2 calls)

     Called by electrons:
     c_bands      :    984.31s CPU   1037.86s WALL (     366 calls)
     sum_band     :    179.81s CPU    189.12s WALL (     366 calls)
     v_of_rho     :     27.98s CPU     29.56s WALL (     393 calls)
     mix_rho      :      0.90s CPU      1.19s WALL (     366 calls)

     Called by c_bands:
     init_us_2    :      3.89s CPU      4.18s WALL (   16674 calls)
     init_us_2:cp :      3.87s CPU      4.16s WALL (   16674 calls)
     cegterg      :    974.43s CPU   1025.62s WALL (    7686 calls)

     Called by *egterg:
     cdiaghg      :     12.89s CPU     13.94s WALL (   33590 calls)
     h_psi        :    946.47s CPU    996.52s WALL (   34283 calls)
     g_psi        :      0.62s CPU      0.64s WALL (   26555 calls)

     Called by h_psi:
     h_psi:calbec :     10.05s CPU     10.84s WALL (   34283 calls)
     vloc_psi     :    927.22s CPU    975.95s WALL (   34283 calls)
     add_vuspsi   :      8.74s CPU      9.26s WALL (   34283 calls)

     General routines
     calbec       :     11.81s CPU     12.64s WALL (   37433 calls)
     fft          :      6.85s CPU      8.88s WALL (    4681 calls)
     ffts         :      0.50s CPU      0.58s WALL (     366 calls)
     fftw         :    962.91s CPU   1016.32s WALL (  980896 calls)

     Parallel routines

     PWSCF        :  21m 1.15s CPU  22m10.50s WALL


   This run was terminated on:  11:31:48  22Jan2025            

=------------------------------------------------------------------------------=
   JOB DONE.
=------------------------------------------------------------------------------=
