
     Program PWSCF v.7.3.1 starts on 18Feb2025 at 13:46:13 

     This program is part of the open-source Quantum ESPRESSO suite
     for quantum simulation of materials; please cite
         "P. Giannozzi et al., J. Phys.:Condens. Matter 21 395502 (2009);
         "P. Giannozzi et al., J. Phys.:Condens. Matter 29 465901 (2017);
         "P. Giannozzi et al., J. Chem. Phys. 152 154105 (2020);
          URL http://www.quantum-espresso.org", 
     in publications or presentations arising from this work. More details at
     http://www.quantum-espresso.org/quote

     Parallel version (MPI & OpenMP), running on      16 processor cores
     Number of MPI processes:                16
     Threads/MPI process:                     1

     MPI processes distributed on     1 nodes
     492971 MiB available memory on the printing compute node when the environment starts

     Waiting for input...
     Reading input from standard input

     Current dimensions of program PWSCF are:
     Max number of different atomic species (ntypx) = 10
     Max number of k-points (npk) =  40000
     Max angular momentum in pseudopotentials (lmaxx) =  4

     R & G space division:  proc/nbgrp/npool/nimage =      16
     Subspace diagonalization in iterative solution of the eigenvalue problem:
     a serial algorithm will be used


     Parallelization info
     --------------------
     sticks:   dense  smooth     PW     G-vecs:    dense   smooth      PW
     Min         156     156     47                 3493     3493     587
     Max         157     157     48                 3495     3495     588
     Sum        2507    2507    759                55899    55899    9399

     Using Slab Decomposition



     bravais-lattice index     =            5
     lattice parameter (alat)  =      14.7630  a.u.
     unit-cell volume          =     576.8611 (a.u.)^3
     number of atoms/cell      =           10
     number of atomic types    =            2
     number of electrons       =        32.00
     number of Kohn-Sham states=           20
     kinetic-energy cutoff     =      80.0000  Ry
     charge density cutoff     =     320.0000  Ry
     scf convergence threshold =      1.0E-08
     mixing beta               =       0.7000
     number of iterations used =            8  plain     mixing
     energy convergence thresh.=      5.0E-04
     force convergence thresh. =      1.0E-03
     press convergence thresh. =      1.0E+00
     Exchange-correlation= PBE
                           (   1   4   3   4   0   0   0)
     nstep                     =           50


     celldm(1)=  14.763017  celldm(2)=   0.000000  celldm(3)=   0.000000
     celldm(4)=   0.892571  celldm(5)=   0.000000  celldm(6)=   0.000000

     crystal axes: (cart. coord. in units of alat)
               a(1) = (   0.231764  -0.133809   0.963525 )  
               a(2) = (   0.000000   0.267618   0.963525 )  
               a(3) = (  -0.231764  -0.133809   0.963525 )  

     reciprocal axes: (cart. coord. in units 2 pi/alat)
               b(1) = (  2.157366 -1.245556  0.345952 )  
               b(2) = ( -0.000000  2.491112  0.345952 )  
               b(3) = ( -2.157366 -1.245556  0.345952 )  


     PseudoPot. # 1 for Li read from file:
     ../pseudo/Li_ONCV_PBE_sr.upf
     MD5 check sum: 50ff420e78310ffa21704f3361e624a4
     Pseudo is Norm-conserving, Zval =  3.0
     Generated using ONCVPSP code by D. R. Hamann
     Using radial grid of 1944 points,  4 beta functions with: 
                l(1) =   0
                l(2) =   0
                l(3) =   1
                l(4) =   1

     PseudoPot. # 2 for Si read from file:
     ../pseudo/Si_ONCV_PBE_sr.upf
     MD5 check sum: e543d271109d17c80368dfa7c482276d
     Pseudo is Norm-conserving + core correction, Zval =  4.0
     Generated using ONCVPSP code by D. R. Hamann
     Using radial grid of 1510 points,  6 beta functions with: 
                l(1) =   0
                l(2) =   0
                l(3) =   1
                l(4) =   1
                l(5) =   2
                l(6) =   2

     atomic species   valence    mass     pseudopotential
     Li                3.00     6.94100     Li( 1.00)
     Si                4.00    28.08550     Si( 1.00)

     12 Sym. Ops., with inversion, found



   Cartesian axes

     site n.     atom                  positions (alat units)
         1        Li     tau(   1) = (   0.0000000  -0.0000000   0.5748275  )
         2        Li     tau(   2) = (  -0.0000000  -0.0000000   2.3157477  )
         3        Li     tau(   3) = (   0.0000000  -0.0000000   0.8377243  )
         4        Li     tau(   4) = (  -0.0000000  -0.0000000   2.0528509  )
         5        Li     tau(   5) = (  -0.0000000  -0.0000000   1.1499055  )
         6        Li     tau(   6) = (  -0.0000000  -0.0000000   1.7406697  )
         7        Li     tau(   7) = (   0.0000000  -0.0000000   1.4452876  )
         8        Li     tau(   8) = (   0.0000000   0.0000000   0.0000000  )
         9        Si     tau(   9) = (  -0.0000000  -0.0000000   0.2906387  )
        10        Si     tau(  10) = (   0.0000000  -0.0000000   2.5999365  )

     number of k points=    44  Marzari-Vanderbilt smearing, width (Ry)=  0.0200
                       cart. coord. in units 2pi/alat
        k(    1) = (   0.0000000   0.0000000   0.0000000), wk =   0.0058309
        k(    2) = (  -0.3081952  -0.1779366   0.0494217), wk =   0.0349854
        k(    3) = (  -0.6163903  -0.3558731   0.0988434), wk =   0.0349854
        k(    4) = (  -0.9245855  -0.5338097   0.1482651), wk =   0.0349854
        k(    5) = (  -0.3081952   0.1779366   0.0988434), wk =   0.0349854
        k(    6) = (  -0.6163903  -0.0000000   0.1482651), wk =   0.0699708
        k(    7) = (  -0.9245855  -0.1779366   0.1976868), wk =   0.0699708
        k(    8) = (   0.9245855   0.8896828  -0.0988434), wk =   0.0699708
        k(    9) = (   0.6163903   0.7117462  -0.0494217), wk =   0.0699708
        k(   10) = (   0.3081952   0.5338097   0.0000000), wk =   0.0349854
        k(   11) = (  -0.6163903   0.3558731   0.1976868), wk =   0.0349854
        k(   12) = (  -0.9245855   0.1779366   0.2471085), wk =   0.0699708
        k(   13) = (   0.9245855   1.2455559  -0.0494217), wk =   0.0699708
        k(   14) = (   0.6163903   1.0676194   0.0000000), wk =   0.0349854
        k(   15) = (  -0.9245855   0.5338097   0.2965302), wk =   0.0349854
        k(   16) = (   0.9245855   1.6014290   0.0000000), wk =   0.0349854
        k(   17) = (  -0.0000000   0.0000000   0.1482651), wk =   0.0116618
        k(   18) = (  -0.3081952  -0.1779366   0.1976868), wk =   0.0349854
        k(   19) = (  -0.6163903  -0.3558731   0.2471085), wk =   0.0349854
        k(   20) = (   1.2327807   0.7117462  -0.0494217), wk =   0.0349854
        k(   21) = (   0.9245855   0.5338097   0.0000000), wk =   0.0349854
        k(   22) = (   0.6163903   0.3558731   0.0494217), wk =   0.0349854
        k(   23) = (  -0.3081952   0.1779366   0.2471085), wk =   0.0349854
        k(   24) = (  -0.6163903  -0.0000000   0.2965302), wk =   0.0699708
        k(   25) = (   1.2327807   1.0676194   0.0000000), wk =   0.0699708
        k(   26) = (   0.9245855   0.8896828   0.0494217), wk =   0.0699708
        k(   27) = (   0.6163903   0.7117462   0.0988434), wk =   0.0699708
        k(   28) = (  -0.6163903   0.3558731   0.3459519), wk =   0.0349854
        k(   29) = (   1.2327807   1.4234925   0.0494217), wk =   0.0699708
        k(   30) = (   0.9245855   1.2455559   0.0988434), wk =   0.0699708
        k(   31) = (   0.6163903   1.0676194   0.1482651), wk =   0.0699708
        k(   32) = (   1.2327807  -0.7117462  -0.2471085), wk =   0.0349854
        k(   33) = (   0.9245855  -0.8896828  -0.1976868), wk =   0.0699708
        k(   34) = (   0.9245855  -0.5338097  -0.1482651), wk =   0.0349854
        k(   35) = (  -0.0000000   0.0000000   0.2965302), wk =   0.0116618
        k(   36) = (  -0.3081952  -0.1779366   0.3459519), wk =   0.0349854
        k(   37) = (   1.5409758   0.8896828   0.0494217), wk =   0.0349854
        k(   38) = (   1.2327807   0.7117462   0.0988434), wk =   0.0349854
        k(   39) = (  -0.3081952   0.1779366   0.3953736), wk =   0.0349854
        k(   40) = (   1.5409758   1.2455559   0.0988434), wk =   0.0699708
        k(   41) = (   1.2327807   1.0676194   0.1482651), wk =   0.0699708
        k(   42) = (   1.5409758  -0.8896828  -0.1976868), wk =   0.0349854
        k(   43) = (   0.0000000  -0.0000000   0.4447953), wk =   0.0116618
        k(   44) = (   1.8491710   1.0676194   0.1482651), wk =   0.0349854

     Dense  grid:    55899 G-vectors     FFT dimensions: (  90,  90,  90)

     Estimated max dynamical RAM per process >      23.66 MB

     Estimated total dynamical RAM >     378.53 MB

     Initial potential from superposition of free atoms

     starting charge      31.9623, renormalised to      32.0000
     Starting wfcs are   24 randomized atomic wfcs

     total cpu time spent up to now is        1.9 secs

     per-process dynamical memory:    41.2 Mb

     Self-consistent Calculation

     iteration #  1     ecut=    80.00 Ry     beta= 0.70
     Davidson diagonalization with overlap
     ethr =  1.00E-02,  avg # of iterations =  5.5

     Threshold (ethr) on eigenvalues was too large:
     Diagonalizing with lowered threshold

     Davidson diagonalization with overlap
     ethr =  5.95E-04,  avg # of iterations =  2.2

     total cpu time spent up to now is        7.2 secs

     total energy              =    -131.74667296 Ry
     estimated scf accuracy    <       0.18053008 Ry

     iteration #  2     ecut=    80.00 Ry     beta= 0.70
     Davidson diagonalization with overlap
     ethr =  5.64E-04,  avg # of iterations =  4.6

     total cpu time spent up to now is       10.2 secs

     total energy              =    -131.62297038 Ry
     estimated scf accuracy    <       1.67619442 Ry

     iteration #  3     ecut=    80.00 Ry     beta= 0.70
     Davidson diagonalization with overlap
     ethr =  5.64E-04,  avg # of iterations =  3.9

     total cpu time spent up to now is       13.1 secs

     total energy              =    -131.83499363 Ry
     estimated scf accuracy    <       0.03476871 Ry

     iteration #  4     ecut=    80.00 Ry     beta= 0.70
     Davidson diagonalization with overlap
     ethr =  1.09E-04,  avg # of iterations =  2.5

     total cpu time spent up to now is       15.5 secs

     total energy              =    -131.84070952 Ry
     estimated scf accuracy    <       0.00072099 Ry

     iteration #  5     ecut=    80.00 Ry     beta= 0.70
     Davidson diagonalization with overlap
     ethr =  2.25E-06,  avg # of iterations =  7.7

     total cpu time spent up to now is       18.7 secs

     total energy              =    -131.84081737 Ry
     estimated scf accuracy    <       0.00007598 Ry

     iteration #  6     ecut=    80.00 Ry     beta= 0.70
     Davidson diagonalization with overlap
     ethr =  2.37E-07,  avg # of iterations =  2.0

     total cpu time spent up to now is       21.1 secs

     total energy              =    -131.84082602 Ry
     estimated scf accuracy    <       0.00000262 Ry

     iteration #  7     ecut=    80.00 Ry     beta= 0.70
     Davidson diagonalization with overlap
     ethr =  8.19E-09,  avg # of iterations =  3.3

     total cpu time spent up to now is       23.7 secs

     total energy              =    -131.84082693 Ry
     estimated scf accuracy    <       0.00000072 Ry

     iteration #  8     ecut=    80.00 Ry     beta= 0.70
     Davidson diagonalization with overlap
     ethr =  2.24E-09,  avg # of iterations =  2.0

     total cpu time spent up to now is       26.1 secs

     End of self-consistent calculation

          k = 0.0000 0.0000 0.0000 (  6959 PWs)   bands (ev):

   -38.3567 -38.2730 -38.1892 -37.8529 -37.7809 -37.7591 -37.6671 -37.6509
    -1.7486  -1.1452   3.0536   6.4304   6.7419   8.1672   8.1672   8.5506
     8.5506  10.4156  10.4156  10.5838

          k =-0.3082-0.1779 0.0494 (  6970 PWs)   bands (ev):

   -38.3412 -38.2662 -38.1798 -37.8582 -37.7882 -37.7667 -37.6733 -37.6540
    -1.5989  -0.9941   3.2017   6.2530   6.4803   6.8928   7.0110   7.4732
     7.8624  10.7693  11.4093  11.5434

          k =-0.6164-0.3559 0.0988 (  6962 PWs)   bands (ev):

   -38.3025 -38.2507 -38.1588 -37.8718 -37.8042 -37.7853 -37.6879 -37.6616
    -1.1801  -0.6021   3.6354   4.5069   5.3571   5.9420   6.3698   6.7582
     6.8759  10.4444  11.3430  11.5467

          k =-0.9246-0.5338 0.1483 (  6977 PWs)   bands (ev):

   -38.2633 -38.2414 -38.1420 -37.8861 -37.8137 -37.8039 -37.7008 -37.6680
    -0.6641  -0.2416   3.3401   4.0254   4.2974   5.3936   5.7235   6.1663
     7.0340   9.3964  11.0345  11.2216

          k =-0.3082 0.1779 0.0988 (  6954 PWs)   bands (ev):

   -38.3407 -38.2671 -38.1794 -37.8582 -37.7880 -37.7669 -37.6733 -37.6540
    -1.5985  -0.9956   3.2308   5.9827   6.5302   6.9037   7.2316   7.3212
     8.0904  10.6780  11.5095  11.7558

          k =-0.6164-0.0000 0.1483 (  6969 PWs)   bands (ev):

   -38.3132 -38.2562 -38.1642 -37.8673 -37.7998 -37.7802 -37.6831 -37.6601
    -1.3113  -0.7228   3.5506   5.2942   5.5069   5.8387   6.3691   6.7101
     7.4707  10.6734  11.2160  11.8158

          k =-0.9246-0.1779 0.1977 (  6965 PWs)   bands (ev):

   -38.2740 -38.2423 -38.1459 -37.8802 -37.8137 -37.7996 -37.6948 -37.6695
    -0.8144  -0.3245   3.8306   4.0898   4.5789   5.1905   5.6452   6.1518
     6.7270   9.4328  11.5371  11.6479

          k = 0.9246 0.8897-0.0988 (  6960 PWs)   bands (ev):

   -38.2507 -38.2399 -38.1378 -37.8872 -37.8177 -37.8107 -37.7001 -37.6740
    -0.4611  -0.1603   3.2781   3.9180   4.6027   4.7946   5.4938   5.5881
     6.9428   8.6784  11.2632  11.6594

          k = 0.6164 0.7117-0.0494 (  6970 PWs)   bands (ev):

   -38.2748 -38.2415 -38.1458 -37.8802 -37.8149 -37.7986 -37.6948 -37.6694
    -0.8172  -0.3185   3.8665   4.0531   4.4849   5.1339   5.7105   6.1637
     6.9947   9.3959  11.0290  11.3963

          k = 0.3082 0.5338 0.0000 (  6964 PWs)   bands (ev):

   -38.3143 -38.2545 -38.1647 -37.8673 -37.8005 -37.7797 -37.6830 -37.6601
    -1.3128  -0.7183   3.4749   5.3696   5.4499   6.1234   6.4637   6.8106
     6.9496  10.9748  11.2032  11.7141

          k =-0.6164 0.3559 0.1977 (  6965 PWs)   bands (ev):

   -38.3009 -38.2532 -38.1580 -37.8719 -37.8034 -37.7859 -37.6881 -37.6616
    -1.1774  -0.6095   3.7519   4.6538   5.1898   5.5864   5.7397   7.2491
     7.9109  10.0020  10.1144  10.9807

          k =-0.9246 0.1779 0.2471 (  6965 PWs)   bands (ev):

   -38.2730 -38.2435 -38.1459 -37.8801 -37.8132 -37.7999 -37.6950 -37.6694
    -0.8112  -0.3312   3.8818   4.2928   4.4055   4.9524   5.5351   6.2161
     7.3647   8.7300  11.0014  11.3697

          k = 0.9246 1.2456-0.0494 (  6957 PWs)   bands (ev):

   -38.2472 -38.2370 -38.1366 -37.8851 -37.8209 -37.8144 -37.6945 -37.6819
    -0.3639  -0.1359   3.5818   3.8819   4.3430   4.7395   5.0208   5.6962
     6.7963   7.6829  11.5938  12.5146

          k = 0.6164 1.0676 0.0000 (  6968 PWs)   bands (ev):

   -38.2478 -38.2366 -38.1362 -37.8850 -37.8231 -37.8126 -37.6945 -37.6818
    -0.3723  -0.1244   3.5513   4.0039   4.4183   4.5726   4.8193   5.7693
     6.8892   7.9844  11.5850  12.0560

          k =-0.9246 0.5338 0.2965 (  6975 PWs)   bands (ev):

   -38.2615 -38.2430 -38.1426 -37.8855 -37.8126 -37.8048 -37.7012 -37.6679
    -0.6545  -0.2586   3.4235   3.8262   4.6493   5.1380   5.4390   6.8257
     6.8626   9.2849  10.1320  10.7351

          k = 0.9246 1.6014 0.0000 (  6970 PWs)   bands (ev):

   -38.2499 -38.2402 -38.1387 -37.8867 -37.8154 -37.8128 -37.7004 -37.6739
    -0.4481  -0.1791   3.3921   3.6935   4.5669   4.8858   5.6274   5.9973
     6.5411   8.1560  11.2084  11.7938

          k =-0.0000 0.0000 0.1483 (  6971 PWs)   bands (ev):

   -38.3553 -38.2759 -38.1876 -37.8529 -37.7803 -37.7596 -37.6672 -37.6508
    -1.7477  -1.1490   3.1346   5.7030   7.5591   8.1083   8.1083   8.6335
     8.6335  10.2467  10.2468  10.8134

          k =-0.3082-0.1779 0.1977 (  6969 PWs)   bands (ev):

   -38.3391 -38.2700 -38.1781 -37.8582 -37.7872 -37.7676 -37.6735 -37.6540
    -1.5972  -1.0005   3.3318   5.5370   6.3859   7.0481   7.3513   7.7980
     7.9967  10.8608  11.2791  11.3549

          k =-0.6164-0.3559 0.2471 (  6965 PWs)   bands (ev):

   -38.3007 -38.2532 -38.1583 -37.8717 -37.8027 -37.7866 -37.6881 -37.6617
    -1.1769  -0.6109   3.7870   4.4379   5.3782   5.9163   5.9396   6.7630
     7.1313  10.6851  11.4103  11.4781

          k = 1.2328 0.7117-0.0494 (  6974 PWs)   bands (ev):

   -38.2625 -38.2420 -38.1424 -37.8859 -37.8120 -37.8054 -37.7009 -37.6680
    -0.6600  -0.2490   3.3171   4.0347   4.4042   5.3444   5.8111   6.2585
     6.5838   9.8648  10.6444  11.0291

          k = 0.9246 0.5338 0.0000 (  6987 PWs)   bands (ev):

   -38.2633 -38.2415 -38.1419 -37.8860 -37.8144 -37.8032 -37.7009 -37.6679
    -0.6640  -0.2417   3.3833   3.9605   4.2924   5.3074   5.6613   6.3350
     7.2787   9.2640  10.3809  10.9108

          k = 0.6164 0.3559 0.0494 (  6967 PWs)   bands (ev):

   -38.3026 -38.2507 -38.1586 -37.8719 -37.8045 -37.7851 -37.6879 -37.6616
    -1.1803  -0.6014   3.6243   4.5936   5.2524   5.8364   6.0984   6.9777
     7.3448  10.2285  10.7265  11.0700

          k =-0.3082 0.1779 0.2471 (  6965 PWs)   bands (ev):

   -38.3380 -38.2722 -38.1771 -37.8582 -37.7866 -37.7680 -37.6736 -37.6540
    -1.5962  -1.0039   3.4174   5.2583   6.5278   6.8251   7.2339   8.1742
     8.3123  10.6273  11.1932  11.6362

          k =-0.6164-0.0000 0.2965 (  6976 PWs)   bands (ev):

   -38.3107 -38.2601 -38.1630 -37.8672 -37.7981 -37.7816 -37.6833 -37.6602
    -1.3078  -0.7332   3.7712   5.1094   5.3792   5.5410   6.3280   6.8100
     8.0360  10.2418  11.1766  11.9919

          k = 1.2328 1.0676 0.0000 (  6976 PWs)   bands (ev):

   -38.2725 -38.2439 -38.1461 -37.8801 -37.8116 -37.8013 -37.6950 -37.6695
    -0.8093  -0.3350   3.8015   4.2395   4.6231   5.1062   5.6443   5.9657
     6.7778   9.1512  11.8407  12.2448

          k = 0.9246 0.8897 0.0494 (  6962 PWs)   bands (ev):

   -38.2504 -38.2400 -38.1381 -37.8870 -37.8171 -37.8112 -37.7002 -37.6740
    -0.4566  -0.1668   3.3068   3.8523   4.6450   4.7243   5.6352   5.6870
     6.7681   8.5215  11.2289  11.6156

          k = 0.6164 0.7117 0.0988 (  6985 PWs)   bands (ev):

   -38.2744 -38.2420 -38.1457 -37.8802 -37.8148 -37.7987 -37.6949 -37.6693
    -0.8158  -0.3214   3.8767   4.1742   4.3745   5.0214   5.7520   6.1251
     7.2670   9.0922  10.8167  11.2680

          k =-0.6164 0.3559 0.3460 (  6977 PWs)   bands (ev):

   -38.2984 -38.2565 -38.1574 -37.8717 -37.8015 -37.7875 -37.6883 -37.6617
    -1.1734  -0.6202   3.9918   4.6358   5.0459   5.2955   5.7031   7.3834
     8.0993   9.8636  10.0625  11.0468

          k = 1.2328 1.4235 0.0494 (  6961 PWs)   bands (ev):

   -38.2716 -38.2449 -38.1461 -37.8800 -37.8111 -37.8017 -37.6951 -37.6695
    -0.8066  -0.3405   3.8518   4.3217   4.6395   4.9345   5.3003   6.2096
     7.2781   8.5750  11.4276  11.6480

          k = 0.9246 1.2456 0.0988 (  6963 PWs)   bands (ev):

   -38.2468 -38.2372 -38.1368 -37.8851 -37.8188 -37.8164 -37.6945 -37.6820
    -0.3588  -0.1426   3.6142   3.7975   4.3652   4.7615   5.1632   5.6298
     6.7975   7.4687  11.9379  12.6503

          k = 0.6164 1.0676 0.1483 (  6965 PWs)   bands (ev):

   -38.2476 -38.2367 -38.1363 -37.8850 -37.8225 -37.8131 -37.6945 -37.6819
    -0.3698  -0.1279   3.5589   3.9685   4.3718   4.6365   4.8918   5.7450
     6.8553   7.8979  11.5131  12.0385

          k = 1.2328-0.7117-0.2471 (  6984 PWs)   bands (ev):

   -38.2610 -38.2434 -38.1429 -37.8855 -37.8106 -37.8067 -37.7012 -37.6679
    -0.6522  -0.2628   3.3737   3.8896   4.7185   5.1499   5.4962   6.5422
     6.7796   9.3654  10.5894  10.7807

          k = 0.9246-0.8897-0.1977 (  6972 PWs)   bands (ev):

   -38.2500 -38.2401 -38.1385 -37.8868 -37.8161 -37.8122 -37.7004 -37.6739
    -0.4508  -0.1752   3.3581   3.7505   4.5966   4.8116   5.6546   5.8981
     6.5964   8.2775  11.3287  11.5179

          k = 0.9246-0.5338-0.1483 (  6965 PWs)   bands (ev):

   -38.2625 -38.2422 -38.1422 -37.8858 -37.8141 -37.8036 -37.7010 -37.6679
    -0.6598  -0.2492   3.4243   3.8611   4.4350   5.1972   5.5648   6.6182
     7.1593   9.5961   9.6778  10.7642

          k =-0.0000 0.0000 0.2965 (  6967 PWs)   bands (ev):

   -38.3518 -38.2827 -38.1843 -37.8531 -37.7787 -37.7609 -37.6675 -37.6507
    -1.7458  -1.1574   3.3735   4.9436   8.0194   8.0194   8.5785   8.7737
     8.7737  10.1286  10.1286  11.0436

          k =-0.3082-0.1779 0.3460 (  6978 PWs)   bands (ev):

   -38.3357 -38.2759 -38.1756 -37.8582 -37.7854 -37.7690 -37.6737 -37.6539
    -1.5946  -1.0099   3.6130   4.8400   6.3545   6.9631   7.5091   7.9618
     8.7512  10.8686  11.1903  11.2001

          k = 1.5410 0.8897 0.0494 (  6976 PWs)   bands (ev):

   -38.2983 -38.2566 -38.1576 -37.8716 -37.8008 -37.7881 -37.6882 -37.6617
    -1.1730  -0.6214   4.0624   4.3869   5.1300   5.5901   5.8328   6.9879
     7.4992  10.6784  10.7492  11.3031

          k = 1.2328 0.7117 0.0988 (  6986 PWs)   bands (ev):

   -38.2615 -38.2429 -38.1428 -37.8856 -37.8100 -37.8073 -37.7011 -37.6680
    -0.6547  -0.2584   3.3285   3.9825   4.5683   5.2294   5.7794   6.3357
     6.5251   9.8763  10.4024  10.9033

          k =-0.3082 0.1779 0.3954 (  6981 PWs)   bands (ev):

   -38.3346 -38.2778 -38.1749 -37.8583 -37.7849 -37.7694 -37.6738 -37.6539
    -1.5938  -1.0126   3.7502   4.6062   6.4513   6.8095   7.3542   8.3686
     8.9607  10.6574  11.0198  11.3009

          k = 1.5410 1.2456 0.0988 (  6980 PWs)   bands (ev):

   -38.3083 -38.2635 -38.1621 -37.8672 -37.7964 -37.7830 -37.6835 -37.6602
    -1.3049  -0.7415   4.1070   4.6482   5.2747   5.5212   6.3860   6.8395
     8.4350   9.8475  11.4837  11.9025

          k = 1.2328 1.0676 0.1483 (  6967 PWs)   bands (ev):

   -38.2714 -38.2451 -38.1462 -37.8800 -37.8101 -37.8026 -37.6951 -37.6695
    -0.8058  -0.3422   3.8121   4.3463   4.6941   4.9640   5.3899   6.0651
     7.0292   8.7743  11.7951  12.0084

          k = 1.5410-0.8897-0.1977 (  6964 PWs)   bands (ev):

   -38.2971 -38.2581 -38.1572 -37.8716 -37.8001 -37.7887 -37.6883 -37.6617
    -1.1714  -0.6255   4.2422   4.4441   4.8575   5.4266   5.7375   7.2580
     7.8650  10.0878  10.4488  11.1596

          k = 0.0000-0.0000 0.4448 (  6988 PWs)   bands (ev):

   -38.3486 -38.2883 -38.1819 -37.8532 -37.7773 -37.7621 -37.6677 -37.6506
    -1.7441  -1.1641   3.7573   4.2984   7.9671   7.9671   8.8622   8.8622
     9.5831  10.1128  10.1129  11.0184

          k = 1.8492 1.0676 0.1483 (  6979 PWs)   bands (ev):

   -38.3335 -38.2795 -38.1743 -37.8582 -37.7843 -37.7699 -37.6739 -37.6539
    -1.5931  -1.0153   4.0077   4.2732   6.3798   6.8614   7.4836   8.2093
     9.2409  10.8467  10.9297  11.1045

     the Fermi energy is     7.0089 ev

!    total energy              =    -131.84082706 Ry
     estimated scf accuracy    <          9.6E-10 Ry
     smearing contrib. (-TS)   =      -0.00018515 Ry
     internal energy E=F+TS    =    -131.84064192 Ry

     The total energy is F=E-TS. E is the sum of the following terms:
     one-electron contribution =     -43.92402193 Ry
     hartree contribution      =      23.34688903 Ry
     xc contribution           =     -34.64015119 Ry
     ewald contribution        =     -76.62335782 Ry

     convergence has been achieved in   8 iterations

     Forces acting on atoms (cartesian axes, Ry/au):

     atom    1 type  1   force =     0.00000000    0.00000000   -0.01091356
     atom    2 type  1   force =    -0.00000000   -0.00000000    0.01091356
     atom    3 type  1   force =    -0.00000000   -0.00000000    0.01643574
     atom    4 type  1   force =    -0.00000000    0.00000000   -0.01643574
     atom    5 type  1   force =     0.00000000   -0.00000000   -0.00284643
     atom    6 type  1   force =    -0.00000000    0.00000000    0.00284643
     atom    7 type  1   force =     0.00000000    0.00000000    0.00000000
     atom    8 type  1   force =     0.00000000    0.00000000    0.00000000
     atom    9 type  2   force =     0.00000000    0.00000000   -0.02166343
     atom   10 type  2   force =    -0.00000000   -0.00000000    0.02166343

     Total force =     0.041633     Total SCF correction =     0.000060


     Computing stress (Cartesian axis) and pressure

          total   stress  (Ry/bohr**3)                   (kbar)     P=      511.29
   0.00358732   0.00000000   0.00000000          527.71        0.00        0.00
  -0.00000000   0.00358732   0.00000000           -0.00      527.71        0.00
   0.00000000   0.00000000   0.00325242            0.00        0.00      478.45


     BFGS Geometry Optimization
     Energy error            =      0.0E+00 Ry
     Gradient error          =      2.2E-02 Ry/Bohr
     Cell gradient error     =      2.8E+01 kbar

     number of scf cycles    =   1
     number of bfgs steps    =   0

     enthalpy           new  =    -129.8801160376 Ry

     new trust radius        =       0.0226232784 bohr
ibrav =      5
 celldm(1) =     14.71782971
 celldm(4) =      0.89088961
Input lattice vectors:
     0.23285562    -0.13443926     0.95999588
     0.00000000     0.26887851     0.95999588
    -0.23285562    -0.13443926     0.95999588
New lattice vectors in INITIAL alat:
     0.23285562    -0.13443926     0.95999588
     0.00000000     0.26887851     0.95999588
    -0.23285562    -0.13443926     0.95999588
New lattice vectors in NEW alat (for information only):
     0.23357054    -0.13485201     0.96294327
     0.00000000     0.26970402     0.96294327
    -0.23357054    -0.13485201     0.96294327
Discrepancy in bohr =     0.000000    0.000000    0.000000
     new conv_thr            =       0.0000000100 Ry

     new unit-cell volume =    580.17467 a.u.^3 (    85.97302 Ang^3 )
     density =      2.15743 g/cm^3

CELL_PARAMETERS (alat= 14.76301660)
   0.232855620  -0.134439255   0.959995876
   0.000000000   0.268878510   0.959995876
  -0.232855620  -0.134439255   0.959995876

ATOMIC_POSITIONS (crystal)
Li               0.1986069251        0.1986069251        0.1986069251
Li               0.8013930749        0.8013930749        0.8013930749
Li               0.2901974800        0.2901974800        0.2901974800
Li               0.7098025200        0.7098025200        0.7098025200
Li               0.3977452977        0.3977452977        0.3977452977
Li               0.6022547023        0.6022547023        0.6022547023
Li               0.5000000000        0.5000000000        0.5000000000
Li              -0.0000000000        0.0000000000       -0.0000000000
Si               0.1000393461        0.1000393461        0.1000393461
Si               0.8999606539        0.8999606539        0.8999606539



     Writing config-only to output data dir ./output/LiSi.save/ :
     XML data file
     NEW-OLD atomic charge density approx. for the potential

     total cpu time spent up to now is       27.5 secs

     per-process dynamical memory:    48.7 Mb

     Self-consistent Calculation

     iteration #  1     ecut=    80.00 Ry     beta= 0.70
     Davidson diagonalization with overlap
     ethr =  1.00E-06,  avg # of iterations =  5.9

     total cpu time spent up to now is       31.7 secs

     total energy              =    -131.85445350 Ry
     estimated scf accuracy    <       0.00044099 Ry

     iteration #  2     ecut=    80.00 Ry     beta= 0.70
     Davidson diagonalization with overlap
     ethr =  1.38E-06,  avg # of iterations =  5.1

     total cpu time spent up to now is       34.7 secs

     total energy              =    -131.85388332 Ry
     estimated scf accuracy    <       0.00825886 Ry

     iteration #  3     ecut=    80.00 Ry     beta= 0.70
     Davidson diagonalization with overlap
     c_bands:  1 eigenvalues not converged
     ethr =  1.38E-06,  avg # of iterations =  4.0

     total cpu time spent up to now is       37.5 secs

     total energy              =    -131.85474140 Ry
     estimated scf accuracy    <       0.00000288 Ry

     iteration #  4     ecut=    80.00 Ry     beta= 0.70
     Davidson diagonalization with overlap
     ethr =  8.99E-09,  avg # of iterations =  4.0

     total cpu time spent up to now is       40.3 secs

     total energy              =    -131.85474257 Ry
     estimated scf accuracy    <       0.00000148 Ry

     iteration #  5     ecut=    80.00 Ry     beta= 0.70
     Davidson diagonalization with overlap
     ethr =  4.64E-09,  avg # of iterations =  2.0

     total cpu time spent up to now is       42.6 secs

     total energy              =    -131.85474275 Ry
     estimated scf accuracy    <       0.00000008 Ry

     iteration #  6     ecut=    80.00 Ry     beta= 0.70
     Davidson diagonalization with overlap
     ethr =  2.36E-10,  avg # of iterations =  2.3

     total cpu time spent up to now is       45.0 secs

     End of self-consistent calculation

          k = 0.0000 0.0000 0.0000 (  6959 PWs)   bands (ev):

   -38.4054 -38.3214 -38.2554 -37.8900 -37.8336 -37.8101 -37.7283 -37.7074
    -1.7704  -1.1702   3.0193   6.3934   6.7887   8.0831   8.0831   8.4351
     8.4351  10.3401  10.3401  10.4755

          k =-0.3068-0.1771 0.0496 (  6970 PWs)   bands (ev):

   -38.3906 -38.3153 -38.2467 -37.8952 -37.8402 -37.8172 -37.7339 -37.7106
    -1.6219  -1.0207   3.1675   6.2176   6.4184   6.9186   6.9384   7.3885
     7.7632  10.6789  11.3021  11.4330

          k =-0.6135-0.3542 0.0992 (  6962 PWs)   bands (ev):

   -38.3536 -38.3017 -38.2273 -37.9084 -37.8545 -37.8345 -37.7468 -37.7186
    -1.2069  -0.6334   3.6018   4.4527   5.3094   5.8828   6.3235   6.6686
     6.8825  10.3747  11.2857  11.4783

          k =-0.9203-0.5313 0.1488 (  6977 PWs)   bands (ev):

   -38.3163 -38.2939 -38.2123 -37.9222 -37.8618 -37.8522 -37.7579 -37.7254
    -0.6967  -0.2782   3.2953   3.9904   4.2696   5.3415   5.6756   6.0804
     7.0109   9.3769  10.9582  11.1668

          k =-0.3068 0.1771 0.0992 (  6954 PWs)   bands (ev):

   -38.3901 -38.3164 -38.2461 -37.8952 -37.8400 -37.8173 -37.7340 -37.7106
    -1.6214  -1.0224   3.1969   5.9689   6.4643   6.8242   7.1523   7.3240
     8.0018  10.5806  11.4039  11.6511

          k =-0.6135 0.0000 0.1488 (  6969 PWs)   bands (ev):

   -38.3638 -38.3067 -38.2322 -37.9039 -37.8507 -37.8298 -37.7427 -37.7168
    -1.3366  -0.7530   3.5173   5.2312   5.4508   5.8192   6.2875   6.6592
     7.4504  10.5962  11.1512  11.7389

          k =-0.9203-0.1771 0.1984 (  6965 PWs)   bands (ev):

   -38.3264 -38.2945 -38.2158 -37.9161 -37.8627 -37.8480 -37.7527 -37.7264
    -0.8448  -0.3603   3.7809   4.0553   4.5428   5.1449   5.5782   6.0989
     6.7050   9.3839  11.4813  11.5905

          k = 0.9203 0.8855-0.0992 (  6960 PWs)   bands (ev):

   -38.3042 -38.2928 -38.2086 -37.9227 -37.8654 -37.8590 -37.7570 -37.7313
    -0.4967  -0.1984   3.2339   3.8865   4.5763   4.7474   5.4219   5.5406
     6.9089   8.6484  11.2165  11.6018

          k = 0.6135 0.7084-0.0496 (  6970 PWs)   bands (ev):

   -38.3273 -38.2936 -38.2156 -37.9161 -37.8640 -37.8470 -37.7527 -37.7263
    -0.8481  -0.3537   3.8240   4.0144   4.4399   5.0844   5.6484   6.1116
     6.9826   9.3513  10.9751  11.3408

          k = 0.3068 0.5313 0.0000 (  6964 PWs)   bands (ev):

   -38.3649 -38.3049 -38.2328 -37.9040 -37.8514 -37.8292 -37.7426 -37.7168
    -1.3384  -0.7479   3.4404   5.3136   5.3855   6.0869   6.3940   6.7299
     6.9712  10.8964  11.1207  11.6654

          k =-0.6135 0.3542 0.1984 (  6965 PWs)   bands (ev):

   -38.3519 -38.3043 -38.2265 -37.9084 -37.8536 -37.8350 -37.7470 -37.7185
    -1.2037  -0.6416   3.7186   4.6112   5.1297   5.5553   5.6686   7.1816
     7.9035   9.9616  10.0242  10.8937

          k =-0.9203 0.1771 0.2480 (  6965 PWs)   bands (ev):

   -38.3253 -38.2958 -38.2157 -37.9160 -37.8624 -37.8482 -37.7529 -37.7263
    -0.8411  -0.3677   3.8434   4.2435   4.3676   4.8931   5.5041   6.1659
     7.3300   8.6640  10.9720  11.2966

          k = 0.9203 1.2397-0.0496 (  6957 PWs)   bands (ev):

   -38.3007 -38.2903 -38.2076 -37.9200 -37.8691 -37.8625 -37.7516 -37.7388
    -0.3999  -0.1760   3.5443   3.8369   4.2841   4.7089   4.9894   5.6578
     6.7536   7.6320  11.5467  12.4811

          k = 0.6135 1.0626 0.0000 (  6968 PWs)   bands (ev):

   -38.3013 -38.2899 -38.2071 -37.9199 -37.8712 -37.8607 -37.7516 -37.7387
    -0.4094  -0.1632   3.5123   3.9607   4.3716   4.5319   4.7743   5.7356
     6.8481   7.9438  11.5553  12.0139

          k =-0.9203 0.5313 0.2976 (  6975 PWs)   bands (ev):

   -38.3143 -38.2956 -38.2129 -37.9214 -37.8612 -37.8528 -37.7584 -37.7252
    -0.6859  -0.2970   3.3890   3.7755   4.6294   5.0711   5.4004   6.7696
     6.8259   9.1955  10.1144  10.6527

          k = 0.9203 1.5939 0.0000 (  6970 PWs)   bands (ev):

   -38.3032 -38.2932 -38.2095 -37.9221 -37.8636 -37.8607 -37.7573 -37.7312
    -0.4820  -0.2193   3.3596   3.6444   4.5069   4.8707   5.5773   5.9539
     6.5092   8.0832  11.1387  11.7562

          k =-0.0000-0.0000 0.1488 (  6971 PWs)   bands (ev):

   -38.4039 -38.3248 -38.2535 -37.8900 -37.8329 -37.8107 -37.7285 -37.7074
    -1.7693  -1.1745   3.1017   5.6932   7.5775   8.0176   8.0176   8.5254
     8.5254  10.1547  10.1547  10.7250

          k =-0.3068-0.1771 0.1984 (  6969 PWs)   bands (ev):

   -38.3884 -38.3197 -38.2446 -37.8951 -37.8391 -37.8181 -37.7341 -37.7106
    -1.6197  -1.0279   3.2999   5.5214   6.3127   6.9786   7.3154   7.6948
     7.9595  10.7798  11.1690  11.2472

          k =-0.6135-0.3542 0.2480 (  6965 PWs)   bands (ev):

   -38.3517 -38.3044 -38.2268 -37.9082 -37.8529 -37.8358 -37.7470 -37.7186
    -1.2030  -0.6433   3.7564   4.3812   5.3393   5.8802   5.8891   6.6738
     7.0952  10.6189  11.3524  11.4088

          k = 1.2270 0.7084-0.0496 (  6974 PWs)   bands (ev):

   -38.3155 -38.2945 -38.2126 -37.9220 -37.8601 -37.8538 -37.7580 -37.7254
    -0.6921  -0.2864   3.2712   3.9999   4.3822   5.2881   5.7577   6.1781
     6.5594   9.8406  10.5792  10.9573

          k = 0.9203 0.5313 0.0000 (  6987 PWs)   bands (ev):

   -38.3162 -38.2939 -38.2122 -37.9220 -37.8627 -37.8514 -37.7580 -37.7253
    -0.6967  -0.2783   3.3420   3.9223   4.2590   5.2486   5.6232   6.2583
     7.2498   9.2517  10.3120  10.8332

          k = 0.6135 0.3542 0.0496 (  6967 PWs)   bands (ev):

   -38.3537 -38.3016 -38.2272 -37.9084 -37.8548 -37.8342 -37.7469 -37.7185
    -1.2071  -0.6326   3.5900   4.5452   5.1953   5.7699   6.0631   6.8991
     7.3523  10.1674  10.6470  11.0025

          k =-0.3068 0.1771 0.2480 (  6965 PWs)   bands (ev):

   -38.3872 -38.3221 -38.2434 -37.8951 -37.8385 -37.8186 -37.7342 -37.7106
    -1.6186  -1.0317   3.3866   5.2448   6.4623   6.7420   7.1407   8.1858
     8.2327  10.5265  11.0884  11.5411

          k =-0.6135 0.0000 0.2976 (  6976 PWs)   bands (ev):

   -38.3611 -38.3111 -38.2308 -37.9038 -37.8488 -37.8312 -37.7429 -37.7168
    -1.3323  -0.7646   3.7416   5.0608   5.3413   5.4897   6.2465   6.7597
     7.9983  10.1619  11.1342  11.8885

          k = 1.2270 1.0626 0.0000 (  6976 PWs)   bands (ev):

   -38.3248 -38.2962 -38.2160 -37.9160 -37.8606 -37.8497 -37.7528 -37.7265
    -0.8390  -0.3720   3.7500   4.2052   4.5938   5.0553   5.5999   5.9094
     6.7338   9.0898  11.7757  12.1413

          k = 0.9203 0.8855 0.0496 (  6962 PWs)   bands (ev):

   -38.3039 -38.2929 -38.2089 -37.9225 -37.8649 -37.8594 -37.7571 -37.7312
    -0.4917  -0.2056   3.2648   3.8170   4.6056   4.6830   5.5894   5.6290
     6.7328   8.4750  11.1933  11.5455

          k = 0.6135 0.7084 0.0992 (  6985 PWs)   bands (ev):

   -38.3268 -38.2942 -38.2156 -37.9161 -37.8639 -37.8470 -37.7528 -37.7263
    -0.8465  -0.3569   3.8390   4.1378   4.3200   4.9642   5.7138   6.0704
     7.2454   9.0402  10.7737  11.2045

          k =-0.6135 0.3542 0.3472 (  6977 PWs)   bands (ev):

   -38.3493 -38.3080 -38.2257 -37.9082 -37.8517 -37.8366 -37.7472 -37.7186
    -1.1989  -0.6535   3.9599   4.5945   5.0256   5.2272   5.6306   7.3217
     8.0651   9.7675  10.0416  10.9511

          k = 1.2270 1.4168 0.0496 (  6961 PWs)   bands (ev):

   -38.3238 -38.2973 -38.2159 -37.9159 -37.8602 -37.8500 -37.7530 -37.7264
    -0.8359  -0.3781   3.8072   4.2729   4.6135   4.8862   5.2567   6.1605
     7.2379   8.4975  11.4001  11.5650

          k = 0.9203 1.2397 0.0992 (  6963 PWs)   bands (ev):

   -38.3003 -38.2905 -38.2078 -37.9200 -37.8669 -37.8645 -37.7516 -37.7388
    -0.3941  -0.1835   3.5811   3.7456   4.3064   4.7335   5.1391   5.5873
     6.7602   7.4054  11.8912  12.6116

          k = 0.6135 1.0626 0.1488 (  6965 PWs)   bands (ev):

   -38.3011 -38.2900 -38.2073 -37.9199 -37.8706 -37.8611 -37.7516 -37.7387
    -0.4066  -0.1670   3.5202   3.9258   4.3183   4.5985   4.8541   5.7091
     6.8135   7.8547  11.4732  11.9963

          k = 1.2270-0.7084-0.2480 (  6984 PWs)   bands (ev):

   -38.3138 -38.2960 -38.2132 -37.9214 -37.8593 -37.8546 -37.7584 -37.7253
    -0.6831  -0.3017   3.3338   3.8450   4.7068   5.0833   5.4499   6.5036
     6.7215   9.2780  10.5421  10.7222

          k = 0.9203-0.8855-0.1984 (  6972 PWs)   bands (ev):

   -38.3034 -38.2931 -38.2093 -37.9223 -37.8641 -37.8602 -37.7572 -37.7312
    -0.4851  -0.2150   3.3208   3.7074   4.5387   4.7899   5.6101   5.8489
     6.5623   8.2128  11.2589  11.4886

          k = 0.9203-0.5313-0.1488 (  6965 PWs)   bands (ev):

   -38.3154 -38.2947 -38.2125 -37.9217 -37.8625 -37.8516 -37.7582 -37.7252
    -0.6919  -0.2866   3.3884   3.8140   4.4046   5.1326   5.5321   6.5532
     7.1248   9.5869   9.5973  10.6838

          k =-0.0000-0.0000 0.2976 (  6967 PWs)   bands (ev):

   -38.4002 -38.3323 -38.2496 -37.8900 -37.8312 -37.8121 -37.7288 -37.7073
    -1.7666  -1.1841   3.3445   4.9300   7.9230   7.9230   8.5965   8.6729
     8.6729  10.0343  10.0344  10.9636

          k =-0.3068-0.1771 0.3472 (  6978 PWs)   bands (ev):

   -38.3848 -38.3263 -38.2417 -37.8950 -37.8372 -37.8197 -37.7344 -37.7106
    -1.6164  -1.0386   3.5859   4.8213   6.2786   6.8869   7.4517   7.8679
     8.7240  10.7949  11.0808  11.1197

          k = 1.5338 0.8855 0.0496 (  6976 PWs)   bands (ev):

   -38.3491 -38.3081 -38.2259 -37.9080 -37.8509 -37.8374 -37.7472 -37.7187
    -1.1984  -0.6549   4.0375   4.3312   5.1001   5.5493   5.7660   6.9097
     7.4484  10.5983  10.6980  11.2186

          k = 1.2270 0.7084 0.0992 (  6986 PWs)   bands (ev):

   -38.3143 -38.2954 -38.2131 -37.9216 -37.8583 -37.8555 -37.7582 -37.7254
    -0.6860  -0.2969   3.2841   3.9447   4.5509   5.1663   5.7321   6.3008
     6.4564   9.7995  10.3667  10.8444

          k =-0.3068 0.1771 0.3968 (  6981 PWs)   bands (ev):

   -38.3836 -38.3283 -38.2409 -37.8951 -37.8367 -37.8201 -37.7345 -37.7106
    -1.6155  -1.0417   3.7251   4.5863   6.3798   6.7258   7.2730   8.2915
     8.9569  10.5602  10.9143  11.2570

          k = 1.5338 1.2397 0.0992 (  6980 PWs)   bands (ev):

   -38.3585 -38.3148 -38.2297 -37.9037 -37.8471 -37.8327 -37.7431 -37.7169
    -1.3289  -0.7739   4.0850   4.6150   5.2153   5.4653   6.3126   6.7853
     8.3878   9.7611  11.4551  11.8595

          k = 1.2270 1.0626 0.1488 (  6967 PWs)   bands (ev):

   -38.3236 -38.2975 -38.2160 -37.9159 -37.8592 -37.8510 -37.7530 -37.7265
    -0.8349  -0.3800   3.7624   4.3044   4.6754   4.9130   5.3461   6.0087
     6.9837   8.7009  11.7347  11.9370

          k = 1.5338-0.8855-0.1984 (  6964 PWs)   bands (ev):

   -38.3479 -38.3098 -38.2255 -37.9080 -37.8503 -37.8379 -37.7473 -37.7186
    -1.1965  -0.6595   4.2093   4.4096   4.8223   5.3731   5.6663   7.1909
     7.8149   9.9972  10.4238  11.0634

          k =-0.0000 0.0000 0.4464 (  6988 PWs)   bands (ev):

   -38.3968 -38.3385 -38.2469 -37.8900 -37.8297 -37.8135 -37.7290 -37.7072
    -1.7645  -1.1918   3.7351   4.2772   7.8684   7.8685   8.7646   8.7646
     9.5981  10.0215  10.0215  11.0323

          k = 1.8405 1.0626 0.1488 (  6979 PWs)   bands (ev):

   -38.3824 -38.3303 -38.2402 -37.8950 -37.8360 -37.8207 -37.7346 -37.7105
    -1.6145  -1.0447   3.9922   4.2432   6.3045   6.7798   7.4148   8.1257
     9.2111  10.7462  10.9106  10.9992

     the Fermi energy is     6.9643 ev

!    total energy              =    -131.85474276 Ry
     estimated scf accuracy    <          4.2E-09 Ry
     smearing contrib. (-TS)   =      -0.00018770 Ry
     internal energy E=F+TS    =    -131.85455506 Ry

     The total energy is F=E-TS. E is the sum of the following terms:
     one-electron contribution =     -44.02271797 Ry
     hartree contribution      =      23.32869769 Ry
     xc contribution           =     -34.62181848 Ry
     ewald contribution        =     -76.53871630 Ry

     convergence has been achieved in   6 iterations

     Forces acting on atoms (cartesian axes, Ry/au):

     atom    1 type  1   force =    -0.00000000   -0.00000000   -0.00712395
     atom    2 type  1   force =     0.00000000   -0.00000000    0.00712395
     atom    3 type  1   force =     0.00000000    0.00000000    0.01396782
     atom    4 type  1   force =     0.00000000   -0.00000000   -0.01396782
     atom    5 type  1   force =     0.00000000   -0.00000000   -0.00094191
     atom    6 type  1   force =    -0.00000000    0.00000000    0.00094191
     atom    7 type  1   force =     0.00000000    0.00000000    0.00000000
     atom    8 type  1   force =    -0.00000000    0.00000000    0.00000000
     atom    9 type  2   force =    -0.00000000    0.00000000   -0.01912442
     atom   10 type  2   force =     0.00000000   -0.00000000    0.01912442

     Total force =     0.034999     Total SCF correction =     0.000138


     Computing stress (Cartesian axis) and pressure

          total   stress  (Ry/bohr**3)                   (kbar)     P=      500.32
   0.00348254   0.00000000   0.00000000          512.30        0.00        0.00
   0.00000000   0.00348254   0.00000000            0.00      512.30        0.00
   0.00000000   0.00000000   0.00323819            0.00        0.00      476.35

     Energy error            =      2.7E-03 Ry
     Gradient error          =      1.9E-02 Ry/Bohr
     Cell gradient error     =      2.4E+01 kbar

     number of scf cycles    =   2
     number of bfgs steps    =   1

     enthalpy           old  =    -129.8801160376 Ry
     enthalpy           new  =    -129.8827691335 Ry

     CASE: enthalpy          _new < enthalpy          _old

     new trust radius        =       0.0338727125 bohr
ibrav =      5
 celldm(1) =     14.62712533
 celldm(4) =      0.88856381
Input lattice vectors:
     0.23387404    -0.13502724     0.95328150
    -0.00000000     0.27005447     0.95328150
    -0.23387404    -0.13502724     0.95328150
New lattice vectors in INITIAL alat:
     0.23387404    -0.13502724     0.95328150
     0.00000000     0.27005447     0.95328150
    -0.23387404    -0.13502724     0.95328150
New lattice vectors in NEW alat (for information only):
     0.23604681    -0.13628169     0.96213783
     0.00000000     0.27256338     0.96213783
    -0.23604681    -0.13628169     0.96213783
Discrepancy in bohr =     0.000000    0.000000    0.000000
     new conv_thr            =       0.0000000005 Ry

     new unit-cell volume =    581.16725 a.u.^3 (    86.12010 Ang^3 )
     density =      2.15374 g/cm^3

CELL_PARAMETERS (alat= 14.76301660)
   0.233874035  -0.135027237   0.953281502
   0.000000000   0.270054475   0.953281502
  -0.233874035  -0.135027237   0.953281502

ATOMIC_POSITIONS (crystal)
Li               0.1982912601        0.1982912601        0.1982912601
Li               0.8017087399        0.8017087399        0.8017087399
Li               0.2907834250        0.2907834250        0.2907834250
Li               0.7092165750        0.7092165750        0.7092165750
Li               0.3976942353        0.3976942353        0.3976942353
Li               0.6023057647        0.6023057647        0.6023057647
Li               0.5000000000        0.5000000000        0.5000000000
Li              -0.0000000000        0.0000000000       -0.0000000000
Si               0.0992426655        0.0992426655        0.0992426655
Si               0.9007573345        0.9007573345        0.9007573345



     Writing config-only to output data dir ./output/LiSi.save/ :
     XML data file
     NEW-OLD atomic charge density approx. for the potential

     total cpu time spent up to now is       46.4 secs

     per-process dynamical memory:    49.1 Mb

     Self-consistent Calculation

     iteration #  1     ecut=    80.00 Ry     beta= 0.70
     Davidson diagonalization with overlap
     ethr =  1.00E-06,  avg # of iterations =  6.6

     total cpu time spent up to now is       51.0 secs

     total energy              =    -131.85998850 Ry
     estimated scf accuracy    <       0.00118266 Ry

     iteration #  2     ecut=    80.00 Ry     beta= 0.70
     Davidson diagonalization with overlap
     ethr =  3.70E-06,  avg # of iterations =  5.6

     total cpu time spent up to now is       54.1 secs

     total energy              =    -131.85853228 Ry
     estimated scf accuracy    <       0.02152617 Ry

     iteration #  3     ecut=    80.00 Ry     beta= 0.70
     Davidson diagonalization with overlap
     ethr =  3.70E-06,  avg # of iterations =  4.2

     total cpu time spent up to now is       56.9 secs

     total energy              =    -131.86077919 Ry
     estimated scf accuracy    <       0.00000868 Ry

     iteration #  4     ecut=    80.00 Ry     beta= 0.70
     Davidson diagonalization with overlap
     ethr =  2.71E-08,  avg # of iterations =  3.6

     total cpu time spent up to now is       59.6 secs

     total energy              =    -131.86078380 Ry
     estimated scf accuracy    <       0.00000402 Ry

     iteration #  5     ecut=    80.00 Ry     beta= 0.70
     Davidson diagonalization with overlap
     ethr =  1.26E-08,  avg # of iterations =  2.0

     total cpu time spent up to now is       62.0 secs

     total energy              =    -131.86078424 Ry
     estimated scf accuracy    <       0.00000024 Ry

     iteration #  6     ecut=    80.00 Ry     beta= 0.70
     Davidson diagonalization with overlap
     ethr =  7.59E-10,  avg # of iterations =  2.3

     total cpu time spent up to now is       64.2 secs

     total energy              =    -131.86078428 Ry
     estimated scf accuracy    <          6.0E-09 Ry

     iteration #  7     ecut=    80.00 Ry     beta= 0.70
     Davidson diagonalization with overlap
     ethr =  1.88E-11,  avg # of iterations =  3.8

     total cpu time spent up to now is       66.8 secs

     total energy              =    -131.86078428 Ry
     estimated scf accuracy    <          1.2E-09 Ry

     iteration #  8     ecut=    80.00 Ry     beta= 0.70
     Davidson diagonalization with overlap
     ethr =  3.60E-12,  avg # of iterations =  2.1

     total cpu time spent up to now is       69.1 secs

     End of self-consistent calculation

          k = 0.0000 0.0000 0.0000 (  6959 PWs)   bands (ev):

   -38.4187 -38.3309 -38.2914 -37.8810 -37.8484 -37.8216 -37.7572 -37.7314
    -1.7556  -1.1628   3.0238   6.3937   6.9146   8.0346   8.0346   8.3386
     8.3386  10.2936  10.2936  10.3835

          k =-0.3054-0.1763 0.0500 (  6970 PWs)   bands (ev):

   -38.4043 -38.3257 -38.2832 -37.8861 -37.8544 -37.8281 -37.7623 -37.7347
    -1.6088  -1.0152   3.1717   6.2159   6.3897   6.8951   7.0109   7.3387
     7.6828  10.6210  11.2232  11.3506

          k =-0.6108-0.3527 0.0999 (  6962 PWs)   bands (ev):

   -38.3685 -38.3138 -38.2656 -37.8995 -37.8665 -37.8440 -37.7738 -37.7431
    -1.1990  -0.6336   3.6061   4.4283   5.2933   5.8531   6.3122   6.5943
     6.9507  10.3549  11.2702  11.4526

          k =-0.9162-0.5290 0.1499 (  6977 PWs)   bands (ev):

   -38.3320 -38.3076 -38.2523 -37.9139 -37.8706 -37.8611 -37.7833 -37.7505
    -0.6971  -0.2844   3.2805   3.9912   4.2800   5.3195   5.6615   6.0078
     7.0383   9.4116  10.9266  11.1563

          k =-0.3054 0.1763 0.0999 (  6954 PWs)   bands (ev):

   -38.4037 -38.3273 -38.2822 -37.8861 -37.8541 -37.8283 -37.7624 -37.7347
    -1.6081  -1.0171   3.2017   5.9993   6.4312   6.7696   7.0830   7.4075
     7.9391  10.5136  11.3286  11.5784

          k =-0.6108 0.0000 0.1499 (  6969 PWs)   bands (ev):

   -38.3782 -38.3190 -38.2694 -37.8946 -37.8636 -37.8397 -37.7703 -37.7411
    -1.3267  -0.7518   3.5223   5.1963   5.4268   5.8402   6.2273   6.6378
     7.4874  10.5621  11.1312  11.7045

          k =-0.9162-0.1763 0.1998 (  6965 PWs)   bands (ev):

   -38.3418 -38.3081 -38.2553 -37.9067 -37.8733 -37.8570 -37.7788 -37.7511
    -0.8420  -0.3658   3.7599   4.0583   4.5423   5.1307   5.5316   6.0793
     6.7316   9.3802  11.4826  11.5822

          k = 0.9162 0.8817-0.0999 (  6960 PWs)   bands (ev):

   -38.3201 -38.3071 -38.2493 -37.9135 -37.8733 -37.8688 -37.7820 -37.7564
    -0.5010  -0.2061   3.2194   3.8908   4.5888   4.7309   5.3689   5.5270
     6.9202   8.6652  11.2232  11.5980

          k = 0.6108 0.7053-0.0500 (  6970 PWs)   bands (ev):

   -38.3428 -38.3070 -38.2552 -37.9067 -37.8748 -37.8559 -37.7787 -37.7510
    -0.8458  -0.3584   3.8122   4.0128   4.4268   5.0641   5.6095   6.0931
     7.0224   9.3537  10.9747  11.3351

          k = 0.3054 0.5290 0.0000 (  6964 PWs)   bands (ev):

   -38.3795 -38.3163 -38.2706 -37.8947 -37.8644 -37.8390 -37.7701 -37.7411
    -1.3288  -0.7461   3.4438   5.2903   5.3475   6.0828   6.3508   6.6735
     7.0613  10.8635  11.0815  11.6627

          k =-0.6108 0.3527 0.1998 (  6965 PWs)   bands (ev):

   -38.3665 -38.3176 -38.2640 -37.8993 -37.8658 -37.8445 -37.7741 -37.7431
    -1.1953  -0.6426   3.7234   4.6048   5.0910   5.5684   5.6193   7.1428
     7.9556   9.9628   9.9696  10.8464

          k =-0.9162 0.1763 0.2498 (  6965 PWs)   bands (ev):

   -38.3404 -38.3099 -38.2551 -37.9063 -37.8734 -37.8570 -37.7790 -37.7511
    -0.8378  -0.3740   3.8400   4.2193   4.3698   4.8563   5.5131   6.1477
     7.3413   8.6333  10.9990  11.2710

          k = 0.9162 1.2343-0.0500 (  6957 PWs)   bands (ev):

   -38.3161 -38.3051 -38.2488 -37.9087 -37.8791 -37.8719 -37.7768 -37.7637
    -0.4046  -0.1861   3.5380   3.8237   4.2493   4.7135   4.9962   5.6563
     6.7504   7.6203  11.5607  12.5108

          k = 0.6108 1.0580 0.0000 (  6968 PWs)   bands (ev):

   -38.3170 -38.3047 -38.2482 -37.9086 -37.8815 -37.8700 -37.7768 -37.7635
    -0.4153  -0.1719   3.5046   3.9477   4.3568   4.5212   4.7629   5.7402
     6.8463   7.9466  11.5955  12.0337

          k =-0.9162 0.5290 0.2997 (  6975 PWs)   bands (ev):

   -38.3294 -38.3100 -38.2530 -37.9126 -37.8714 -37.8609 -37.7839 -37.7503
    -0.6847  -0.3053   3.3901   3.7517   4.6505   5.0246   5.4002   6.7447
     6.8346   9.1313  10.1494  10.6160

          k = 0.9162 1.5870 0.0000 (  6970 PWs)   bands (ev):

   -38.3186 -38.3077 -38.2505 -37.9124 -37.8736 -37.8689 -37.7825 -37.7563
    -0.4843  -0.2295   3.3629   3.6221   4.4707   4.8976   5.5618   5.9441
     6.5221   8.0407  11.1203  11.7627

          k =-0.0000-0.0000 0.1499 (  6971 PWs)   bands (ev):

   -38.4170 -38.3359 -38.2881 -37.8809 -37.8476 -37.8223 -37.7574 -37.7313
    -1.7542  -1.1676   3.1078   5.7302   7.6658   7.9574   7.9574   8.4420
     8.4420  10.0827  10.0827  10.6634

          k =-0.3054-0.1763 0.1998 (  6969 PWs)   bands (ev):

   -38.4018 -38.3319 -38.2796 -37.8859 -37.8531 -37.8291 -37.7626 -37.7347
    -1.6062  -1.0233   3.3070   5.5507   6.2666   6.9411   7.3142   7.6073
     7.9833  10.7329  11.0857  11.1677

          k =-0.6108-0.3527 0.2498 (  6965 PWs)   bands (ev):

   -38.3662 -38.3176 -38.2643 -37.8993 -37.8647 -37.8454 -37.7740 -37.7431
    -1.1945  -0.6446   3.7643   4.3533   5.3353   5.8502   5.9044   6.5999
     7.1052  10.6039  11.3274  11.3828

          k = 1.2217 0.7053-0.0500 (  6974 PWs)   bands (ev):

   -38.3310 -38.3084 -38.2528 -37.9137 -37.8687 -37.8629 -37.7834 -37.7505
    -0.6918  -0.2935   3.2551   4.0006   4.4000   5.2589   5.7371   6.1146
     6.5839   9.8701  10.5549  10.9295

          k = 0.9162 0.5290 0.0000 (  6987 PWs)   bands (ev):

   -38.3320 -38.3078 -38.2522 -37.9137 -37.8719 -37.8601 -37.7834 -37.7504
    -0.6970  -0.2845   3.3321   3.9178   4.2627   5.2151   5.6218   6.2009
     7.2708   9.2943  10.2812  10.8010

          k = 0.6108 0.3527 0.0500 (  6967 PWs)   bands (ev):

   -38.3686 -38.3138 -38.2654 -37.8995 -37.8669 -37.8436 -37.7738 -37.7430
    -1.1993  -0.6327   3.5934   4.5295   5.1645   5.7279   6.0676   6.8427
     7.4229  10.1543  10.6033  10.9773

          k =-0.3054 0.1763 0.2498 (  6965 PWs)   bands (ev):

   -38.4003 -38.3352 -38.2779 -37.8859 -37.8525 -37.8296 -37.7628 -37.7347
    -1.6048  -1.0276   3.3952   5.2772   6.4298   6.6817   7.0687   8.1845
     8.2645  10.4549  11.0108  11.4780

          k =-0.6108 0.0000 0.2997 (  6976 PWs)   bands (ev):

   -38.3749 -38.3249 -38.2670 -37.8944 -37.8616 -37.8413 -37.7706 -37.7411
    -1.3218  -0.7647   3.7511   5.0414   5.3421   5.4736   6.1854   6.7430
     8.0088  10.1205  11.1422  11.8212

          k = 1.2217 1.0580 0.0000 (  6976 PWs)   bands (ev):

   -38.3398 -38.3104 -38.2554 -37.9066 -37.8711 -37.8588 -37.7789 -37.7512
    -0.8353  -0.3788   3.7270   4.2074   4.6024   5.0320   5.5863   5.8859
     6.7309   9.0677  11.7608  12.1064

          k = 0.9162 0.8817 0.0500 (  6962 PWs)   bands (ev):

   -38.3196 -38.3073 -38.2497 -37.9131 -37.8734 -37.8689 -37.7822 -37.7563
    -0.4953  -0.2141   3.2532   3.8157   4.5915   4.6814   5.5712   5.6049
     6.7420   8.4692  11.2119  11.5272

          k = 0.6108 0.7053 0.0999 (  6985 PWs)   bands (ev):

   -38.3423 -38.3077 -38.2551 -37.9065 -37.8749 -37.8559 -37.7788 -37.7510
    -0.8439  -0.3620   3.8360   4.1381   4.2934   4.9318   5.7103   6.0468
     7.2735   9.0305  10.7859  11.1895

          k =-0.6108 0.3527 0.3497 (  6977 PWs)   bands (ev):

   -38.3632 -38.3225 -38.2626 -37.8990 -37.8638 -37.8462 -37.7743 -37.7431
    -1.1897  -0.6560   3.9657   4.5888   5.0468   5.1858   5.5790   7.2922
     8.0819   9.6965  10.0723  10.8938

          k = 1.2217 1.4107 0.0500 (  6961 PWs)   bands (ev):

   -38.3385 -38.3120 -38.2552 -37.9062 -37.8712 -37.8588 -37.7791 -37.7512
    -0.8318  -0.3856   3.7946   4.2535   4.6258   4.8651   5.2509   6.1443
     7.2424   8.4500  11.4255  11.5290

          k = 0.9162 1.2343 0.0999 (  6963 PWs)   bands (ev):

   -38.3156 -38.3053 -38.2491 -37.9087 -37.8768 -37.8739 -37.7769 -37.7637
    -0.3980  -0.1946   3.5814   3.7218   4.2726   4.7420   5.1548   5.5809
     6.7656   7.3757  11.9061  12.6363

          k = 0.6108 1.0580 0.1499 (  6965 PWs)   bands (ev):

   -38.3167 -38.3048 -38.2484 -37.9086 -37.8808 -37.8705 -37.7768 -37.7636
    -0.4121  -0.1762   3.5125   3.9147   4.2917   4.5928   4.8526   5.7105
     6.8111   7.8539  11.4968  12.0147

          k = 1.2217-0.7053-0.2498 (  6984 PWs)   bands (ev):

   -38.3287 -38.3105 -38.2533 -37.9126 -37.8695 -37.8625 -37.7839 -37.7504
    -0.6816  -0.3105   3.3265   3.8307   4.7378   5.0376   5.4408   6.5083
     6.6933   9.2173  10.5376  10.7085

          k = 0.9162-0.8817-0.1998 (  6972 PWs)   bands (ev):

   -38.3189 -38.3076 -38.2503 -37.9126 -37.8735 -37.8689 -37.7824 -37.7563
    -0.4878  -0.2246   3.3164   3.6948   4.5053   4.8082   5.6019   5.8307
     6.5725   8.1818  11.2396  11.5146

          k = 0.9162-0.5290-0.1499 (  6965 PWs)   bands (ev):

   -38.3309 -38.3088 -38.2525 -37.9131 -37.8723 -37.8600 -37.7836 -37.7503
    -0.6916  -0.2937   3.3867   3.7960   4.4125   5.0898   5.5380   6.5145
     7.1380   9.5475   9.6334  10.6493

          k =-0.0000-0.0000 0.2997 (  6967 PWs)   bands (ev):

   -38.4127 -38.3461 -38.2824 -37.8807 -37.8457 -37.8240 -37.7579 -37.7312
    -1.7510  -1.1784   3.3555   4.9627   7.8538   7.8538   8.6011   8.6011
     8.6861   9.9600   9.9600  10.9137

          k =-0.3054-0.1763 0.3497 (  6978 PWs)   bands (ev):

   -38.3975 -38.3407 -38.2753 -37.8856 -37.8511 -37.8309 -37.7631 -37.7346
    -1.6022  -1.0353   3.5991   4.8472   6.2285   6.8378   7.4295   7.7957
     8.7549  10.7491  10.9988  11.0756

          k = 1.5271 0.8817 0.0500 (  6976 PWs)   bands (ev):

   -38.3630 -38.3226 -38.2628 -37.8990 -37.8627 -37.8471 -37.7743 -37.7432
    -1.1891  -0.6575   4.0519   4.3056   5.1082   5.5472   5.7237   6.8538
     7.4391  10.5543  10.6954  11.1696

          k = 1.2217 0.7053 0.0999 (  6986 PWs)   bands (ev):

   -38.3295 -38.3097 -38.2532 -37.9131 -37.8678 -37.8639 -37.7837 -37.7505
    -0.6849  -0.3051   3.2703   3.9406   4.5743   5.1259   5.7209   6.3108
     6.4118   9.7559  10.3808  10.8290

          k =-0.3054 0.1763 0.3996 (  6981 PWs)   bands (ev):

   -38.3961 -38.3433 -38.2742 -37.8856 -37.8504 -37.8314 -37.7632 -37.7346
    -1.6011  -1.0387   3.7408   4.6107   6.3372   6.6645   7.2190   8.2471
     9.0171  10.4922  10.8364  11.2576

          k = 1.5271 1.2343 0.0999 (  6980 PWs)   bands (ev):

   -38.3717 -38.3300 -38.2653 -37.8942 -37.8597 -37.8429 -37.7708 -37.7411
    -1.3177  -0.7751   4.1033   4.6214   5.1848   5.4397   6.2643   6.7639
     8.3876   9.7065  11.4802  11.8645

          k = 1.2217 1.0580 0.1499 (  6967 PWs)   bands (ev):

   -38.3381 -38.3123 -38.2553 -37.9064 -37.8699 -37.8599 -37.7791 -37.7512
    -0.8306  -0.3877   3.7422   4.2956   4.6973   4.8893   5.3391   5.9822
     6.9799   8.6604  11.7163  11.9139

          k = 1.5271-0.8817-0.1998 (  6964 PWs)   bands (ev):

   -38.3614 -38.3250 -38.2621 -37.8989 -37.8622 -37.8475 -37.7745 -37.7432
    -1.1869  -0.6626   4.2079   4.4178   4.8240   5.3525   5.6169   7.1526
     7.8088   9.9353  10.4496  11.0046

          k =-0.0000 0.0000 0.4496 (  6988 PWs)   bands (ev):

   -38.4085 -38.3541 -38.2787 -37.8805 -37.8440 -37.8256 -37.7583 -37.7310
    -1.7483  -1.1871   3.7545   4.3003   7.7956   7.7956   8.6975   8.6975
     9.6900   9.9526   9.9526  10.9485

          k = 1.8325 1.0580 0.1499 (  6979 PWs)   bands (ev):

   -38.3945 -38.3459 -38.2732 -37.8855 -37.8497 -37.8321 -37.7633 -37.7345
    -1.5999  -1.0422   4.0190   4.2556   6.2557   6.7220   7.3785   8.0706
     9.2385  10.6743  10.9237  10.9365

     the Fermi energy is     6.9591 ev

!    total energy              =    -131.86078428 Ry
     estimated scf accuracy    <          7.6E-12 Ry
     smearing contrib. (-TS)   =      -0.00003032 Ry
     internal energy E=F+TS    =    -131.86075396 Ry

     The total energy is F=E-TS. E is the sum of the following terms:
     one-electron contribution =     -43.94079195 Ry
     hartree contribution      =      23.26928736 Ry
     xc contribution           =     -34.61640358 Ry
     ewald contribution        =     -76.57284579 Ry

     convergence has been achieved in   8 iterations

     Forces acting on atoms (cartesian axes, Ry/au):

     atom    1 type  1   force =     0.00000000    0.00000000   -0.00275381
     atom    2 type  1   force =    -0.00000000    0.00000000    0.00275381
     atom    3 type  1   force =    -0.00000000   -0.00000000    0.01123168
     atom    4 type  1   force =     0.00000000   -0.00000000   -0.01123168
     atom    5 type  1   force =     0.00000000    0.00000000    0.00101807
     atom    6 type  1   force =    -0.00000000    0.00000000   -0.00101807
     atom    7 type  1   force =    -0.00000000   -0.00000000   -0.00000000
     atom    8 type  1   force =    -0.00000000    0.00000000   -0.00000000
     atom    9 type  2   force =     0.00000000   -0.00000000   -0.01389723
     atom   10 type  2   force =    -0.00000000   -0.00000000    0.01389723

     Total force =     0.025609     Total SCF correction =     0.000007


     Computing stress (Cartesian axis) and pressure

          total   stress  (Ry/bohr**3)                   (kbar)     P=      496.89
   0.00341672   0.00000000  -0.00000000          502.62        0.00       -0.00
   0.00000000   0.00341672   0.00000000            0.00      502.62        0.00
  -0.00000000   0.00000000   0.00330003           -0.00        0.00      485.45

     Energy error            =      2.7E-03 Ry
     Gradient error          =      1.4E-02 Ry/Bohr
     Cell gradient error     =      1.5E+01 kbar

     number of scf cycles    =   3
     number of bfgs steps    =   2

     enthalpy           old  =    -129.8827691335 Ry
     enthalpy           new  =    -129.8854369512 Ry

     CASE: enthalpy          _new < enthalpy          _old

     new trust radius        =       0.0509396783 bohr
ibrav =      5
 celldm(1) =     14.50149964
 celldm(4) =      0.88556101
Input lattice vectors:
     0.23496860    -0.13565918     0.94407176
     0.00000000     0.27131837     0.94407176
    -0.23496860    -0.13565918     0.94407176
New lattice vectors in INITIAL alat:
     0.23496860    -0.13565918     0.94407176
     0.00000000     0.27131837     0.94407176
    -0.23496860    -0.13565918     0.94407176
New lattice vectors in NEW alat (for information only):
     0.23920597    -0.13810563     0.96109695
     0.00000000     0.27621126     0.96109695
    -0.23920597    -0.13810563     0.96109695
Discrepancy in bohr =     0.000000    0.000000    0.000000
     new conv_thr            =       0.0000000005 Ry

     new unit-cell volume =    580.95247 a.u.^3 (    86.08827 Ang^3 )
     density =      2.15454 g/cm^3

CELL_PARAMETERS (alat= 14.76301660)
   0.234968597  -0.135659183   0.944071756
   0.000000000   0.271318365   0.944071756
  -0.234968597  -0.135659183   0.944071756

ATOMIC_POSITIONS (crystal)
Li               0.1979227362        0.1979227362        0.1979227362
Li               0.8020772638        0.8020772638        0.8020772638
Li               0.2917257619        0.2917257619        0.2917257619
Li               0.7082742381        0.7082742381        0.7082742381
Li               0.3976945730        0.3976945730        0.3976945730
Li               0.6023054270        0.6023054270        0.6023054270
Li               0.5000000000        0.5000000000        0.5000000000
Li              -0.0000000000        0.0000000000       -0.0000000000
Si               0.0980361339        0.0980361339        0.0980361339
Si               0.9019638661        0.9019638661        0.9019638661



     Writing config-only to output data dir ./output/LiSi.save/ :
     XML data file
     NEW-OLD atomic charge density approx. for the potential

     total cpu time spent up to now is       70.5 secs

     per-process dynamical memory:    49.1 Mb

     Self-consistent Calculation

     iteration #  1     ecut=    80.00 Ry     beta= 0.70
     Davidson diagonalization with overlap
     ethr =  1.00E-06,  avg # of iterations =  7.0

     total cpu time spent up to now is       75.4 secs

     total energy              =    -131.85980532 Ry
     estimated scf accuracy    <       0.00301401 Ry

     iteration #  2     ecut=    80.00 Ry     beta= 0.70
     Davidson diagonalization with overlap
     ethr =  9.42E-06,  avg # of iterations =  5.6

     total cpu time spent up to now is       78.5 secs

     total energy              =    -131.85648285 Ry
     estimated scf accuracy    <       0.05049586 Ry

     iteration #  3     ecut=    80.00 Ry     beta= 0.70
     Davidson diagonalization with overlap
     ethr =  9.42E-06,  avg # of iterations =  4.2

     total cpu time spent up to now is       81.4 secs

     total energy              =    -131.86185909 Ry
     estimated scf accuracy    <       0.00001544 Ry

     iteration #  4     ecut=    80.00 Ry     beta= 0.70
     Davidson diagonalization with overlap
     ethr =  4.82E-08,  avg # of iterations =  4.1

     total cpu time spent up to now is       84.2 secs

     total energy              =    -131.86186960 Ry
     estimated scf accuracy    <       0.00000755 Ry

     iteration #  5     ecut=    80.00 Ry     beta= 0.70
     Davidson diagonalization with overlap
     ethr =  2.36E-08,  avg # of iterations =  2.0

     total cpu time spent up to now is       86.5 secs

     total energy              =    -131.86187033 Ry
     estimated scf accuracy    <       0.00000057 Ry

     iteration #  6     ecut=    80.00 Ry     beta= 0.70
     Davidson diagonalization with overlap
     ethr =  1.78E-09,  avg # of iterations =  2.2

     total cpu time spent up to now is       88.8 secs

     total energy              =    -131.86187042 Ry
     estimated scf accuracy    <       0.00000001 Ry

     iteration #  7     ecut=    80.00 Ry     beta= 0.70
     Davidson diagonalization with overlap
     ethr =  4.39E-11,  avg # of iterations =  3.7

     total cpu time spent up to now is       91.3 secs

     total energy              =    -131.86187042 Ry
     estimated scf accuracy    <          2.6E-09 Ry

     iteration #  8     ecut=    80.00 Ry     beta= 0.70
     Davidson diagonalization with overlap
     ethr =  8.27E-12,  avg # of iterations =  2.1

     total cpu time spent up to now is       93.8 secs

     End of self-consistent calculation

          k = 0.0000 0.0000 0.0000 (  6959 PWs)   bands (ev):

   -38.4153 -38.3203 -38.3173 -37.8484 -37.8451 -37.8114 -37.7729 -37.7414
    -1.7169  -1.1382   3.0530   6.4074   7.1158   8.0071   8.0071   8.2357
     8.2357  10.2612  10.2612  10.2855

          k =-0.3040-0.1755 0.0504 (  6970 PWs)   bands (ev):

   -38.4012 -38.3170 -38.3088 -37.8540 -37.8501 -37.8169 -37.7775 -37.7449
    -1.5723  -0.9930   3.2005   6.2223   6.3804   6.8665   7.1314   7.3369
     7.5995  10.5762  11.1533  11.2711

          k =-0.6080-0.3510 0.1009 (  6962 PWs)   bands (ev):

   -38.3661 -38.3054 -38.2950 -37.8707 -37.8574 -37.8307 -37.7874 -37.7537
    -1.1692  -0.6177   3.6345   4.4176   5.2912   5.8411   6.3156   6.5146
     7.0720  10.3632  11.2724  11.4498

          k =-0.9120-0.5265 0.1513 (  6977 PWs)   bands (ev):

   -38.3299 -38.2993 -38.2859 -37.8873 -37.8582 -37.8457 -37.7951 -37.7620
    -0.6778  -0.2745   3.2788   4.0122   4.3140   5.3176   5.6654   5.9277
     7.1038   9.4805  10.9125  11.1723

          k =-0.3040 0.1755 0.1009 (  6954 PWs)   bands (ev):

   -38.4005 -38.3221 -38.3044 -37.8539 -37.8498 -37.8171 -37.7776 -37.7448
    -1.5716  -0.9951   3.2311   6.0529   6.4164   6.7237   7.0092   7.5574
     7.8819  10.4568  11.2645  11.5140

          k =-0.6080 0.0000 0.1513 (  6969 PWs)   bands (ev):

   -38.3753 -38.3146 -38.2939 -37.8626 -37.8581 -37.8271 -37.7845 -37.7515
    -1.2944  -0.7344   3.5516   5.1727   5.4220   5.8824   6.1699   6.6255
     7.5737  10.5528  11.1308  11.6864

          k =-0.9120-0.1755 0.2018 (  6965 PWs)   bands (ev):

   -38.3391 -38.3016 -38.2866 -37.8778 -37.8627 -37.8429 -37.7914 -37.7621
    -0.8187  -0.3557   3.7513   4.0851   4.5625   5.1332   5.4856   6.0754
     6.7961   9.4041  11.5130  11.5995

          k = 0.9120 0.8775-0.1009 (  6960 PWs)   bands (ev):

   -38.3173 -38.2996 -38.2841 -37.8860 -37.8596 -37.8546 -37.7936 -37.7679
    -0.4867  -0.1973   3.2178   3.9149   4.6263   4.7329   5.3157   5.5321
     6.9636   8.7109  11.2612  11.6197

          k = 0.6080 0.7020-0.0504 (  6970 PWs)   bands (ev):

   -38.3407 -38.2981 -38.2883 -37.8776 -37.8645 -37.8417 -37.7913 -37.7620
    -0.8230  -0.3475   3.8153   4.0346   4.4292   5.0585   5.5740   6.0930
     7.1021   9.3851  11.0063  11.3503

          k = 0.3040 0.5265 0.0000 (  6964 PWs)   bands (ev):

   -38.3771 -38.3051 -38.3014 -37.8628 -37.8590 -37.8264 -37.7843 -37.7515
    -1.2969  -0.7281   3.4713   5.2852   5.3195   6.0902   6.3172   6.6221
     7.2125  10.8559  11.0621  11.6799

          k =-0.6080 0.3510 0.2018 (  6965 PWs)   bands (ev):

   -38.3632 -38.3153 -38.2882 -37.8694 -37.8579 -37.8310 -37.7878 -37.7537
    -1.1649  -0.6278   3.7522   4.6214   5.0521   5.5772   5.6105   7.1146
     8.0558   9.9116  10.0049  10.8128

          k =-0.9120 0.1755 0.2522 (  6965 PWs)   bands (ev):

   -38.3367 -38.3068 -38.2840 -37.8756 -37.8648 -37.8425 -37.7917 -37.7620
    -0.8138  -0.3648   3.8583   4.2010   4.3993   4.8247   5.5484   6.1437
     7.3858   8.6198  11.0614  11.2635

          k = 0.9120 1.2286-0.0504 (  6957 PWs)   bands (ev):

   -38.3112 -38.2985 -38.2853 -37.8754 -37.8693 -37.8591 -37.7886 -37.7749
    -0.3908  -0.1801   3.5474   3.8283   4.2189   4.7381   5.0265   5.6762
     6.7725   7.6328  11.6078  12.5756

          k = 0.6080 1.0531 0.0000 (  6968 PWs)   bands (ev):

   -38.3132 -38.2976 -38.2840 -37.8741 -37.8727 -37.8574 -37.7885 -37.7748
    -0.4030  -0.1642   3.5138   3.9463   4.3582   4.5244   4.7702   5.7689
     6.8690   7.9779  11.6764  11.9374

          k =-0.9120 0.5265 0.3026 (  6975 PWs)   bands (ev):

   -38.3243 -38.3073 -38.2840 -37.8841 -37.8616 -37.8445 -37.7959 -37.7618
    -0.6637  -0.2979   3.4129   3.7357   4.6981   4.9848   5.4234   6.7341
     6.8765   9.0748  10.2127  10.5972

          k = 0.9120 1.5796 0.0000 (  6970 PWs)   bands (ev):

   -38.3127 -38.3028 -38.2857 -37.8828 -37.8643 -37.8523 -37.7942 -37.7678
    -0.4676  -0.2237   3.3886   3.6073   4.4433   4.9534   5.5637   5.9508
     6.5694   8.0107  11.1219  11.7888

          k =-0.0000-0.0000 0.1513 (  6971 PWs)   bands (ev):

   -38.4131 -38.3341 -38.3057 -37.8481 -37.8442 -37.8123 -37.7733 -37.7412
    -1.7153  -1.1436   3.1390   5.7942   7.8161   7.9082   7.9082   8.3626
     8.3626  10.0107  10.0107  10.6116

          k =-0.3040-0.1755 0.2018 (  6969 PWs)   bands (ev):

   -38.3979 -38.3312 -38.2981 -37.8535 -37.8487 -37.8183 -37.7780 -37.7447
    -1.5692  -1.0020   3.3391   5.6062   6.2310   6.9227   7.3243   7.5118
     8.0612  10.7012  11.0096  11.0898

          k =-0.6080-0.3510 0.2522 (  6965 PWs)   bands (ev):

   -38.3628 -38.3153 -38.2887 -37.8701 -37.8557 -37.8323 -37.7878 -37.7537
    -1.1640  -0.6300   3.7965   4.3381   5.3494   5.8376   5.9429   6.5209
     7.1501  10.6172  11.3036  11.3805

          k = 1.2160 0.7020-0.0504 (  6974 PWs)   bands (ev):

   -38.3281 -38.3015 -38.2858 -37.8867 -37.8572 -37.8468 -37.7953 -37.7620
    -0.6718  -0.2846   3.2520   4.0211   4.4433   5.2445   5.7324   6.0495
     6.6456   9.9326  10.5527  10.9198

          k = 0.9120 0.5265 0.0000 (  6987 PWs)   bands (ev):

   -38.3297 -38.3003 -38.2852 -37.8867 -37.8599 -37.8446 -37.7953 -37.7619
    -0.6777  -0.2746   3.3371   3.9304   4.2893   5.1941   5.6422   6.1450
     7.3292   9.3720  10.2703  10.7858

          k = 0.6080 0.3510 0.0504 (  6967 PWs)   bands (ev):

   -38.3663 -38.3056 -38.2946 -37.8704 -37.8583 -37.8302 -37.7874 -37.7537
    -1.1695  -0.6168   3.6208   4.5314   5.1411   5.6963   6.0943   6.7901
     7.5473  10.1674  10.5762  10.9683

          k =-0.3040 0.1755 0.2522 (  6965 PWs)   bands (ev):

   -38.3959 -38.3364 -38.2949 -37.8533 -37.8479 -37.8189 -37.7783 -37.7446
    -1.5676  -1.0067   3.4290   5.3385   6.4160   6.6277   6.9952   8.1475
     8.3993  10.3919  10.9396  11.4297

          k =-0.6080 0.0000 0.3026 (  6976 PWs)   bands (ev):

   -38.3705 -38.3261 -38.2876 -37.8622 -37.8558 -37.8289 -37.7851 -37.7514
    -1.2887  -0.7488   3.7854   5.0310   5.3662   5.4827   6.1239   6.7418
     8.0531  10.0995  11.1775  11.7652

          k = 1.2160 1.0531 0.0000 (  6976 PWs)   bands (ev):

   -38.3356 -38.3078 -38.2842 -37.8771 -37.8611 -37.8445 -37.7917 -37.7622
    -0.8110  -0.3702   3.7164   4.2318   4.6350   5.0187   5.5843   5.8810
     6.7573   9.0670  11.7681  12.0900

          k = 0.9120 0.8775 0.0504 (  6962 PWs)   bands (ev):

   -38.3159 -38.3004 -38.2847 -37.8849 -37.8615 -37.8536 -37.7938 -37.7679
    -0.4803  -0.2063   3.2558   3.8321   4.5845   4.7092   5.5521   5.6104
     6.7829   8.4864  11.2607  11.5328

          k = 0.6080 0.7020 0.1009 (  6985 PWs)   bands (ev):

   -38.3398 -38.3009 -38.2864 -37.8766 -37.8654 -37.8416 -37.7914 -37.7620
    -0.8209  -0.3515   3.8536   4.1592   4.2784   4.9080   5.7242   6.0387
     7.3390   9.0452  10.8332  11.1934

          k =-0.6080 0.3510 0.3531 (  6977 PWs)   bands (ev):

   -38.3580 -38.3248 -38.2842 -37.8685 -37.8562 -37.8328 -37.7883 -37.7537
    -1.1584  -0.6427   3.9941   4.6037   5.0955   5.1525   5.5338   7.2768
     8.1354   9.6324  10.1338  10.8493

          k = 1.2160 1.4041 0.0504 (  6961 PWs)   bands (ev):

   -38.3328 -38.3122 -38.2827 -37.8755 -37.8628 -37.8441 -37.7920 -37.7622
    -0.8068  -0.3777   3.7982   4.2478   4.6587   4.8558   5.2703   6.1440
     7.2791   8.4136  11.4754  11.5158

          k = 0.9120 1.2286 0.1009 (  6963 PWs)   bands (ev):

   -38.3098 -38.2993 -38.2860 -37.8757 -37.8673 -37.8606 -37.7886 -37.7750
    -0.3832  -0.1898   3.5999   3.7118   4.2443   4.7718   5.1959   5.5944
     6.8012   7.3630  11.9527  12.6955

          k = 0.6080 1.0531 0.1513 (  6965 PWs)   bands (ev):

   -38.3126 -38.2978 -38.2844 -37.8748 -37.8714 -37.8579 -37.7886 -37.7748
    -0.3994  -0.1689   3.5214   3.9185   4.2739   4.6045   4.8726   5.7347
     6.8335   7.8806  11.5555  12.0677

          k = 1.2160-0.7020-0.2522 (  6984 PWs)   bands (ev):

   -38.3227 -38.3087 -38.2843 -37.8841 -37.8602 -37.8456 -37.7960 -37.7619
    -0.6600  -0.3038   3.3361   3.8295   4.7981   4.9987   5.4520   6.5449
     6.6781   9.1656  10.5458  10.7179

          k = 0.9120-0.8775-0.2018 (  6972 PWs)   bands (ev):

   -38.3139 -38.3019 -38.2854 -37.8835 -37.8634 -37.8527 -37.7941 -37.7678
    -0.4717  -0.2182   3.3291   3.6955   4.4813   4.8525   5.6139   5.8261
     6.6156   8.1669  11.2388  11.5736

          k = 0.9120-0.5265-0.1513 (  6965 PWs)   bands (ev):

   -38.3275 -38.3035 -38.2843 -37.8853 -37.8614 -37.8441 -37.7956 -37.7618
    -0.6716  -0.2849   3.4041   3.7889   4.4445   5.0553   5.5683   6.4847
     7.1863   9.5109   9.7147  10.6315

          k =-0.0000-0.0000 0.3026 (  6967 PWs)   bands (ev):

   -38.4072 -38.3496 -38.2964 -37.8473 -37.8419 -37.8146 -37.7742 -37.7408
    -1.7115  -1.1557   3.3924   5.0252   7.7918   7.7918   8.5377   8.5377
     8.8352   9.8865   9.8865  10.8769

          k =-0.3040-0.1755 0.3531 (  6978 PWs)   bands (ev):

   -38.3917 -38.3449 -38.2909 -37.8527 -37.8463 -37.8205 -37.7788 -37.7444
    -1.5646  -1.0154   3.6381   4.9018   6.1872   6.8003   7.4231   7.7243
     8.8274  10.7087  10.9250  11.0456

          k = 1.5200 0.8775 0.0504 (  6976 PWs)   bands (ev):

   -38.3576 -38.3251 -38.2845 -37.8691 -37.8542 -37.8340 -37.7883 -37.7537
    -1.1577  -0.6444   4.0904   4.2944   5.1384   5.5675   5.6918   6.8019
     7.4564  10.5274  10.7185  11.1315

          k = 1.2160 0.7020 0.1009 (  6986 PWs)   bands (ev):

   -38.3250 -38.3056 -38.2850 -37.8853 -37.8581 -37.8467 -37.7957 -37.7620
    -0.6638  -0.2977   3.2707   3.9538   4.6245   5.0947   5.7272   6.3556
     6.3738   9.7278  10.4201  10.8325

          k =-0.3040 0.1755 0.4035 (  6981 PWs)   bands (ev):

   -38.3894 -38.3489 -38.2893 -37.8526 -37.8456 -37.8211 -37.7790 -37.7444
    -1.5632  -1.0192   3.7825   4.6641   6.3071   6.6092   7.1717   8.2151
     9.1257  10.4321  10.7670  11.2797

          k = 1.5200 1.2286 0.1009 (  6980 PWs)   bands (ev):

   -38.3651 -38.3351 -38.2843 -37.8619 -37.8537 -37.8306 -37.7855 -37.7514
    -1.2839  -0.7604   4.1468   4.6515   5.1683   5.4306   6.2218   6.7576
     8.4183   9.6642  11.5368  11.8084

          k = 1.2160 1.0531 0.1513 (  6967 PWs)   bands (ev):

   -38.3321 -38.3128 -38.2828 -37.8762 -37.8610 -37.8451 -37.7919 -37.7622
    -0.8055  -0.3802   3.7354   4.3050   4.7445   4.8762   5.3544   5.9687
     7.0045   8.6348  11.7120  11.9151

          k = 1.5200-0.8775-0.2018 (  6964 PWs)   bands (ev):

   -38.3545 -38.3298 -38.2830 -37.8684 -37.8543 -37.8343 -37.7886 -37.7537
    -1.1551  -0.6501   4.2199   4.4550   4.8488   5.3477   5.5747   7.1249
     7.8313   9.8840  10.5047  10.9581

          k = 0.0000 0.0000 0.4540 (  6988 PWs)   bands (ev):

   -38.4007 -38.3612 -38.2915 -37.8467 -37.8398 -37.8167 -37.7749 -37.7405
    -1.7083  -1.1654   3.8006   4.3529   7.7289   7.7289   8.6396   8.6396
     9.8449   9.8879   9.8879  10.9013

          k = 1.8240 1.0531 0.1513 (  6979 PWs)   bands (ev):

   -38.3867 -38.3530 -38.2880 -37.8524 -37.8447 -37.8220 -37.7793 -37.7443
    -1.5618  -1.0231   4.0721   4.2970   6.2164   6.6716   7.3551   8.0233
     9.3037  10.6097  10.8598  10.9841

     the Fermi energy is     6.9769 ev

!    total energy              =    -131.86187042 Ry
     estimated scf accuracy    <          1.8E-11 Ry
     smearing contrib. (-TS)   =       0.00022120 Ry
     internal energy E=F+TS    =    -131.86209162 Ry

     The total energy is F=E-TS. E is the sum of the following terms:
     one-electron contribution =     -43.75529313 Ry
     hartree contribution      =      23.18277929 Ry
     xc contribution           =     -34.61786165 Ry
     ewald contribution        =     -76.67171613 Ry

     convergence has been achieved in   8 iterations

     Forces acting on atoms (cartesian axes, Ry/au):

     atom    1 type  1   force =    -0.00000000    0.00000000    0.00211490
     atom    2 type  1   force =     0.00000000   -0.00000000   -0.00211490
     atom    3 type  1   force =     0.00000000   -0.00000000    0.00750237
     atom    4 type  1   force =     0.00000000    0.00000000   -0.00750237
     atom    5 type  1   force =    -0.00000000   -0.00000000    0.00306758
     atom    6 type  1   force =    -0.00000000    0.00000000   -0.00306758
     atom    7 type  1   force =     0.00000000    0.00000000    0.00000000
     atom    8 type  1   force =     0.00000000   -0.00000000   -0.00000000
     atom    9 type  2   force =    -0.00000000   -0.00000000   -0.00378289
     atom   10 type  2   force =     0.00000000   -0.00000000    0.00378289

     Total force =     0.012998     Total SCF correction =     0.000010


     Computing stress (Cartesian axis) and pressure

          total   stress  (Ry/bohr**3)                   (kbar)     P=      497.65
   0.00335948  -0.00000000   0.00000000          494.20       -0.00        0.00
  -0.00000000   0.00335948   0.00000000           -0.00      494.20        0.00
   0.00000000   0.00000000   0.00342991            0.00        0.00      504.56

     Energy error            =      1.8E-03 Ry
     Gradient error          =      7.5E-03 Ry/Bohr
     Cell gradient error     =      5.8E+00 kbar

     number of scf cycles    =   4
     number of bfgs steps    =   3

     enthalpy           old  =    -129.8854369512 Ry
     enthalpy           new  =    -129.8872531229 Ry

     CASE: enthalpy          _new < enthalpy          _old

     new trust radius        =       0.0166565007 bohr
ibrav =      5
 celldm(1) =     14.48850248
 celldm(4) =      0.88530782
Input lattice vectors:
     0.23501755    -0.13568745     0.94313944
    -0.00000000     0.27137489     0.94313944
    -0.23501755    -0.13568745     0.94313944
New lattice vectors in INITIAL alat:
     0.23501755    -0.13568745     0.94313944
     0.00000000     0.27137489     0.94313944
    -0.23501755    -0.13568745     0.94313944
New lattice vectors in NEW alat (for information only):
     0.23947044    -0.13825832     0.96100913
     0.00000000     0.27651664     0.96100913
    -0.23947044    -0.13825832     0.96100913
Discrepancy in bohr =     0.000000    0.000000    0.000000
     new conv_thr            =       0.0000000004 Ry

     new unit-cell volume =    580.62061 a.u.^3 (    86.03910 Ang^3 )
     density =      2.15577 g/cm^3

CELL_PARAMETERS (alat= 14.76301660)
   0.235017552  -0.135687447   0.943139437
   0.000000000   0.271374893   0.943139437
  -0.235017552  -0.135687447   0.943139437

ATOMIC_POSITIONS (crystal)
Li               0.1978893458        0.1978893458        0.1978893458
Li               0.8021106542        0.8021106542        0.8021106542
Li               0.2921241280        0.2921241280        0.2921241280
Li               0.7078758720        0.7078758720        0.7078758720
Li               0.3977686175        0.3977686175        0.3977686175
Li               0.6022313825        0.6022313825        0.6022313825
Li               0.5000000000        0.5000000000        0.5000000000
Li              -0.0000000000        0.0000000000       -0.0000000000
Si               0.0976839128        0.0976839128        0.0976839128
Si               0.9023160872        0.9023160872        0.9023160872



     Writing config-only to output data dir ./output/LiSi.save/ :
     XML data file
[...]
        k(   41) = (   1.2168448   1.0538185   0.1513859), wk =   0.0699708
        k(   42) = (   1.5210559  -0.8781821  -0.2018479), wk =   0.0349854
        k(   43) = (   0.0000000   0.0000000   0.4541578), wk =   0.0116618
        k(   44) = (   1.8252671   1.0538185   0.1513859), wk =   0.0349854

     Dense  grid:    56107 G-vectors     FFT dimensions: (  90,  90,  90)

     Estimated max dynamical RAM per process >      23.75 MB

     Estimated total dynamical RAM >     380.00 MB

     Initial potential from superposition of free atoms

     starting charge      31.9623, renormalised to      32.0000
     Starting wfcs are   24 randomized atomic wfcs

     total cpu time spent up to now is      259.9 secs

     per-process dynamical memory:    49.3 Mb

     Self-consistent Calculation

     iteration #  1     ecut=    80.00 Ry     beta= 0.70
     Davidson diagonalization with overlap
     c_bands:  1 eigenvalues not converged
     c_bands:  1 eigenvalues not converged
     c_bands:  1 eigenvalues not converged
     c_bands:  2 eigenvalues not converged
     c_bands:  1 eigenvalues not converged
     c_bands:  1 eigenvalues not converged
     c_bands:  1 eigenvalues not converged
     c_bands:  1 eigenvalues not converged
     c_bands:  1 eigenvalues not converged
     c_bands:  2 eigenvalues not converged
     c_bands:  2 eigenvalues not converged
     c_bands:  2 eigenvalues not converged
     c_bands:  1 eigenvalues not converged
     c_bands:  1 eigenvalues not converged
     c_bands:  1 eigenvalues not converged
     c_bands:  2 eigenvalues not converged
     c_bands:  1 eigenvalues not converged
     c_bands:  2 eigenvalues not converged
     c_bands:  1 eigenvalues not converged
     ethr =  1.00E-06,  avg # of iterations = 18.1

     total cpu time spent up to now is      268.0 secs

     total energy              =    -131.82395100 Ry
     estimated scf accuracy    <       0.10197896 Ry

     iteration #  2     ecut=    80.00 Ry     beta= 0.70
     Davidson diagonalization with overlap
     ethr =  3.19E-04,  avg # of iterations =  3.0

     total cpu time spent up to now is      270.8 secs

     total energy              =    -131.78341253 Ry
     estimated scf accuracy    <       0.38350157 Ry

     iteration #  3     ecut=    80.00 Ry     beta= 0.70
     Davidson diagonalization with overlap
     ethr =  3.19E-04,  avg # of iterations =  2.8

     total cpu time spent up to now is      273.5 secs

     total energy              =    -131.84717293 Ry
     estimated scf accuracy    <       0.09409891 Ry

     iteration #  4     ecut=    80.00 Ry     beta= 0.70
     Davidson diagonalization with overlap
     ethr =  2.94E-04,  avg # of iterations =  2.0

     total cpu time spent up to now is      275.7 secs

     total energy              =    -131.85896999 Ry
     estimated scf accuracy    <       0.00049190 Ry

     iteration #  5     ecut=    80.00 Ry     beta= 0.70
     Davidson diagonalization with overlap
     ethr =  1.54E-06,  avg # of iterations =  4.9

     total cpu time spent up to now is      278.7 secs

     total energy              =    -131.85911797 Ry
     estimated scf accuracy    <       0.00009047 Ry

     iteration #  6     ecut=    80.00 Ry     beta= 0.70
     Davidson diagonalization with overlap
     ethr =  2.83E-07,  avg # of iterations =  2.0

     total cpu time spent up to now is      281.0 secs

     total energy              =    -131.85912472 Ry
     estimated scf accuracy    <       0.00000418 Ry

     iteration #  7     ecut=    80.00 Ry     beta= 0.70
     Davidson diagonalization with overlap
     ethr =  1.31E-08,  avg # of iterations =  3.2

     total cpu time spent up to now is      283.6 secs

     total energy              =    -131.85912596 Ry
     estimated scf accuracy    <       0.00000094 Ry

     iteration #  8     ecut=    80.00 Ry     beta= 0.70
     Davidson diagonalization with overlap
     ethr =  2.93E-09,  avg # of iterations =  2.0

     total cpu time spent up to now is      285.9 secs

     total energy              =    -131.85912608 Ry
     estimated scf accuracy    <          9.0E-09 Ry

     iteration #  9     ecut=    80.00 Ry     beta= 0.70
     Davidson diagonalization with overlap
     ethr =  2.81E-11,  avg # of iterations =  4.1

     total cpu time spent up to now is      288.8 secs

     total energy              =    -131.85912608 Ry
     estimated scf accuracy    <          4.6E-09 Ry

     iteration # 10     ecut=    80.00 Ry     beta= 0.70
     Davidson diagonalization with overlap
     ethr =  1.45E-11,  avg # of iterations =  2.3

     total cpu time spent up to now is      291.1 secs

     End of self-consistent calculation

          k = 0.0000 0.0000 0.0000 (  6987 PWs)   bands (ev):

   -38.3973 -38.3150 -38.2869 -37.8519 -37.8022 -37.7697 -37.7436 -37.7081
    -1.6918  -1.1158   3.0524   6.3565   7.2141   8.0580   8.0580   8.2410
     8.2410  10.2931  10.2932  10.3037

          k =-0.3042-0.1756 0.0505 (  6980 PWs)   bands (ev):

   -38.3833 -38.3086 -38.2828 -37.8575 -37.8061 -37.7751 -37.7477 -37.7119
    -1.5479  -0.9713   3.2001   6.2053   6.4016   6.9012   7.1775   7.3900
     7.6145  10.5973  11.1818  11.2953

          k =-0.6084-0.3513 0.1009 (  7009 PWs)   bands (ev):

   -38.3485 -38.2933 -38.2759 -37.8714 -37.8136 -37.7885 -37.7564 -37.7214
    -1.1468  -0.5975   3.6354   4.4392   5.3210   5.8756   6.2965   6.5266
     7.1388  10.3602  11.2435  11.5325

          k =-0.9126-0.5269 0.1514 (  7015 PWs)   bands (ev):

   -38.3128 -38.2800 -38.2766 -37.8848 -37.8163 -37.8025 -37.7624 -37.7304
    -0.6585  -0.2536   3.2968   4.0443   4.3146   5.3527   5.6540   5.9374
     7.1850   9.4069  10.8882  11.2234

          k =-0.3042 0.1756 0.1009 (  6985 PWs)   bands (ev):

   -38.3826 -38.3112 -38.2811 -37.8574 -37.8056 -37.7754 -37.7478 -37.7119
    -1.5473  -0.9734   3.2306   6.0386   6.4524   6.7539   7.0257   7.6250
     7.9029  10.4797  11.2801  11.5441

          k =-0.6084 0.0000 0.1514 (  6997 PWs)   bands (ev):

   -38.3575 -38.3018 -38.2746 -37.8668 -37.8114 -37.7851 -37.7539 -37.7189
    -1.2715  -0.7139   3.5518   5.1931   5.4592   5.8922   6.1829   6.6391
     7.6269  10.5735  11.0977  11.6647

          k =-0.9126-0.1756 0.2018 (  7015 PWs)   bands (ev):

   -38.3217 -38.2868 -38.2722 -37.8797 -37.8172 -37.7994 -37.7594 -37.7302
    -0.7978  -0.3356   3.7717   4.0956   4.5894   5.1537   5.4999   6.0723
     6.8376   9.3786  11.4875  11.6182

          k = 0.9126 0.8782-0.1009 (  7028 PWs)   bands (ev):

   -38.3005 -38.2787 -38.2766 -37.8863 -37.8181 -37.8076 -37.7607 -37.7363
    -0.4681  -0.1756   3.2387   3.9417   4.6366   4.7590   5.3258   5.5247
     7.0232   8.6517  11.2715  11.6019

          k = 0.6084 0.7025-0.0505 (  7013 PWs)   bands (ev):

   -38.3234 -38.2828 -38.2743 -37.8797 -37.8187 -37.7982 -37.7595 -37.7299
    -0.8021  -0.3273   3.8403   4.0393   4.4523   5.0819   5.5910   6.0909
     7.1494   9.3521  11.0206  11.3053

          k = 0.3042 0.5269 0.0000 (  6996 PWs)   bands (ev):

   -38.3594 -38.2963 -38.2781 -37.8669 -37.8125 -37.7841 -37.7538 -37.7188
    -1.2739  -0.7076   3.4718   5.3082   5.3523   6.1037   6.3317   6.6105
     7.2873  10.8638  11.0680  11.6164

          k =-0.6084 0.3513 0.2018 (  7022 PWs)   bands (ev):

   -38.3453 -38.3016 -38.2709 -37.8713 -37.8122 -37.7895 -37.7567 -37.7214
    -1.1426  -0.6077   3.7539   4.6508   5.0676   5.6041   5.6142   7.1382
     8.1430   9.9208   9.9365  10.7930

          k =-0.9126 0.1756 0.2523 (  7006 PWs)   bands (ev):

   -38.3187 -38.2927 -38.2694 -37.8795 -37.8162 -37.8001 -37.7599 -37.7300
    -0.7929  -0.3450   3.8799   4.2265   4.4096   4.8351   5.5697   6.1518
     7.4377   8.5876  11.0584  11.2392

          k = 0.9126 1.2295-0.0505 (  7000 PWs)   bands (ev):

   -38.2932 -38.2819 -38.2750 -37.8850 -37.8189 -37.8112 -37.7563 -37.7429
    -0.3705  -0.1597   3.5880   3.8442   4.2175   4.7736   5.0312   5.6893
     6.7770   7.6078  11.6036  12.5713

          k = 0.6084 1.0538 0.0000 (  7014 PWs)   bands (ev):

   -38.2963 -38.2778 -38.2758 -37.8850 -37.8214 -37.8092 -37.7563 -37.7426
    -0.3832  -0.1432   3.5591   3.9395   4.3695   4.5690   4.7657   5.7910
     6.8632   7.9581  11.6268  11.8976

          k =-0.9126 0.5269 0.3028 (  7017 PWs)   bands (ev):

   -38.3052 -38.2934 -38.2711 -37.8842 -37.8135 -37.8046 -37.7635 -37.7302
    -0.6442  -0.2776   3.4367   3.7533   4.7050   5.0102   5.4283   6.7598
     6.9168   9.0813  10.1622  10.5791

          k = 0.9126 1.5807 0.0000 (  7008 PWs)   bands (ev):

   -38.2918 -38.2897 -38.2746 -37.8859 -37.8133 -37.8117 -37.7617 -37.7361
    -0.4485  -0.2028   3.4165   3.6227   4.4636   4.9742   5.5638   5.9653
     6.5963   7.9915  11.0977  11.7957

          k =-0.0000 0.0000 0.1514 (  6969 PWs)   bands (ev):

   -38.3951 -38.3219 -38.2823 -37.8518 -37.8009 -37.7709 -37.7437 -37.7081
    -1.6903  -1.1211   3.1384   5.7855   7.8737   7.9488   7.9488   8.3766
     8.3766  10.0388  10.0388  10.6373

          k =-0.3042-0.1756 0.2018 (  6987 PWs)   bands (ev):

   -38.3800 -38.3179 -38.2770 -37.8573 -37.8041 -37.7768 -37.7478 -37.7119
    -1.5451  -0.9802   3.3382   5.6022   6.2645   6.9611   7.3562   7.5224
     8.1035  10.7204  11.0388  11.1104

          k =-0.6084-0.3513 0.2523 (  7001 PWs)   bands (ev):

   -38.3450 -38.3015 -38.2715 -37.8712 -37.8113 -37.7905 -37.7563 -37.7217
    -1.1418  -0.6097   3.7964   4.3574   5.3858   5.8721   5.9427   6.5328
     7.1852  10.6121  11.3201  11.5012

          k = 1.2168 0.7025-0.0505 (  7024 PWs)   bands (ev):

   -38.3107 -38.2843 -38.2745 -37.8847 -37.8144 -37.8042 -37.7624 -37.7306
    -0.6525  -0.2638   3.2699   4.0518   4.4451   5.2761   5.7174   6.0633
     6.7098   9.8793  10.5730  10.9035

          k = 0.9126 0.5269 0.0000 (  7027 PWs)   bands (ev):

   -38.3125 -38.2826 -38.2742 -37.8847 -37.8168 -37.8020 -37.7627 -37.7302
    -0.6584  -0.2538   3.3566   3.9574   4.2927   5.2238   5.6352   6.1611
     7.4178   9.2872  10.2871  10.7547

          k = 0.6084 0.3513 0.0505 (  7007 PWs)   bands (ev):

   -38.3486 -38.2935 -38.2755 -37.8714 -37.8140 -37.7881 -37.7565 -37.7213
    -1.1472  -0.5966   3.6223   4.5561   5.1644   5.7256   6.0866   6.8087
     7.6228  10.1413  10.5898  10.9176

          k =-0.3042 0.1756 0.2523 (  6985 PWs)   bands (ev):

   -38.3779 -38.3225 -38.2746 -37.8573 -37.8029 -37.7778 -37.7479 -37.7119
    -1.5435  -0.9849   3.4280   5.3393   6.4534   6.6564   7.0099   8.1716
     8.4596  10.4127  10.9473  11.4757

          k =-0.6084 0.0000 0.3028 (  7007 PWs)   bands (ev):

   -38.3525 -38.3122 -38.2697 -37.8667 -37.8083 -37.7876 -37.7539 -37.7192
    -1.2659  -0.7281   3.7845   5.0393   5.3989   5.5178   6.1317   6.7612
     8.0994  10.1058  11.1502  11.7754

          k = 1.2168 1.0538 0.0000 (  7003 PWs)   bands (ev):

   -38.3176 -38.2938 -38.2696 -37.8796 -37.8143 -37.8018 -37.7594 -37.7305
    -0.7901  -0.3503   3.7348   4.2508   4.6597   5.0333   5.5955   5.8891
     6.7889   9.0491  11.7516  12.1137

          k = 0.9126 0.8782 0.0505 (  7017 PWs)   bands (ev):

   -38.2987 -38.2819 -38.2754 -37.8861 -37.8170 -37.8085 -37.7610 -37.7362
    -0.4615  -0.1849   3.2776   3.8564   4.6044   4.7241   5.5680   5.6034
     6.8292   8.4489  11.2510  11.5127

          k = 0.6084 0.7025 0.1009 (  7012 PWs)   bands (ev):

   -38.3224 -38.2861 -38.2721 -37.8796 -37.8183 -37.7984 -37.7597 -37.7298
    -0.8000  -0.3314   3.8784   4.1643   4.3009   4.9268   5.7505   6.0359
     7.3898   9.0129  10.8379  11.1556

          k =-0.6084 0.3513 0.3532 (  7020 PWs)   bands (ev):

   -38.3396 -38.3111 -38.2675 -37.8711 -37.8090 -37.7922 -37.7567 -37.7217
    -1.1363  -0.6224   3.9955   4.6281   5.1102   5.1670   5.5601   7.3028
     8.2048   9.6394  10.0726  10.8512

          k = 1.2168 1.4051 0.0505 (  7005 PWs)   bands (ev):

   -38.3137 -38.2993 -38.2680 -37.8795 -37.8131 -37.8026 -37.7598 -37.7304
    -0.7859  -0.3580   3.8170   4.2801   4.6773   4.8505   5.2918   6.1564
     7.3261   8.3836  11.4519  11.5228

          k = 0.9126 1.2295 0.1009 (  7000 PWs)   bands (ev):

   -38.2901 -38.2853 -38.2749 -37.8851 -37.8163 -37.8136 -37.7562 -37.7430
    -0.3626  -0.1698   3.6404   3.7317   4.2382   4.8096   5.2023   5.6022
     6.8180   7.3290  11.9334  12.7175

          k = 0.6084 1.0538 0.1514 (  7013 PWs)   bands (ev):

   -38.2955 -38.2791 -38.2754 -37.8850 -37.8207 -37.8097 -37.7563 -37.7427
    -0.3795  -0.1481   3.5654   3.9192   4.2837   4.6379   4.8763   5.7539
     6.8308   7.8592  11.5361  12.0744

          k = 1.2168-0.7025-0.2523 (  7018 PWs)   bands (ev):

   -38.3025 -38.2960 -38.2713 -37.8842 -37.8108 -37.8073 -37.7633 -37.7304
    -0.6406  -0.2834   3.3570   3.8513   4.8014   5.0244   5.4602   6.5774
     6.7028   9.1732  10.4905  10.7134

          k = 0.9126-0.8782-0.2018 (  7015 PWs)   bands (ev):

   -38.2953 -38.2860 -38.2748 -37.8859 -37.8150 -37.8102 -37.7615 -37.7361
    -0.4527  -0.1971   3.3533   3.7154   4.5017   4.8698   5.6138   5.8401
     6.6479   8.1441  11.2070  11.5831

          k = 0.9126-0.5269-0.1514 (  7017 PWs)   bands (ev):

   -38.3098 -38.2877 -38.2720 -37.8844 -37.8158 -37.8027 -37.7632 -37.7301
    -0.6522  -0.2643   3.4266   3.8084   4.4518   5.0818   5.5669   6.5064
     7.2494   9.5214   9.6502  10.6033

          k =-0.0000 0.0000 0.3028 (  6982 PWs)   bands (ev):

   -38.3892 -38.3349 -38.2754 -37.8516 -37.7976 -37.7740 -37.7439 -37.7080
    -1.6868  -1.1329   3.3911   5.0269   7.8294   7.8294   8.5503   8.5503
     8.8875   9.9219   9.9219  10.9049

          k =-0.3042-0.1756 0.3532 (  6987 PWs)   bands (ev):

   -38.3736 -38.3303 -38.2714 -37.8571 -37.8005 -37.7801 -37.7480 -37.7120
    -1.5407  -0.9933   3.6356   4.9064   6.2187   6.8334   7.4525   7.7403
     8.8678  10.7435  10.9544  11.0485

          k = 1.5211 0.8782 0.0505 (  7012 PWs)   bands (ev):

   -38.3393 -38.3112 -38.2678 -37.8710 -37.8080 -37.7933 -37.7564 -37.7219
    -1.1356  -0.6241   4.0883   4.3098   5.1767   5.5763   5.7211   6.8202
     7.4852  10.5417  10.7050  11.1472

          k = 1.2168 0.7025 0.1009 (  7007 PWs)   bands (ev):

   -38.3067 -38.2905 -38.2725 -37.8844 -37.8115 -37.8067 -37.7628 -37.7306
    -0.6444  -0.2771   3.2896   3.9804   4.6273   5.1220   5.7194   6.3937
     6.4040   9.7402  10.3726  10.8208

          k =-0.3042 0.1756 0.4037 (  6995 PWs)   bands (ev):

   -38.3712 -38.3342 -38.2700 -37.8571 -37.7993 -37.7812 -37.7481 -37.7120
    -1.5394  -0.9971   3.7785   4.6714   6.3407   6.6379   7.1919   8.2388
     9.1904  10.4484  10.7823  11.2733

          k = 1.5211 1.2295 0.1009 (  6996 PWs)   bands (ev):

   -38.3465 -38.3212 -38.2669 -37.8665 -37.8052 -37.7904 -37.7540 -37.7194
    -1.2612  -0.7397   4.1396   4.6601   5.2021   5.4706   6.2311   6.7768
     8.4734   9.6472  11.5274  11.8261

          k = 1.2168 1.0538 0.1514 (  6995 PWs)   bands (ev):

   -38.3128 -38.3002 -38.2681 -37.8795 -37.8118 -37.8039 -37.7595 -37.7306
    -0.7845  -0.3604   3.7535   4.3373   4.7555   4.8893   5.3643   5.9831
     7.0381   8.6154  11.6968  11.9271

          k = 1.5211-0.8782-0.2018 (  7021 PWs)   bands (ev):

   -38.3355 -38.3165 -38.2664 -37.8709 -37.8066 -37.7944 -37.7566 -37.7219
    -1.1331  -0.6298   4.2256   4.4519   4.8906   5.3617   5.6017   7.1482
     7.8718   9.8937  10.4740  10.9704

          k = 0.0000 0.0000 0.4542 (  6940 PWs)   bands (ev):

   -38.3826 -38.3459 -38.2713 -37.8515 -37.7940 -37.7773 -37.7441 -37.7080
    -1.6839  -1.1424   3.7948   4.3612   7.7660   7.7660   8.6484   8.6484
     9.9022   9.9323   9.9323  10.9261

          k = 1.8253 1.0538 0.1514 (  6996 PWs)   bands (ev):

   -38.3683 -38.3383 -38.2688 -37.8570 -37.7978 -37.7825 -37.7481 -37.7120
    -1.5381  -1.0009   4.0521   4.3207   6.2480   6.7015   7.3806   8.0438
     9.3556  10.6393  10.8858  10.9870

     the Fermi energy is     7.0072 ev

!    total energy              =    -131.85912608 Ry
     estimated scf accuracy    <          2.3E-11 Ry
     smearing contrib. (-TS)   =       0.00042344 Ry
     internal energy E=F+TS    =    -131.85954952 Ry

     The total energy is F=E-TS. E is the sum of the following terms:
     one-electron contribution =     -43.57700293 Ry
     hartree contribution      =      23.12056557 Ry
     xc contribution           =     -34.62096158 Ry
     ewald contribution        =     -76.78215057 Ry

     convergence has been achieved in  10 iterations

     Forces acting on atoms (cartesian axes, Ry/au):

     atom    1 type  1   force =     0.00000000   -0.00000000    0.00033764
     atom    2 type  1   force =     0.00000000   -0.00000000   -0.00033764
     atom    3 type  1   force =    -0.00000000   -0.00000000   -0.00044223
     atom    4 type  1   force =    -0.00000000    0.00000000    0.00044223
     atom    5 type  1   force =    -0.00000000   -0.00000000    0.00050203
     atom    6 type  1   force =    -0.00000000   -0.00000000   -0.00050203
     atom    7 type  1   force =    -0.00000000   -0.00000000   -0.00000000
     atom    8 type  1   force =     0.00000000   -0.00000000   -0.00000000
     atom    9 type  2   force =    -0.00000000   -0.00000000   -0.00070772
     atom   10 type  2   force =     0.00000000    0.00000000    0.00070772

     Total force =     0.001458     Total SCF correction =     0.000010


     Computing stress (Cartesian axis) and pressure

          total   stress  (Ry/bohr**3)                   (kbar)     P=      499.95
   0.00339633  -0.00000000   0.00000000          499.62       -0.00        0.00
   0.00000000   0.00339633   0.00000000            0.00      499.62        0.00
  -0.00000000   0.00000000   0.00340317           -0.00        0.00      500.62


     Writing all to output data dir ./output/LiSi.save/ :
     XML data file, charge density, pseudopotentials, collected wavefunctions

     init_run     :      2.48s CPU      2.75s WALL (       2 calls)
     electrons    :    263.27s CPU    271.86s WALL (      13 calls)
     update_pot   :      0.34s CPU      0.40s WALL (      11 calls)
     forces       :      1.91s CPU      2.05s WALL (      13 calls)
     stress       :     14.36s CPU     14.61s WALL (      13 calls)

     Called by init_run:
     wfcinit      :      1.97s CPU      2.07s WALL (       2 calls)
     potinit      :      0.08s CPU      0.09s WALL (       2 calls)
     hinit0       :      0.37s CPU      0.50s WALL (       2 calls)

     Called by electrons:
     c_bands      :    223.62s CPU    230.74s WALL (      99 calls)
     sum_band     :     36.96s CPU     37.72s WALL (      99 calls)
     v_of_rho     :      2.82s CPU      3.04s WALL (     108 calls)
     mix_rho      :      0.11s CPU      0.17s WALL (      99 calls)

     Called by c_bands:
     init_us_2    :      2.33s CPU      2.67s WALL (    9944 calls)
     cegterg      :    219.13s CPU    224.08s WALL (    4356 calls)

     Called by *egterg:
     cdiaghg      :      9.43s CPU      9.85s WALL (   18510 calls)
     h_psi        :    201.31s CPU    205.59s WALL (   19258 calls)
     g_psi        :      0.27s CPU      0.28s WALL (   14814 calls)

     Called by h_psi:
     h_psi:calbec :      7.50s CPU      7.71s WALL (   19258 calls)
     vloc_psi     :    188.86s CPU    192.80s WALL (   19258 calls)
     add_vuspsi   :      4.65s CPU      4.74s WALL (   19258 calls)

     General routines
     calbec       :      8.96s CPU      9.21s WALL (   22118 calls)
     fft          :      1.15s CPU      1.50s WALL (    1407 calls)
     ffts         :      0.06s CPU      0.08s WALL (      99 calls)
     fftw         :    199.42s CPU    203.26s WALL (  561788 calls)

     Parallel routines

     PWSCF        :    282.80s CPU    292.89s WALL


   This run was terminated on:  13:51: 6  18Feb2025            

=------------------------------------------------------------------------------=
   JOB DONE.
=------------------------------------------------------------------------------=
