
     Program PWSCF v.7.2 starts on 29Dec2024 at 20:29:43 

     This program is part of the open-source Quantum ESPRESSO suite
     for quantum simulation of materials; please cite
         "P. Giannozzi et al., J. Phys.:Condens. Matter 21 395502 (2009);
         "P. Giannozzi et al., J. Phys.:Condens. Matter 29 465901 (2017);
         "P. Giannozzi et al., J. Chem. Phys. 152 154105 (2020);
          URL http://www.quantum-espresso.org", 
     in publications or presentations arising from this work. More details at
     http://www.quantum-espresso.org/quote

     Parallel version (MPI & OpenMP), running on       8 processor cores
     Number of MPI processes:                 8
     Threads/MPI process:                     1

     MPI processes distributed on     1 nodes
     481192 MiB available memory on the printing compute node when the environment starts

     Waiting for input...
     Reading input from standard input

     Current dimensions of program PWSCF are:
     Max number of different atomic species (ntypx) = 10
     Max number of k-points (npk) =  40000
     Max angular momentum in pseudopotentials (lmaxx) =  4

     R & G space division:  proc/nbgrp/npool/nimage =       8
     Subspace diagonalization in iterative solution of the eigenvalue problem:
     a serial algorithm will be used


     Parallelization info
     --------------------
     sticks:   dense  smooth     PW     G-vecs:    dense   smooth      PW
     Min         137     137     47                 1986     1986     405
     Max         138     138     48                 1987     1987     406
     Sum        1103    1103    383                15895    15895    3243

     Using Slab Decomposition



     bravais-lattice index     =            7
     lattice parameter (alat)  =       8.8592  a.u.
     unit-cell volume          =     164.9464 (a.u.)^3
     number of atoms/cell      =            5
     number of atomic types    =            2
     number of electrons       =        19.00
     number of Kohn-Sham states=           14
     kinetic-energy cutoff     =      80.0000  Ry
     charge density cutoff     =     320.0000  Ry
     scf convergence threshold =      1.0E-08
     mixing beta               =       0.7000
     number of iterations used =            8  plain     mixing
     energy convergence thresh.=      1.0E-04
     force convergence thresh. =      1.0E-03
     press convergence thresh. =      1.0E+00
     Exchange-correlation= PBE
                           (   1   4   3   4   0   0   0)
     nstep                     =           50


     celldm(1)=   8.859166  celldm(2)=   0.000000  celldm(3)=   0.474454
     celldm(4)=   0.000000  celldm(5)=   0.000000  celldm(6)=   0.000000

     crystal axes: (cart. coord. in units of alat)
               a(1) = (   0.500000  -0.500000   0.237227 )  
               a(2) = (   0.500000   0.500000   0.237227 )  
               a(3) = (  -0.500000  -0.500000   0.237227 )  

     reciprocal axes: (cart. coord. in units 2 pi/alat)
               b(1) = (  1.000000 -1.000000  0.000000 )  
               b(2) = (  0.000000  1.000000  2.107685 )  
               b(3) = ( -1.000000  0.000000  2.107685 )  


     PseudoPot. # 1 for Li read from file:
     ../pseudo/Li_ONCV_PBE_sr.upf
     MD5 check sum: 50ff420e78310ffa21704f3361e624a4
     Pseudo is Norm-conserving, Zval =  3.0
     Generated using ONCVPSP code by D. R. Hamann
     Using radial grid of 1944 points,  4 beta functions with: 
                l(1) =   0
                l(2) =   0
                l(3) =   1
                l(4) =   1

     PseudoPot. # 2 for Si read from file:
     ../pseudo/Si_ONCV_PBE_sr.upf
     MD5 check sum: e543d271109d17c80368dfa7c482276d
     Pseudo is Norm-conserving + core correction, Zval =  4.0
     Generated using ONCVPSP code by D. R. Hamann
     Using radial grid of 1510 points,  6 beta functions with: 
                l(1) =   0
                l(2) =   0
                l(3) =   1
                l(4) =   1
                l(5) =   2
                l(6) =   2

     atomic species   valence    mass     pseudopotential
        Li             3.00     6.94100     Li( 1.00)
        Si             4.00    28.08550     Si( 1.00)

      8 Sym. Ops., with inversion, found



   Cartesian axes

     site n.     atom                  positions (alat units)
         1           Li  tau(   1) = (   0.0000000   0.0000000   0.2372271  )
         2           Si  tau(   2) = (   0.1026280   0.6884385  -0.0000000  )
         3           Si  tau(   3) = (   0.8973720   0.3115615   0.0000000  )
         4           Si  tau(   4) = (   0.3115615   0.1026280   0.0000000  )
         5           Si  tau(   5) = (   0.6884385   0.8973720  -0.0000000  )

     number of k points=   120  Marzari-Vanderbilt smearing, width (Ry)=  0.0200

     Number of k-points >= 100: set verbosity='high' to print them.

     Dense  grid:    15895 G-vectors     FFT dimensions: (  40,  40,  40)

     Estimated max dynamical RAM per process >      19.93 MB

     Estimated total dynamical RAM >     159.45 MB

     Initial potential from superposition of free atoms

     starting charge      18.9930, renormalised to      19.0000
     Starting wfcs are   18 randomized atomic wfcs

     total cpu time spent up to now is        1.4 secs

     Self-consistent Calculation

     iteration #  1     ecut=    80.00 Ry     beta= 0.70
     Davidson diagonalization with overlap
     ethr =  1.00E-02,  avg # of iterations =  6.9

     Threshold (ethr) on eigenvalues was too large:
     Diagonalizing with lowered threshold

     Davidson diagonalization with overlap
     ethr =  9.62E-04,  avg # of iterations =  1.7

     total cpu time spent up to now is        4.7 secs

     total energy              =     -44.71328348 Ry
     estimated scf accuracy    <       0.18631252 Ry

     iteration #  2     ecut=    80.00 Ry     beta= 0.70
     Davidson diagonalization with overlap
     ethr =  9.81E-04,  avg # of iterations =  2.4

     total cpu time spent up to now is        6.1 secs

     total energy              =     -44.74573368 Ry
     estimated scf accuracy    <       0.05679872 Ry

     iteration #  3     ecut=    80.00 Ry     beta= 0.70
     Davidson diagonalization with overlap
     ethr =  2.99E-04,  avg # of iterations =  2.3

     total cpu time spent up to now is        7.5 secs

     total energy              =     -44.75870882 Ry
     estimated scf accuracy    <       0.00226351 Ry

     iteration #  4     ecut=    80.00 Ry     beta= 0.70
     Davidson diagonalization with overlap
     ethr =  1.19E-05,  avg # of iterations =  5.2

     total cpu time spent up to now is        9.2 secs

     total energy              =     -44.75892004 Ry
     estimated scf accuracy    <       0.00005133 Ry

     iteration #  5     ecut=    80.00 Ry     beta= 0.70
     Davidson diagonalization with overlap
     ethr =  2.70E-07,  avg # of iterations =  3.5

     total cpu time spent up to now is       10.8 secs

     total energy              =     -44.75894828 Ry
     estimated scf accuracy    <       0.00000062 Ry

     iteration #  6     ecut=    80.00 Ry     beta= 0.70
     Davidson diagonalization with overlap
     ethr =  3.25E-09,  avg # of iterations =  3.8

     total cpu time spent up to now is       12.4 secs

     total energy              =     -44.75894865 Ry
     estimated scf accuracy    <       0.00000002 Ry

     iteration #  7     ecut=    80.00 Ry     beta= 0.70
     Davidson diagonalization with overlap
     ethr =  8.34E-11,  avg # of iterations =  3.1

     total cpu time spent up to now is       14.0 secs

     End of self-consistent calculation

     Number of k-points >= 100: set verbosity='high' to print the bands.

     the Fermi energy is    28.7509 ev

!    total energy              =     -44.75894865 Ry
     estimated scf accuracy    <          1.3E-09 Ry
     smearing contrib. (-TS)   =      -0.00040506 Ry
     internal energy E=F+TS    =     -44.75854359 Ry

     The total energy is F=E-TS. E is the sum of the following terms:
     one-electron contribution =      37.65264352 Ry
     hartree contribution      =       2.73036983 Ry
     xc contribution           =     -20.11151598 Ry
     ewald contribution        =     -65.03004096 Ry

     convergence has been achieved in   7 iterations

     Forces acting on atoms (cartesian axes, Ry/au):

     atom    1 type  1   force =     0.00000000    0.00000000    0.00000000
     atom    2 type  2   force =     0.03891685    0.56862967   -0.00000000
     atom    3 type  2   force =    -0.03891685   -0.56862967   -0.00000000
     atom    4 type  2   force =    -0.56862967    0.03891685   -0.00000000
     atom    5 type  2   force =     0.56862967   -0.03891685    0.00000000
     The non-local contrib.  to forces
     atom    1 type  1   force =    -0.00000000    0.00000000   -0.00000000
     atom    2 type  2   force =    -0.03152795    0.34043599   -0.00000000
     atom    3 type  2   force =     0.03152795   -0.34043599    0.00000000
     atom    4 type  2   force =    -0.34043599   -0.03152795    0.00000000
     atom    5 type  2   force =     0.34043599    0.03152795   -0.00000000
     The ionic contribution  to forces
     atom    1 type  1   force =     0.00000000    0.00000000    0.00000000
     atom    2 type  2   force =     0.28189074    1.06115044    0.00000000
     atom    3 type  2   force =    -0.28189074   -1.06115044   -0.00000000
     atom    4 type  2   force =    -1.06115044    0.28189074   -0.00000000
     atom    5 type  2   force =     1.06115044   -0.28189074   -0.00000000
     The local contribution  to forces
     atom    1 type  1   force =     0.00000000    0.00000000    0.00000000
     atom    2 type  2   force =    -0.21104624   -0.80648715   -0.00000000
     atom    3 type  2   force =     0.21104624    0.80648715    0.00000000
     atom    4 type  2   force =     0.80648715   -0.21104624   -0.00000000
     atom    5 type  2   force =    -0.80648715    0.21104624    0.00000000
     The core correction contribution to forces
     atom    1 type  1   force =     0.00000000    0.00000000    0.00000000
     atom    2 type  2   force =    -0.00039194   -0.02644927   -0.00000000
     atom    3 type  2   force =     0.00039194    0.02644927    0.00000000
     atom    4 type  2   force =     0.02644927   -0.00039194   -0.00000000
     atom    5 type  2   force =    -0.02644927    0.00039194    0.00000000
     The Hubbard contrib.    to forces
     atom    1 type  1   force =     0.00000000    0.00000000    0.00000000
     atom    2 type  2   force =     0.00000000    0.00000000    0.00000000
     atom    3 type  2   force =     0.00000000    0.00000000    0.00000000
     atom    4 type  2   force =     0.00000000    0.00000000    0.00000000
     atom    5 type  2   force =     0.00000000    0.00000000    0.00000000
     The SCF correction term to forces
     atom    1 type  1   force =     0.00000000   -0.00000000   -0.00000000
     atom    2 type  2   force =    -0.00000777   -0.00002034   -0.00000000
     atom    3 type  2   force =     0.00000777    0.00002034   -0.00000000
     atom    4 type  2   force =     0.00002034   -0.00000777    0.00000000
     atom    5 type  2   force =    -0.00002034    0.00000777   -0.00000000

     Total force =     1.139920     Total SCF correction =     0.000044


     Computing stress (Cartesian axis) and pressure

          total   stress  (Ry/bohr**3)                   (kbar)     P=     7563.54
   0.05129387   0.00000000  -0.00000000         7545.59        0.00       -0.00
  -0.00000000   0.05129387   0.00000000           -0.00     7545.59        0.00
  -0.00000000   0.00000000   0.05165987           -0.00        0.00     7599.43


     BFGS Geometry Optimization
     Energy error            =      0.0E+00 Ry
     Gradient error          =      5.7E-01 Ry/Bohr
     Cell gradient error     =      7.1E+03 kbar

     number of scf cycles    =   1
     number of bfgs steps    =   0

     enthalpy           new  =     -44.1983072731 Ry

     new trust radius        =       0.5000000000 bohr
ibrav =      7
 celldm(1) =     10.57058133
 celldm(3) =      0.47504112
Input lattice vectors:
     0.59659006    -0.59659006     0.28340481
     0.59659006     0.59659006     0.28340481
    -0.59659006    -0.59659006     0.28340481
New lattice vectors in INITIAL alat:
     0.59659006    -0.59659006     0.28340481
     0.59659006     0.59659006     0.28340481
    -0.59659006    -0.59659006     0.28340481
New lattice vectors in NEW alat (for information only):
     0.50000000    -0.50000000     0.23752056
     0.50000000     0.50000000     0.23752056
    -0.50000000    -0.50000000     0.23752056
Discrepancy in bohr =     0.000000    0.000000    0.000000
     new conv_thr            =       0.0000000100 Ry

     new unit-cell volume =    280.54196 a.u.^3 (    41.57203 Ang^3 )
     density =      4.76460 g/cm^3

CELL_PARAMETERS (alat=  8.85916648)
   0.596590061  -0.596590061   0.283404814
   0.596590061   0.596590061   0.283404814
  -0.596590061  -0.596590061   0.283404814

ATOMIC_POSITIONS (crystal)
Li            0.0000000000        0.5000000000        0.5000000000
Si           -0.5954572367        0.6987939615       -0.1033367247
Si            0.5954572367        0.3012060385       -0.8966632753
Si            0.1978693138        0.1033367247       -0.3012060385
Si           -0.1978693138        0.8966632753       -0.6987939615



     Writing config-only to output data dir ./output/LiSi.save/
     NEW-OLD atomic charge density approx. for the potential
     extrapolated charge   26.82594, renormalised to   19.00000

     total cpu time spent up to now is       15.7 secs

     Self-consistent Calculation

     iteration #  1     ecut=    80.00 Ry     beta= 0.70
     Davidson diagonalization with overlap
     c_bands:  1 eigenvalues not converged
     c_bands:  1 eigenvalues not converged
     c_bands:  1 eigenvalues not converged
     c_bands:  1 eigenvalues not converged
     c_bands:  1 eigenvalues not converged
     c_bands:  1 eigenvalues not converged
     c_bands:  1 eigenvalues not converged
     c_bands:  1 eigenvalues not converged
     c_bands:  1 eigenvalues not converged
     c_bands:  1 eigenvalues not converged
     c_bands:  1 eigenvalues not converged
     c_bands:  1 eigenvalues not converged
     c_bands:  1 eigenvalues not converged
     c_bands:  1 eigenvalues not converged
     c_bands:  1 eigenvalues not converged
     c_bands:  1 eigenvalues not converged
     c_bands:  1 eigenvalues not converged
     c_bands:  1 eigenvalues not converged
     c_bands:  1 eigenvalues not converged
     c_bands:  1 eigenvalues not converged
     c_bands:  1 eigenvalues not converged
     c_bands:  2 eigenvalues not converged
     c_bands:  1 eigenvalues not converged
     c_bands:  1 eigenvalues not converged
     c_bands:  1 eigenvalues not converged
     c_bands:  1 eigenvalues not converged
     c_bands:  1 eigenvalues not converged
     c_bands:  1 eigenvalues not converged
     c_bands:  1 eigenvalues not converged
     c_bands:  1 eigenvalues not converged
     c_bands:  1 eigenvalues not converged
     c_bands:  1 eigenvalues not converged
     c_bands:  2 eigenvalues not converged
     c_bands:  1 eigenvalues not converged
     c_bands:  1 eigenvalues not converged
     c_bands:  1 eigenvalues not converged
     c_bands:  1 eigenvalues not converged
     ethr =  1.00E-06,  avg # of iterations = 16.7

     total cpu time spent up to now is       21.2 secs

     total energy              =     -47.37715230 Ry
     estimated scf accuracy    <       0.15359902 Ry

     iteration #  2     ecut=    80.00 Ry     beta= 0.70
     Davidson diagonalization with overlap
     ethr =  8.08E-04,  avg # of iterations =  2.5

     total cpu time spent up to now is       23.0 secs

     total energy              =     -47.54672555 Ry
     estimated scf accuracy    <       0.18214584 Ry

     iteration #  3     ecut=    80.00 Ry     beta= 0.70
     Davidson diagonalization with overlap
     ethr =  8.08E-04,  avg # of iterations =  1.8

     total cpu time spent up to now is       24.4 secs

     total energy              =     -47.56531514 Ry
     estimated scf accuracy    <       0.01428222 Ry

     iteration #  4     ecut=    80.00 Ry     beta= 0.70
     Davidson diagonalization with overlap
     ethr =  7.52E-05,  avg # of iterations =  1.5

     total cpu time spent up to now is       25.6 secs

     total energy              =     -47.56244395 Ry
     estimated scf accuracy    <       0.00548133 Ry

     iteration #  5     ecut=    80.00 Ry     beta= 0.70
     Davidson diagonalization with overlap
     ethr =  2.88E-05,  avg # of iterations =  2.3

     total cpu time spent up to now is       27.1 secs

     total energy              =     -47.56361496 Ry
     estimated scf accuracy    <       0.00014792 Ry

     iteration #  6     ecut=    80.00 Ry     beta= 0.70
     Davidson diagonalization with overlap
     ethr =  7.79E-07,  avg # of iterations =  5.7

     total cpu time spent up to now is       28.8 secs

     total energy              =     -47.56363485 Ry
     estimated scf accuracy    <       0.00002440 Ry

     iteration #  7     ecut=    80.00 Ry     beta= 0.70
     Davidson diagonalization with overlap
     ethr =  1.28E-07,  avg # of iterations =  2.0

     total cpu time spent up to now is       30.1 secs

     total energy              =     -47.56364133 Ry
     estimated scf accuracy    <       0.00000076 Ry

     iteration #  8     ecut=    80.00 Ry     beta= 0.70
     Davidson diagonalization with overlap
     ethr =  4.03E-09,  avg # of iterations =  3.1

     total cpu time spent up to now is       31.6 secs

     total energy              =     -47.56364163 Ry
     estimated scf accuracy    <       0.00000015 Ry

     iteration #  9     ecut=    80.00 Ry     beta= 0.70
     Davidson diagonalization with overlap
     ethr =  7.96E-10,  avg # of iterations =  2.0

     total cpu time spent up to now is       32.7 secs

     End of self-consistent calculation

     Number of k-points >= 100: set verbosity='high' to print the bands.

     the Fermi energy is    17.2788 ev

!    total energy              =     -47.56364165 Ry
     estimated scf accuracy    <          3.5E-09 Ry
     smearing contrib. (-TS)   =      -0.00036702 Ry
     internal energy E=F+TS    =     -47.56327463 Ry

     The total energy is F=E-TS. E is the sum of the following terms:
     one-electron contribution =      21.98106769 Ry
     hartree contribution      =       2.80919775 Ry
     xc contribution           =     -17.63928643 Ry
     ewald contribution        =     -54.71425365 Ry

     convergence has been achieved in   9 iterations

     Forces acting on atoms (cartesian axes, Ry/au):

     atom    1 type  1   force =     0.00000000    0.00000000    0.00000000
     atom    2 type  2   force =    -0.01783459    0.07344372   -0.00000000
     atom    3 type  2   force =     0.01783459   -0.07344372    0.00000000
     atom    4 type  2   force =    -0.07344372   -0.01783459   -0.00000000
     atom    5 type  2   force =     0.07344372    0.01783459   -0.00000000
     The non-local contrib.  to forces
     atom    1 type  1   force =    -0.00000000   -0.00000000    0.00000000
     atom    2 type  2   force =    -0.04556829    0.04297353   -0.00000000
     atom    3 type  2   force =     0.04556829   -0.04297353    0.00000000
     atom    4 type  2   force =    -0.04297353   -0.04556829    0.00000000
     atom    5 type  2   force =     0.04297353    0.04556829   -0.00000000
     The ionic contribution  to forces
     atom    1 type  1   force =     0.00000000    0.00000000   -0.00000000
     atom    2 type  2   force =    -0.02059757    0.31923095   -0.00000000
     atom    3 type  2   force =     0.02059757   -0.31923095    0.00000000
     atom    4 type  2   force =    -0.31923095   -0.02059757   -0.00000000
     atom    5 type  2   force =     0.31923095    0.02059757   -0.00000000
     The local contribution  to forces
     atom    1 type  1   force =    -0.00000000   -0.00000000   -0.00000000
     atom    2 type  2   force =     0.04480341   -0.28313938    0.00000000
     atom    3 type  2   force =    -0.04480341    0.28313938   -0.00000000
     atom    4 type  2   force =     0.28313938    0.04480341   -0.00000000
     atom    5 type  2   force =    -0.28313938   -0.04480341    0.00000000
     The core correction contribution to forces
     atom    1 type  1   force =     0.00000000    0.00000000    0.00000000
     atom    2 type  2   force =     0.00354350   -0.00558831    0.00000000
     atom    3 type  2   force =    -0.00354350    0.00558831   -0.00000000
     atom    4 type  2   force =     0.00558831    0.00354350   -0.00000000
     atom    5 type  2   force =    -0.00558831   -0.00354350    0.00000000
     The Hubbard contrib.    to forces
     atom    1 type  1   force =     0.00000000    0.00000000    0.00000000
     atom    2 type  2   force =     0.00000000    0.00000000    0.00000000
     atom    3 type  2   force =     0.00000000    0.00000000    0.00000000
     atom    4 type  2   force =     0.00000000    0.00000000    0.00000000
     atom    5 type  2   force =     0.00000000    0.00000000    0.00000000
     The SCF correction term to forces
     atom    1 type  1   force =     0.00000000    0.00000000    0.00000000
     atom    2 type  2   force =    -0.00001564   -0.00003306   -0.00000000
     atom    3 type  2   force =     0.00001564    0.00003306    0.00000000
     atom    4 type  2   force =     0.00003306   -0.00001564   -0.00000000
     atom    5 type  2   force =    -0.00003306    0.00001564    0.00000000

     Total force =     0.151156     Total SCF correction =     0.000073


     Computing stress (Cartesian axis) and pressure

          total   stress  (Ry/bohr**3)                   (kbar)     P=     1291.73
   0.00827752   0.00000000  -0.00000000         1217.67        0.00       -0.00
  -0.00000000   0.00827752  -0.00000000           -0.00     1217.67       -0.00
   0.00000000   0.00000000   0.00978804            0.00        0.00     1439.87

     Energy error            =      2.4E+00 Ry
     Gradient error          =      7.3E-02 Ry/Bohr
     Cell gradient error     =      9.4E+02 kbar

     number of scf cycles    =   2
     number of bfgs steps    =   1

     enthalpy           old  =     -44.1983072731 Ry
     enthalpy           new  =     -46.6100989030 Ry

     CASE: enthalpy          _new < enthalpy          _old

     new trust radius        =       0.2229937853 bohr
ibrav =      7
 celldm(1) =     10.72361522
 celldm(3) =      0.49943308
Input lattice vectors:
     0.60522710    -0.60522710     0.30227043
     0.60522710     0.60522710     0.30227043
    -0.60522710    -0.60522710     0.30227043
New lattice vectors in INITIAL alat:
     0.60522710    -0.60522710     0.30227043
     0.60522710     0.60522710     0.30227043
    -0.60522710    -0.60522710     0.30227043
New lattice vectors in NEW alat (for information only):
     0.50000000    -0.50000000     0.24971654
     0.50000000     0.50000000     0.24971654
    -0.50000000    -0.50000000     0.24971654
Discrepancy in bohr =     0.000000    0.000000    0.000000
     new conv_thr            =       0.0000000073 Ry

     new unit-cell volume =    307.94345 a.u.^3 (    45.63251 Ang^3 )
     density =      4.34064 g/cm^3

CELL_PARAMETERS (alat=  8.85916648)
   0.605227097  -0.605227097   0.302270433
   0.605227097   0.605227097   0.302270433
  -0.605227097  -0.605227097   0.302270433

ATOMIC_POSITIONS (crystal)
Li            0.0000000000        0.5000000000        0.5000000000
Si           -0.6006166977        0.7004006087       -0.0997839110
Si            0.6006166977        0.2995993913       -0.9002160890
Si            0.1998154802        0.0997839110       -0.2995993913
Si           -0.1998154802        0.9002160890       -0.7004006087



     Writing config-only to output data dir ./output/LiSi.save/
     NEW-OLD atomic charge density approx. for the potential
     extrapolated charge   20.69004, renormalised to   19.00000

     total cpu time spent up to now is       34.4 secs

     Self-consistent Calculation

     iteration #  1     ecut=    80.00 Ry     beta= 0.70
     Davidson diagonalization with overlap
     c_bands:  1 eigenvalues not converged
     c_bands:  1 eigenvalues not converged
     c_bands:  1 eigenvalues not converged
     c_bands:  1 eigenvalues not converged
     c_bands:  1 eigenvalues not converged
     c_bands:  1 eigenvalues not converged
     c_bands:  1 eigenvalues not converged
     c_bands:  2 eigenvalues not converged
     c_bands:  1 eigenvalues not converged
     c_bands:  1 eigenvalues not converged
     c_bands:  1 eigenvalues not converged
     ethr =  1.00E-06,  avg # of iterations = 13.6

     total cpu time spent up to now is       37.9 secs

     total energy              =     -47.77837441 Ry
     estimated scf accuracy    <       0.00271007 Ry

     iteration #  2     ecut=    80.00 Ry     beta= 0.70
     Davidson diagonalization with overlap
     ethr =  1.43E-05,  avg # of iterations =  3.0

     total cpu time spent up to now is       39.2 secs

     total energy              =     -47.78401697 Ry
     estimated scf accuracy    <       0.00187195 Ry

     iteration #  3     ecut=    80.00 Ry     beta= 0.70
     Davidson diagonalization with overlap
     ethr =  9.85E-06,  avg # of iterations =  1.1

     total cpu time spent up to now is       40.2 secs

     total energy              =     -47.78403639 Ry
     estimated scf accuracy    <       0.00032255 Ry

     iteration #  4     ecut=    80.00 Ry     beta= 0.70
     Davidson diagonalization with overlap
     ethr =  1.70E-06,  avg # of iterations =  2.2

     total cpu time spent up to now is       41.2 secs

     total energy              =     -47.78399506 Ry
     estimated scf accuracy    <       0.00009609 Ry

     iteration #  5     ecut=    80.00 Ry     beta= 0.70
     Davidson diagonalization with overlap
     ethr =  5.06E-07,  avg # of iterations =  2.0

     total cpu time spent up to now is       42.3 secs

     total energy              =     -47.78401039 Ry
     estimated scf accuracy    <       0.00000057 Ry

     iteration #  6     ecut=    80.00 Ry     beta= 0.70
     Davidson diagonalization with overlap
     ethr =  2.97E-09,  avg # of iterations =  4.0

     total cpu time spent up to now is       43.7 secs

     total energy              =     -47.78401072 Ry
     estimated scf accuracy    <       0.00000012 Ry

     iteration #  7     ecut=    80.00 Ry     beta= 0.70
     Davidson diagonalization with overlap
     ethr =  6.57E-10,  avg # of iterations =  2.0

     total cpu time spent up to now is       44.7 secs

     End of self-consistent calculation

     Number of k-points >= 100: set verbosity='high' to print the bands.

     the Fermi energy is    15.6348 ev

!    total energy              =     -47.78401074 Ry
     estimated scf accuracy    <          1.2E-09 Ry
     smearing contrib. (-TS)   =      -0.00004889 Ry
     internal energy E=F+TS    =     -47.78396186 Ry

     The total energy is F=E-TS. E is the sum of the following terms:
     one-electron contribution =      19.69778955 Ry
     hartree contribution      =       2.85584568 Ry
     xc contribution           =     -17.27359290 Ry
     ewald contribution        =     -53.06400418 Ry

     convergence has been achieved in   7 iterations

     Forces acting on atoms (cartesian axes, Ry/au):

     atom    1 type  1   force =    -0.00000000   -0.00000000   -0.00000000
     atom    2 type  2   force =     0.00740125    0.05298082    0.00000000
     atom    3 type  2   force =    -0.00740125   -0.05298082    0.00000000
     atom    4 type  2   force =    -0.05298082    0.00740125    0.00000000
     atom    5 type  2   force =     0.05298082   -0.00740125   -0.00000000
     The non-local contrib.  to forces
     atom    1 type  1   force =    -0.00000000    0.00000000   -0.00000000
     atom    2 type  2   force =    -0.02150167    0.02688894   -0.00000000
     atom    3 type  2   force =     0.02150167   -0.02688894    0.00000000
     atom    4 type  2   force =    -0.02688894   -0.02150167    0.00000000
     atom    5 type  2   force =     0.02688894    0.02150167    0.00000000
     The ionic contribution  to forces
     atom    1 type  1   force =     0.00000000    0.00000000    0.00000000
     atom    2 type  2   force =     0.01983844    0.27638855    0.00000000
     atom    3 type  2   force =    -0.01983844   -0.27638855    0.00000000
     atom    4 type  2   force =    -0.27638855    0.01983844   -0.00000000
     atom    5 type  2   force =     0.27638855   -0.01983844   -0.00000000
     The local contribution  to forces
     atom    1 type  1   force =    -0.00000000   -0.00000000    0.00000000
     atom    2 type  2   force =     0.00729381   -0.24625205   -0.00000000
     atom    3 type  2   force =    -0.00729381    0.24625205    0.00000000
     atom    4 type  2   force =     0.24625205    0.00729381    0.00000000
     atom    5 type  2   force =    -0.24625205   -0.00729381   -0.00000000
     The core correction contribution to forces
     atom    1 type  1   force =     0.00000000    0.00000000    0.00000000
     atom    2 type  2   force =     0.00177210   -0.00404226   -0.00000000
     atom    3 type  2   force =    -0.00177210    0.00404226   -0.00000000
     atom    4 type  2   force =     0.00404226    0.00177210    0.00000000
     atom    5 type  2   force =    -0.00404226   -0.00177210    0.00000000
     The Hubbard contrib.    to forces
     atom    1 type  1   force =     0.00000000    0.00000000    0.00000000
     atom    2 type  2   force =     0.00000000    0.00000000    0.00000000
     atom    3 type  2   force =     0.00000000    0.00000000    0.00000000
     atom    4 type  2   force =     0.00000000    0.00000000    0.00000000
     atom    5 type  2   force =     0.00000000    0.00000000    0.00000000
     The SCF correction term to forces
     atom    1 type  1   force =     0.00000000    0.00000000   -0.00000000
     atom    2 type  2   force =    -0.00000143   -0.00000235    0.00000000
     atom    3 type  2   force =     0.00000143    0.00000235   -0.00000000
     atom    4 type  2   force =     0.00000235   -0.00000143    0.00000000
     atom    5 type  2   force =    -0.00000235    0.00000143   -0.00000000

     Total force =     0.106991     Total SCF correction =     0.000006


     Computing stress (Cartesian axis) and pressure

          total   stress  (Ry/bohr**3)                   (kbar)     P=      858.97
   0.00519410   0.00000000   0.00000000          764.08        0.00        0.00
  -0.00000000   0.00519410   0.00000000           -0.00      764.08        0.00
  -0.00000000   0.00000000   0.00712920           -0.00        0.00     1048.74

     Energy error            =      1.3E-01 Ry
     Gradient error          =      5.3E-02 Ry/Bohr
     Cell gradient error     =      5.5E+02 kbar

     number of scf cycles    =   3
     number of bfgs steps    =   2

     enthalpy           old  =     -46.6100989030 Ry
     enthalpy           new  =     -46.7373322166 Ry

     CASE: enthalpy          _new < enthalpy          _old

     new trust radius        =       0.3285732065 bohr
ibrav =      7
 celldm(1) =     10.65627761
 celldm(3) =      0.54964120
Input lattice vectors:
     0.60142665    -0.60142665     0.33056886
     0.60142665     0.60142665     0.33056886
    -0.60142665    -0.60142665     0.33056886
New lattice vectors in INITIAL alat:
     0.60142665    -0.60142665     0.33056886
     0.60142665     0.60142665     0.33056886
    -0.60142665    -0.60142665     0.33056886
New lattice vectors in NEW alat (for information only):
     0.50000000    -0.50000000     0.27482060
     0.50000000     0.50000000     0.27482060
    -0.50000000    -0.50000000     0.27482060
Discrepancy in bohr =     0.000000    0.000000    0.000000
     new conv_thr            =       0.0000000053 Ry

     new unit-cell volume =    332.55682 a.u.^3 (    49.27984 Ang^3 )
     density =      4.01937 g/cm^3

CELL_PARAMETERS (alat=  8.85916648)
   0.601426649  -0.601426649   0.330568862
   0.601426649   0.601426649   0.330568862
  -0.601426649  -0.601426649   0.330568862

ATOMIC_POSITIONS (crystal)
Li           -0.0000000000        0.5000000000        0.5000000000
Si           -0.6060808453        0.7058087199       -0.0997278746
Si            0.6060808453        0.2941912801       -0.9002721254
Si            0.1944634055        0.0997278746       -0.2941912801
Si           -0.1944634055        0.9002721254       -0.7058087199



     Writing config-only to output data dir ./output/LiSi.save/
     NEW-OLD atomic charge density approx. for the potential
     extrapolated charge   20.40572, renormalised to   19.00000

     total cpu time spent up to now is       46.3 secs

     Self-consistent Calculation

     iteration #  1     ecut=    80.00 Ry     beta= 0.70
     Davidson diagonalization with overlap
     c_bands:  1 eigenvalues not converged
     c_bands:  1 eigenvalues not converged
     c_bands:  1 eigenvalues not converged
     c_bands:  1 eigenvalues not converged
     c_bands:  1 eigenvalues not converged
     c_bands:  1 eigenvalues not converged
     c_bands:  1 eigenvalues not converged
     c_bands:  1 eigenvalues not converged
     c_bands:  1 eigenvalues not converged
     c_bands:  1 eigenvalues not converged
     c_bands:  1 eigenvalues not converged
     c_bands:  1 eigenvalues not converged
     c_bands:  1 eigenvalues not converged
     c_bands:  1 eigenvalues not converged
     c_bands:  1 eigenvalues not converged
     c_bands:  1 eigenvalues not converged
     c_bands:  1 eigenvalues not converged
     c_bands:  2 eigenvalues not converged
     c_bands:  2 eigenvalues not converged
     c_bands:  1 eigenvalues not converged
     c_bands:  1 eigenvalues not converged
     c_bands:  1 eigenvalues not converged
     c_bands:  2 eigenvalues not converged
     c_bands:  1 eigenvalues not converged
     c_bands:  1 eigenvalues not converged
     c_bands:  1 eigenvalues not converged
     c_bands:  2 eigenvalues not converged
     c_bands:  1 eigenvalues not converged
     ethr =  1.00E-06,  avg # of iterations = 14.8

     total cpu time spent up to now is       50.2 secs

     total energy              =     -47.93035626 Ry
     estimated scf accuracy    <       0.00813171 Ry

     iteration #  2     ecut=    80.00 Ry     beta= 0.70
     Davidson diagonalization with overlap
     ethr =  4.28E-05,  avg # of iterations =  2.1

     total cpu time spent up to now is       51.5 secs

     total energy              =     -47.93595930 Ry
     estimated scf accuracy    <       0.00334259 Ry

     iteration #  3     ecut=    80.00 Ry     beta= 0.70
     Davidson diagonalization with overlap
     ethr =  1.76E-05,  avg # of iterations =  2.0

     total cpu time spent up to now is       52.5 secs

     total energy              =     -47.93642251 Ry
     estimated scf accuracy    <       0.00020153 Ry

     iteration #  4     ecut=    80.00 Ry     beta= 0.70
     Davidson diagonalization with overlap
     ethr =  1.06E-06,  avg # of iterations =  2.8

     total cpu time spent up to now is       53.5 secs

     total energy              =     -47.93641868 Ry
     estimated scf accuracy    <       0.00003767 Ry

     iteration #  5     ecut=    80.00 Ry     beta= 0.70
     Davidson diagonalization with overlap
     ethr =  1.98E-07,  avg # of iterations =  2.0

     total cpu time spent up to now is       54.6 secs

     total energy              =     -47.93642478 Ry
     estimated scf accuracy    <       0.00000114 Ry

     iteration #  6     ecut=    80.00 Ry     beta= 0.70
     Davidson diagonalization with overlap
     ethr =  6.02E-09,  avg # of iterations =  3.6

     total cpu time spent up to now is       55.8 secs

     total energy              =     -47.93642508 Ry
     estimated scf accuracy    <       0.00000016 Ry

     iteration #  7     ecut=    80.00 Ry     beta= 0.70
     Davidson diagonalization with overlap
     ethr =  8.56E-10,  avg # of iterations =  2.0

     total cpu time spent up to now is       56.8 secs

     total energy              =     -47.93642510 Ry
     estimated scf accuracy    <          6.6E-09 Ry

     iteration #  8     ecut=    80.00 Ry     beta= 0.70
     Davidson diagonalization with overlap
     ethr =  3.46E-11,  avg # of iterations =  3.2

     total cpu time spent up to now is       58.0 secs

     End of self-consistent calculation

     Number of k-points >= 100: set verbosity='high' to print the bands.

     the Fermi energy is    14.4052 ev

!    total energy              =     -47.93642511 Ry
     estimated scf accuracy    <          5.0E-10 Ry
     smearing contrib. (-TS)   =      -0.00079442 Ry
     internal energy E=F+TS    =     -47.93563069 Ry

     The total energy is F=E-TS. E is the sum of the following terms:
     one-electron contribution =      17.90118357 Ry
     hartree contribution      =       2.89782541 Ry
     xc contribution           =     -16.97767120 Ry
     ewald contribution        =     -51.75696847 Ry

     convergence has been achieved in   8 iterations

     Forces acting on atoms (cartesian axes, Ry/au):

     atom    1 type  1   force =    -0.00000000   -0.00000000    0.00000000
     atom    2 type  2   force =     0.00653144    0.01548442   -0.00000000
     atom    3 type  2   force =    -0.00653144   -0.01548442    0.00000000
     atom    4 type  2   force =    -0.01548442    0.00653144   -0.00000000
     atom    5 type  2   force =     0.01548442   -0.00653144   -0.00000000
     The non-local contrib.  to forces
     atom    1 type  1   force =     0.00000000    0.00000000    0.00000000
     atom    2 type  2   force =    -0.02148031   -0.01367392   -0.00000000
     atom    3 type  2   force =     0.02148031    0.01367392   -0.00000000
     atom    4 type  2   force =     0.01367392   -0.02148031   -0.00000000
     atom    5 type  2   force =    -0.01367392    0.02148031    0.00000000
     The ionic contribution  to forces
     atom    1 type  1   force =     0.00000000    0.00000000    0.00000000
     atom    2 type  2   force =    -0.02000486    0.04278300    0.00000000
     atom    3 type  2   force =     0.02000486   -0.04278300    0.00000000
     atom    4 type  2   force =    -0.04278300   -0.02000486   -0.00000000
     atom    5 type  2   force =     0.04278300    0.02000486    0.00000000
     The local contribution  to forces
     atom    1 type  1   force =    -0.00000000   -0.00000000    0.00000000
     atom    2 type  2   force =     0.04618501   -0.01351245    0.00000000
     atom    3 type  2   force =    -0.04618501    0.01351245    0.00000000
     atom    4 type  2   force =     0.01351245    0.04618501   -0.00000000
     atom    5 type  2   force =    -0.01351245   -0.04618501    0.00000000
     The core correction contribution to forces
     atom    1 type  1   force =     0.00000000    0.00000000    0.00000000
     atom    2 type  2   force =     0.00183052   -0.00011967   -0.00000000
     atom    3 type  2   force =    -0.00183052    0.00011967   -0.00000000
     atom    4 type  2   force =     0.00011967    0.00183052    0.00000000
     atom    5 type  2   force =    -0.00011967   -0.00183052   -0.00000000
     The Hubbard contrib.    to forces
     atom    1 type  1   force =     0.00000000    0.00000000    0.00000000
     atom    2 type  2   force =     0.00000000    0.00000000    0.00000000
     atom    3 type  2   force =     0.00000000    0.00000000    0.00000000
     atom    4 type  2   force =     0.00000000    0.00000000    0.00000000
     atom    5 type  2   force =     0.00000000    0.00000000    0.00000000
     The SCF correction term to forces
     atom    1 type  1   force =    -0.00000000   -0.00000000   -0.00000000
     atom    2 type  2   force =     0.00000109    0.00000748    0.00000000
     atom    3 type  2   force =    -0.00000109   -0.00000748   -0.00000000
     atom    4 type  2   force =    -0.00000748    0.00000109   -0.00000000
     atom    5 type  2   force =     0.00000748   -0.00000109    0.00000000

     Total force =     0.033611     Total SCF correction =     0.000015


     Computing stress (Cartesian axis) and pressure

          total   stress  (Ry/bohr**3)                   (kbar)     P=      546.56
   0.00346457  -0.00000000  -0.00000000          509.66       -0.00       -0.00
   0.00000000   0.00346457   0.00000000            0.00      509.66        0.00
  -0.00000000   0.00000000   0.00421713           -0.00        0.00      620.36

     Energy error            =      6.9E-02 Ry
     Gradient error          =      1.5E-02 Ry/Bohr
     Cell gradient error     =      1.2E+02 kbar

     number of scf cycles    =   4
     number of bfgs steps    =   3

     enthalpy           old  =     -46.7373322166 Ry
     enthalpy           new  =     -46.8060874489 Ry

     CASE: enthalpy          _new < enthalpy          _old

     new trust radius        =       0.1118048401 bohr
ibrav =      7
 celldm(1) =     10.57739426
 celldm(3) =      0.57071504
Input lattice vectors:
     0.59697457    -0.59697457     0.34070237
     0.59697457     0.59697457     0.34070237
    -0.59697457    -0.59697457     0.34070237
New lattice vectors in INITIAL alat:
     0.59697457    -0.59697457     0.34070237
     0.59697457     0.59697457     0.34070237
    -0.59697457    -0.59697457     0.34070237
New lattice vectors in NEW alat (for information only):
     0.50000000    -0.50000000     0.28535752
     0.50000000     0.50000000     0.28535752
    -0.50000000    -0.50000000     0.28535752
Discrepancy in bohr =     0.000000    0.000000    0.000000
     new conv_thr            =       0.0000000015 Ry

     new unit-cell volume =    337.69560 a.u.^3 (    50.04132 Ang^3 )
     density =      3.95821 g/cm^3

CELL_PARAMETERS (alat=  8.85916648)
   0.596974574  -0.596974574   0.340702366
   0.596974574   0.596974574   0.340702366
  -0.596974574  -0.596974574   0.340702366

ATOMIC_POSITIONS (crystal)
Li           -0.0000000000        0.5000000000        0.5000000000
Si           -0.6079737720        0.7084035792       -0.1004298072
Si            0.6079737720        0.2915964208       -0.8995701928
Si            0.1911666136        0.1004298072       -0.2915964208
Si           -0.1911666136        0.8995701928       -0.7084035792



     Writing config-only to output data dir ./output/LiSi.save/
     NEW-OLD atomic charge density approx. for the potential
     extrapolated charge   19.28902, renormalised to   19.00000

     total cpu time spent up to now is       59.6 secs

     Self-consistent Calculation

     iteration #  1     ecut=    80.00 Ry     beta= 0.70
     Davidson diagonalization with overlap
     c_bands:  1 eigenvalues not converged
     c_bands:  1 eigenvalues not converged
     c_bands:  1 eigenvalues not converged
     c_bands:  1 eigenvalues not converged
     c_bands:  1 eigenvalues not converged
     c_bands:  1 eigenvalues not converged
     c_bands:  1 eigenvalues not converged
     c_bands:  1 eigenvalues not converged
     c_bands:  1 eigenvalues not converged
     ethr =  1.00E-06,  avg # of iterations = 11.5

     total cpu time spent up to now is       62.4 secs

     total energy              =     -47.96039806 Ry
     estimated scf accuracy    <       0.00052536 Ry

     iteration #  2     ecut=    80.00 Ry     beta= 0.70
     Davidson diagonalization with overlap
     ethr =  2.77E-06,  avg # of iterations =  2.1

     total cpu time spent up to now is       63.6 secs

     total energy              =     -47.96066387 Ry
     estimated scf accuracy    <       0.00010882 Ry

     iteration #  3     ecut=    80.00 Ry     beta= 0.70
     Davidson diagonalization with overlap
     ethr =  5.73E-07,  avg # of iterations =  2.1

     total cpu time spent up to now is       64.6 secs

     total energy              =     -47.96068105 Ry
     estimated scf accuracy    <       0.00000826 Ry

     iteration #  4     ecut=    80.00 Ry     beta= 0.70
     Davidson diagonalization with overlap
     ethr =  4.35E-08,  avg # of iterations =  2.0

     total cpu time spent up to now is       65.6 secs

     total energy              =     -47.96068219 Ry
     estimated scf accuracy    <       0.00000063 Ry

     iteration #  5     ecut=    80.00 Ry     beta= 0.70
     Davidson diagonalization with overlap
     ethr =  3.30E-09,  avg # of iterations =  2.0

     total cpu time spent up to now is       66.6 secs

     total energy              =     -47.96068226 Ry
     estimated scf accuracy    <       0.00000005 Ry

     iteration #  6     ecut=    80.00 Ry     beta= 0.70
     Davidson diagonalization with overlap
     ethr =  2.39E-10,  avg # of iterations =  3.0

     total cpu time spent up to now is       67.7 secs

     total energy              =     -47.96068227 Ry
     estimated scf accuracy    <          2.3E-09 Ry

     iteration #  7     ecut=    80.00 Ry     beta= 0.70
     Davidson diagonalization with overlap
     ethr =  1.20E-11,  avg # of iterations =  3.5

     total cpu time spent up to now is       68.9 secs

     End of self-consistent calculation

     Number of k-points >= 100: set verbosity='high' to print the bands.

     the Fermi energy is    14.1051 ev

!    total energy              =     -47.96068227 Ry
     estimated scf accuracy    <          9.9E-11 Ry
     smearing contrib. (-TS)   =      -0.00001525 Ry
     internal energy E=F+TS    =     -47.96066702 Ry

     The total energy is F=E-TS. E is the sum of the following terms:
     one-electron contribution =      17.53733480 Ry
     hartree contribution      =       2.91073554 Ry
     xc contribution           =     -16.91860297 Ry
     ewald contribution        =     -51.49013439 Ry

     convergence has been achieved in   7 iterations

     Forces acting on atoms (cartesian axes, Ry/au):

     atom    1 type  1   force =    -0.00000000   -0.00000000    0.00000000
     atom    2 type  2   force =     0.00386591   -0.00165889   -0.00000000
     atom    3 type  2   force =    -0.00386591    0.00165889   -0.00000000
     atom    4 type  2   force =     0.00165889    0.00386591    0.00000000
     atom    5 type  2   force =    -0.00165889   -0.00386591   -0.00000000
     The non-local contrib.  to forces
     atom    1 type  1   force =    -0.00000000   -0.00000000    0.00000000
     atom    2 type  2   force =    -0.02622138   -0.02680658   -0.00000000
     atom    3 type  2   force =     0.02622138    0.02680658    0.00000000
     atom    4 type  2   force =     0.02680658   -0.02622138   -0.00000000
     atom    5 type  2   force =    -0.02680658    0.02622138   -0.00000000
     The ionic contribution  to forces
     atom    1 type  1   force =     0.00000000    0.00000000    0.00000000
     atom    2 type  2   force =    -0.03627186   -0.06077573    0.00000000
     atom    3 type  2   force =     0.03627186    0.06077573   -0.00000000
     atom    4 type  2   force =     0.06077573   -0.03627186   -0.00000000
     atom    5 type  2   force =    -0.06077573    0.03627186   -0.00000000
     The local contribution  to forces
     atom    1 type  1   force =     0.00000000    0.00000000    0.00000000
     atom    2 type  2   force =     0.06422417    0.08465654    0.00000000
     atom    3 type  2   force =    -0.06422417   -0.08465654    0.00000000
     atom    4 type  2   force =    -0.08465654    0.06422417    0.00000000
     atom    5 type  2   force =     0.08465654   -0.06422417   -0.00000000
     The core correction contribution to forces
     atom    1 type  1   force =     0.00000000    0.00000000    0.00000000
     atom    2 type  2   force =     0.00213576    0.00127164   -0.00000000
     atom    3 type  2   force =    -0.00213576   -0.00127164    0.00000000
     atom    4 type  2   force =    -0.00127164    0.00213576    0.00000000
     atom    5 type  2   force =     0.00127164   -0.00213576    0.00000000
     The Hubbard contrib.    to forces
     atom    1 type  1   force =     0.00000000    0.00000000    0.00000000
     atom    2 type  2   force =     0.00000000    0.00000000    0.00000000
     atom    3 type  2   force =     0.00000000    0.00000000    0.00000000
     atom    4 type  2   force =     0.00000000    0.00000000    0.00000000
     atom    5 type  2   force =     0.00000000    0.00000000    0.00000000
     The SCF correction term to forces
     atom    1 type  1   force =    -0.00000000    0.00000000   -0.00000000
     atom    2 type  2   force =    -0.00000078   -0.00000476    0.00000000
     atom    3 type  2   force =     0.00000078    0.00000476   -0.00000000
     atom    4 type  2   force =     0.00000476   -0.00000078   -0.00000000
     atom    5 type  2   force =    -0.00000476    0.00000078    0.00000000

     Total force =     0.008414     Total SCF correction =     0.000010


     Computing stress (Cartesian axis) and pressure

          total   stress  (Ry/bohr**3)                   (kbar)     P=      481.81
   0.00311756   0.00000000  -0.00000000          458.61        0.00       -0.00
  -0.00000000   0.00311756   0.00000000           -0.00      458.61        0.00
  -0.00000000   0.00000000   0.00359078           -0.00        0.00      528.22

     Energy error            =      6.8E-03 Ry
     Gradient error          =      3.9E-03 Ry/Bohr
     Cell gradient error     =      4.1E+01 kbar

     number of scf cycles    =   5
     number of bfgs steps    =   4

     enthalpy           old  =     -46.8060874489 Ry
     enthalpy           new  =     -46.8128782677 Ry

     CASE: enthalpy          _new < enthalpy          _old

     new trust radius        =       0.0838842516 bohr
ibrav =      7
 celldm(1) =     10.47288215
 celldm(3) =      0.58956625
Input lattice vectors:
     0.59107604    -0.59107604     0.34847848
     0.59107604     0.59107604     0.34847848
    -0.59107604    -0.59107604     0.34847848
New lattice vectors in INITIAL alat:
     0.59107604    -0.59107604     0.34847848
     0.59107604     0.59107604     0.34847848
    -0.59107604    -0.59107604     0.34847848
New lattice vectors in NEW alat (for information only):
     0.50000000    -0.50000000     0.29478312
     0.50000000     0.50000000     0.29478312
    -0.50000000    -0.50000000     0.29478312
Discrepancy in bohr =     0.000000    0.000000    0.000000
     new conv_thr            =       0.0000000004 Ry

     new unit-cell volume =    338.61116 a.u.^3 (    50.17700 Ang^3 )
     density =      3.94751 g/cm^3

CELL_PARAMETERS (alat=  8.85916648)
   0.591076044  -0.591076044   0.348478485
   0.591076044   0.591076044   0.348478485
  -0.591076044  -0.591076044   0.348478485

ATOMIC_POSITIONS (crystal)
Li            0.0000000000        0.5000000000        0.5000000000
Si           -0.6080092865        0.7091902352       -0.1011809486
Si            0.6080092865        0.2908097648       -0.8988190514
Si            0.1896288162        0.1011809486       -0.2908097648
Si           -0.1896288162        0.8988190514       -0.7091902352



     Writing config-only to output data dir ./output/LiSi.save/
     NEW-OLD atomic charge density approx. for the potential
     extrapolated charge   19.05135, renormalised to   19.00000

     total cpu time spent up to now is       70.5 secs

     Self-consistent Calculation

     iteration #  1     ecut=    80.00 Ry     beta= 0.70
     Davidson diagonalization with overlap
     c_bands:  1 eigenvalues not converged
     c_bands:  1 eigenvalues not converged
     c_bands:  1 eigenvalues not converged
     c_bands:  1 eigenvalues not converged
     c_bands:  1 eigenvalues not converged
     c_bands:  1 eigenvalues not converged
     ethr =  1.00E-06,  avg # of iterations = 10.7

     total cpu time spent up to now is       73.0 secs

     total energy              =     -47.96603627 Ry
     estimated scf accuracy    <       0.00006334 Ry

     iteration #  2     ecut=    80.00 Ry     beta= 0.70
     Davidson diagonalization with overlap
     ethr =  3.33E-07,  avg # of iterations =  2.1

     total cpu time spent up to now is       74.0 secs

     total energy              =     -47.96604866 Ry
     estimated scf accuracy    <       0.00000452 Ry

     iteration #  3     ecut=    80.00 Ry     beta= 0.70
     Davidson diagonalization with overlap
     ethr =  2.38E-08,  avg # of iterations =  1.9

     total cpu time spent up to now is       74.9 secs

     total energy              =     -47.96604915 Ry
     estimated scf accuracy    <       0.00000042 Ry

     iteration #  4     ecut=    80.00 Ry     beta= 0.70
     Davidson diagonalization with overlap
     ethr =  2.21E-09,  avg # of iterations =  2.4

     total cpu time spent up to now is       76.0 secs

     total energy              =     -47.96604925 Ry
     estimated scf accuracy    <       0.00000006 Ry

     iteration #  5     ecut=    80.00 Ry     beta= 0.70
     Davidson diagonalization with overlap
     ethr =  3.00E-10,  avg # of iterations =  2.2

     total cpu time spent up to now is       77.0 secs

     total energy              =     -47.96604926 Ry
     estimated scf accuracy    <          1.3E-09 Ry

     iteration #  6     ecut=    80.00 Ry     beta= 0.70
     Davidson diagonalization with overlap
     ethr =  7.03E-12,  avg # of iterations =  4.1

     total cpu time spent up to now is       78.4 secs

     End of self-consistent calculation

     Number of k-points >= 100: set verbosity='high' to print the bands.

     the Fermi energy is    14.0176 ev

!    total energy              =     -47.96604926 Ry
     estimated scf accuracy    <          1.2E-10 Ry
     smearing contrib. (-TS)   =       0.00073931 Ry
     internal energy E=F+TS    =     -47.96678857 Ry

     The total energy is F=E-TS. E is the sum of the following terms:
     one-electron contribution =      17.46712774 Ry
     hartree contribution      =       2.91262614 Ry
     xc contribution           =     -16.90783756 Ry
     ewald contribution        =     -51.43870489 Ry

     convergence has been achieved in   6 iterations

     Forces acting on atoms (cartesian axes, Ry/au):

     atom    1 type  1   force =    -0.00000000    0.00000000    0.00000000
     atom    2 type  2   force =     0.00368858   -0.01000810    0.00000000
     atom    3 type  2   force =    -0.00368858    0.01000810   -0.00000000
     atom    4 type  2   force =     0.01000810    0.00368858    0.00000000
     atom    5 type  2   force =    -0.01000810   -0.00368858    0.00000000
     The non-local contrib.  to forces
     atom    1 type  1   force =     0.00000000    0.00000000    0.00000000
     atom    2 type  2   force =    -0.02634038   -0.03214713   -0.00000000
     atom    3 type  2   force =     0.02634038    0.03214713    0.00000000
     atom    4 type  2   force =     0.03214713   -0.02634038   -0.00000000
     atom    5 type  2   force =    -0.03214713    0.02634038    0.00000000
     The ionic contribution  to forces
     atom    1 type  1   force =    -0.00000000    0.00000000    0.00000000
     atom    2 type  2   force =    -0.03682730   -0.10160841    0.00000000
     atom    3 type  2   force =     0.03682730    0.10160841   -0.00000000
     atom    4 type  2   force =     0.10160841   -0.03682730   -0.00000000
     atom    5 type  2   force =    -0.10160841    0.03682730   -0.00000000
     The local contribution  to forces
     atom    1 type  1   force =     0.00000000    0.00000000    0.00000000
     atom    2 type  2   force =     0.06477773    0.12185386    0.00000000
     atom    3 type  2   force =    -0.06477773   -0.12185386    0.00000000
     atom    4 type  2   force =    -0.12185386    0.06477773    0.00000000
     atom    5 type  2   force =     0.12185386   -0.06477773   -0.00000000
     The core correction contribution to forces
     atom    1 type  1   force =     0.00000000    0.00000000    0.00000000
     atom    2 type  2   force =     0.00207963    0.00189831   -0.00000000
     atom    3 type  2   force =    -0.00207963   -0.00189831   -0.00000000
     atom    4 type  2   force =    -0.00189831    0.00207963    0.00000000
     atom    5 type  2   force =     0.00189831   -0.00207963   -0.00000000
     The Hubbard contrib.    to forces
     atom    1 type  1   force =     0.00000000    0.00000000    0.00000000
     atom    2 type  2   force =     0.00000000    0.00000000    0.00000000
     atom    3 type  2   force =     0.00000000    0.00000000    0.00000000
     atom    4 type  2   force =     0.00000000    0.00000000    0.00000000
     atom    5 type  2   force =     0.00000000    0.00000000    0.00000000
     The SCF correction term to forces
     atom    1 type  1   force =     0.00000000   -0.00000000   -0.00000000
     atom    2 type  2   force =    -0.00000110   -0.00000473   -0.00000000
     atom    3 type  2   force =     0.00000110    0.00000473    0.00000000
     atom    4 type  2   force =     0.00000473   -0.00000110   -0.00000000
     atom    5 type  2   force =    -0.00000473    0.00000110    0.00000000

     Total force =     0.021332     Total SCF correction =     0.000010


     Computing stress (Cartesian axis) and pressure

          total   stress  (Ry/bohr**3)                   (kbar)     P=      462.66
   0.00309029  -0.00000000   0.00000000          454.60       -0.00        0.00
  -0.00000000   0.00309029  -0.00000000           -0.00      454.60       -0.00
   0.00000000   0.00000000   0.00325478            0.00        0.00      478.79

     Energy error            =      2.3E-03 Ry
     Gradient error          =      1.0E-02 Ry/Bohr
     Cell gradient error     =      4.5E+01 kbar

     number of scf cycles    =   6
     number of bfgs steps    =   5

     enthalpy           old  =     -46.8128782677 Ry
     enthalpy           new  =     -46.8151333246 Ry

     CASE: enthalpy          _new < enthalpy          _old

     new trust radius        =       0.0383588649 bohr
ibrav =      7
 celldm(1) =     10.39595751
 celldm(3) =      0.60011914
Input lattice vectors:
     0.58673452    -0.58673452     0.35211061
     0.58673452     0.58673452     0.35211061
    -0.58673452    -0.58673452     0.35211061
New lattice vectors in INITIAL alat:
     0.58673452    -0.58673452     0.35211061
     0.58673452     0.58673452     0.35211061
    -0.58673452    -0.58673452     0.35211061
New lattice vectors in NEW alat (for information only):
     0.50000000    -0.50000000     0.30005957
     0.50000000     0.50000000     0.30005957
    -0.50000000    -0.50000000     0.30005957
Discrepancy in bohr =     0.000000    0.000000    0.000000
     new conv_thr            =       0.0000000010 Ry

     new unit-cell volume =    337.13277 a.u.^3 (    49.95792 Ang^3 )
     density =      3.96482 g/cm^3

CELL_PARAMETERS (alat=  8.85916648)
   0.586734516  -0.586734516   0.352110612
   0.586734516   0.586734516   0.352110612
  -0.586734516  -0.586734516   0.352110612

ATOMIC_POSITIONS (crystal)
Li            0.0000000000        0.5000000000        0.5000000000
Si           -0.6063190635        0.7084121915       -0.1020931279
Si            0.6063190635        0.2915878085       -0.8979068721
Si            0.1894946806        0.1020931279       -0.2915878085
Si           -0.1894946806        0.8979068721       -0.7084121915



     Writing config-only to output data dir ./output/LiSi.save/
     NEW-OLD atomic charge density approx. for the potential
     extrapolated charge   18.91671, renormalised to   19.00000

     total cpu time spent up to now is       79.8 secs

     Self-consistent Calculation

     iteration #  1     ecut=    80.00 Ry     beta= 0.70
     Davidson diagonalization with overlap
     c_bands:  1 eigenvalues not converged
     ethr =  1.00E-06,  avg # of iterations =  7.7

     total cpu time spent up to now is       81.8 secs

     total energy              =     -47.96201531 Ry
     estimated scf accuracy    <       0.00005051 Ry

     iteration #  2     ecut=    80.00 Ry     beta= 0.70
     Davidson diagonalization with overlap
     ethr =  2.66E-07,  avg # of iterations =  2.1

     total cpu time spent up to now is       82.9 secs

     total energy              =     -47.96203782 Ry
     estimated scf accuracy    <       0.00001128 Ry

     iteration #  3     ecut=    80.00 Ry     beta= 0.70
     Davidson diagonalization with overlap
     ethr =  5.94E-08,  avg # of iterations =  2.0

     total cpu time spent up to now is       83.9 secs

     total energy              =     -47.96203966 Ry
     estimated scf accuracy    <       0.00000072 Ry

     iteration #  4     ecut=    80.00 Ry     beta= 0.70
     Davidson diagonalization with overlap
     ethr =  3.78E-09,  avg # of iterations =  2.1

     total cpu time spent up to now is       85.0 secs

     total energy              =     -47.96203980 Ry
     estimated scf accuracy    <       0.00000003 Ry

     iteration #  5     ecut=    80.00 Ry     beta= 0.70
     Davidson diagonalization with overlap
     ethr =  1.80E-10,  avg # of iterations =  3.4

     total cpu time spent up to now is       86.1 secs

     total energy              =     -47.96203981 Ry
     estimated scf accuracy    <          2.1E-09 Ry

     iteration #  6     ecut=    80.00 Ry     beta= 0.70
     Davidson diagonalization with overlap
     ethr =  1.10E-11,  avg # of iterations =  3.2

     total cpu time spent up to now is       87.3 secs

     End of self-consistent calculation

     Number of k-points >= 100: set verbosity='high' to print the bands.

     the Fermi energy is    14.0742 ev

!    total energy              =     -47.96203981 Ry
     estimated scf accuracy    <          5.4E-11 Ry
     smearing contrib. (-TS)   =       0.00052308 Ry
     internal energy E=F+TS    =     -47.96256289 Ry

     The total energy is F=E-TS. E is the sum of the following terms:
     one-electron contribution =      17.57025728 Ry
     hartree contribution      =       2.90605224 Ry
     xc contribution           =     -16.92381781 Ry
     ewald contribution        =     -51.51505461 Ry

     convergence has been achieved in   6 iterations

     Forces acting on atoms (cartesian axes, Ry/au):

     atom    1 type  1   force =     0.00000000   -0.00000000   -0.00000000
     atom    2 type  2   force =     0.00306942   -0.00913386    0.00000000
     atom    3 type  2   force =    -0.00306942    0.00913386    0.00000000
     atom    4 type  2   force =     0.00913386    0.00306942    0.00000000
     atom    5 type  2   force =    -0.00913386   -0.00306942    0.00000000
     The non-local contrib.  to forces
     atom    1 type  1   force =     0.00000000    0.00000000    0.00000000
     atom    2 type  2   force =    -0.02732591   -0.02934400    0.00000000
     atom    3 type  2   force =     0.02732591    0.02934400    0.00000000
     atom    4 type  2   force =     0.02934400   -0.02732591    0.00000000
     atom    5 type  2   force =    -0.02934400    0.02732591   -0.00000000
     The ionic contribution  to forces
     atom    1 type  1   force =     0.00000000    0.00000000    0.00000000
     atom    2 type  2   force =    -0.03459518   -0.08914760   -0.00000000
     atom    3 type  2   force =     0.03459518    0.08914760   -0.00000000
     atom    4 type  2   force =     0.08914760   -0.03459518   -0.00000000
     atom    5 type  2   force =    -0.08914760    0.03459518    0.00000000
     The local contribution  to forces
     atom    1 type  1   force =     0.00000000    0.00000000   -0.00000000
     atom    2 type  2   force =     0.06291207    0.10759572   -0.00000000
     atom    3 type  2   force =    -0.06291207   -0.10759572    0.00000000
     atom    4 type  2   force =    -0.10759572    0.06291207    0.00000000
     atom    5 type  2   force =     0.10759572   -0.06291207   -0.00000000
     The core correction contribution to forces
     atom    1 type  1   force =     0.00000000    0.00000000    0.00000000
     atom    2 type  2   force =     0.00207769    0.00175880   -0.00000000
     atom    3 type  2   force =    -0.00207769   -0.00175880    0.00000000
     atom    4 type  2   force =    -0.00175880    0.00207769    0.00000000
     atom    5 type  2   force =     0.00175880   -0.00207769   -0.00000000
     The Hubbard contrib.    to forces
     atom    1 type  1   force =     0.00000000    0.00000000    0.00000000
     atom    2 type  2   force =     0.00000000    0.00000000    0.00000000
     atom    3 type  2   force =     0.00000000    0.00000000    0.00000000
     atom    4 type  2   force =     0.00000000    0.00000000    0.00000000
     atom    5 type  2   force =     0.00000000    0.00000000    0.00000000
     The SCF correction term to forces
     atom    1 type  1   force =    -0.00000000   -0.00000000    0.00000000
     atom    2 type  2   force =     0.00000076    0.00000322    0.00000000
     atom    3 type  2   force =    -0.00000076   -0.00000322   -0.00000000
     atom    4 type  2   force =    -0.00000322    0.00000076   -0.00000000
     atom    5 type  2   force =     0.00000322   -0.00000076    0.00000000

     Total force =     0.019272     Total SCF correction =     0.000007


     Computing stress (Cartesian axis) and pressure

          total   stress  (Ry/bohr**3)                   (kbar)     P=      471.01
   0.00321280  -0.00000000  -0.00000000          472.62       -0.00       -0.00
   0.00000000   0.00321280   0.00000000            0.00      472.62        0.00
  -0.00000000  -0.00000000   0.00318004           -0.00       -0.00      467.80

     Energy error            =      1.0E-03 Ry
     Gradient error          =      9.1E-03 Ry/Bohr
     Cell gradient error     =      3.2E+01 kbar

     number of scf cycles    =   7
     number of bfgs steps    =   6

     enthalpy           old  =     -46.8151333246 Ry
     enthalpy           new  =     -46.8161488164 Ry

     CASE: enthalpy          _new < enthalpy          _old

     new trust radius        =       0.0217705155 bohr
ibrav =      7
 celldm(1) =     10.34201824
 celldm(3) =      0.60458234
Input lattice vectors:
     0.58369025    -0.58369025     0.35288882
     0.58369025     0.58369025     0.35288882
    -0.58369025    -0.58369025     0.35288882
New lattice vectors in INITIAL alat:
     0.58369025    -0.58369025     0.35288882
     0.58369025     0.58369025     0.35288882
    -0.58369025    -0.58369025     0.35288882
New lattice vectors in NEW alat (for information only):
     0.50000000    -0.50000000     0.30229117
     0.50000000     0.50000000     0.30229117
    -0.50000000    -0.50000000     0.30229117
Discrepancy in bohr =     0.000000    0.000000    0.000000
     new conv_thr            =       0.0000000009 Ry

     new unit-cell volume =    334.38082 a.u.^3 (    49.55013 Ang^3 )
     density =      3.99745 g/cm^3

CELL_PARAMETERS (alat=  8.85916648)
   0.583690253  -0.583690253   0.352888821
   0.583690253   0.583690253   0.352888821
  -0.583690253  -0.583690253   0.352888821

ATOMIC_POSITIONS (crystal)
Li           -0.0000000000        0.5000000000        0.5000000000
Si           -0.6034114579        0.7066770464       -0.1032655885
Si            0.6034114579        0.2933229536       -0.8967344115
Si            0.1900573651        0.1032655885       -0.2933229536
Si           -0.1900573651        0.8967344115       -0.7066770464



     Writing config-only to output data dir ./output/LiSi.save/
     NEW-OLD atomic charge density approx. for the potential
     extrapolated charge   18.84369, renormalised to   19.00000

     total cpu time spent up to now is       88.8 secs

     Self-consistent Calculation

     iteration #  1     ecut=    80.00 Ry     beta= 0.70
     Davidson diagonalization with overlap
     c_bands:  1 eigenvalues not converged
     ethr =  1.00E-06,  avg # of iterations =  6.8

     total cpu time spent up to now is       90.7 secs

     total energy              =     -47.95338724 Ry
     estimated scf accuracy    <       0.00015198 Ry

     iteration #  2     ecut=    80.00 Ry     beta= 0.70
     Davidson diagonalization with overlap
     ethr =  8.00E-07,  avg # of iterations =  2.0

     total cpu time spent up to now is       91.8 secs

     total energy              =     -47.95346677 Ry
     estimated scf accuracy    <       0.00003634 Ry

     iteration #  3     ecut=    80.00 Ry     beta= 0.70
     Davidson diagonalization with overlap
     ethr =  1.91E-07,  avg # of iterations =  2.0

     total cpu time spent up to now is       92.8 secs

     total energy              =     -47.95347274 Ry
     estimated scf accuracy    <       0.00000173 Ry

     iteration #  4     ecut=    80.00 Ry     beta= 0.70
     Davidson diagonalization with overlap
     ethr =  9.12E-09,  avg # of iterations =  2.0

     total cpu time spent up to now is       93.9 secs

     total energy              =     -47.95347276 Ry
     estimated scf accuracy    <       0.00000032 Ry

     iteration #  5     ecut=    80.00 Ry     beta= 0.70
     Davidson diagonalization with overlap
     ethr =  1.66E-09,  avg # of iterations =  2.0

     total cpu time spent up to now is       94.9 secs

     total energy              =     -47.95347282 Ry
     estimated scf accuracy    <       0.00000001 Ry

     iteration #  6     ecut=    80.00 Ry     beta= 0.70
     Davidson diagonalization with overlap
     ethr =  6.90E-11,  avg # of iterations =  3.8

     total cpu time spent up to now is       96.1 secs

     total energy              =     -47.95347282 Ry
     estimated scf accuracy    <          1.9E-09 Ry

     iteration #  7     ecut=    80.00 Ry     beta= 0.70
     Davidson diagonalization with overlap
     ethr =  1.01E-11,  avg # of iterations =  2.0

     total cpu time spent up to now is       97.1 secs

     End of self-consistent calculation

     Number of k-points >= 100: set verbosity='high' to print the bands.

     the Fermi energy is    14.1946 ev

!    total energy              =     -47.95347282 Ry
     estimated scf accuracy    <          7.3E-11 Ry
     smearing contrib. (-TS)   =       0.00059093 Ry
     internal energy E=F+TS    =     -47.95406376 Ry

     The total energy is F=E-TS. E is the sum of the following terms:
     one-electron contribution =      17.76303662 Ry
     hartree contribution      =       2.89631607 Ry
     xc contribution           =     -16.95421507 Ry
     ewald contribution        =     -51.65920138 Ry

     convergence has been achieved in   7 iterations

     Forces acting on atoms (cartesian axes, Ry/au):

     atom    1 type  1   force =     0.00000000    0.00000000    0.00000000
     atom    2 type  2   force =     0.00103946   -0.00261486   -0.00000000
     atom    3 type  2   force =    -0.00103946    0.00261486    0.00000000
     atom    4 type  2   force =     0.00261486    0.00103946   -0.00000000
     atom    5 type  2   force =    -0.00261486   -0.00103946   -0.00000000
     The non-local contrib.  to forces
     atom    1 type  1   force =     0.00000000    0.00000000    0.00000000
     atom    2 type  2   force =    -0.03090931   -0.02081292   -0.00000000
     atom    3 type  2   force =     0.03090931    0.02081292    0.00000000
     atom    4 type  2   force =     0.02081292   -0.03090931   -0.00000000
     atom    5 type  2   force =    -0.02081292    0.03090931    0.00000000
     The ionic contribution  to forces
     atom    1 type  1   force =    -0.00000000   -0.00000000    0.00000000
     atom    2 type  2   force =    -0.03352287   -0.04576525   -0.00000000
     atom    3 type  2   force =     0.03352287    0.04576525   -0.00000000
     atom    4 type  2   force =     0.04576525   -0.03352287   -0.00000000
     atom    5 type  2   force =    -0.04576525    0.03352287    0.00000000
     The local contribution  to forces
     atom    1 type  1   force =     0.00000000    0.00000000   -0.00000000
     atom    2 type  2   force =     0.06322457    0.06285158   -0.00000000
     atom    3 type  2   force =    -0.06322457   -0.06285158    0.00000000
     atom    4 type  2   force =    -0.06285158    0.06322457    0.00000000
     atom    5 type  2   force =     0.06285158   -0.06322457    0.00000000
     The core correction contribution to forces
     atom    1 type  1   force =     0.00000000    0.00000000    0.00000000
     atom    2 type  2   force =     0.00224595    0.00110672    0.00000000
     atom    3 type  2   force =    -0.00224595   -0.00110672    0.00000000
     atom    4 type  2   force =    -0.00110672    0.00224595    0.00000000
     atom    5 type  2   force =     0.00110672   -0.00224595   -0.00000000
     The Hubbard contrib.    to forces
     atom    1 type  1   force =     0.00000000    0.00000000    0.00000000
     atom    2 type  2   force =     0.00000000    0.00000000    0.00000000
     atom    3 type  2   force =     0.00000000    0.00000000    0.00000000
     atom    4 type  2   force =     0.00000000    0.00000000    0.00000000
     atom    5 type  2   force =     0.00000000    0.00000000    0.00000000
     The SCF correction term to forces
     atom    1 type  1   force =    -0.00000000   -0.00000000   -0.00000000
     atom    2 type  2   force =     0.00000111    0.00000501   -0.00000000
     atom    3 type  2   force =    -0.00000111   -0.00000501    0.00000000
     atom    4 type  2   force =    -0.00000501    0.00000111    0.00000000
     atom    5 type  2   force =     0.00000501   -0.00000111   -0.00000000

     Total force =     0.005628     Total SCF correction =     0.000010


     Computing stress (Cartesian axis) and pressure

          total   stress  (Ry/bohr**3)                   (kbar)     P=      494.45
   0.00337791   0.00000000  -0.00000000          496.91        0.00       -0.00
  -0.00000000   0.00337791  -0.00000000           -0.00      496.91       -0.00
  -0.00000000   0.00000000   0.00332780           -0.00        0.00      489.54

     Energy error            =      7.9E-04 Ry
     Gradient error          =      2.6E-03 Ry/Bohr
     Cell gradient error     =      1.0E+01 kbar

     number of scf cycles    =   8
     number of bfgs steps    =   7

     enthalpy           old  =     -46.8161488164 Ry
     enthalpy           new  =     -46.8169355047 Ry

     CASE: enthalpy          _new < enthalpy          _old

     new trust radius        =       0.0061764781 bohr
ibrav =      7
 celldm(1) =     10.34086362
 celldm(3) =      0.60368932
Input lattice vectors:
     0.58362509    -0.58362509     0.35232823
     0.58362509     0.58362509     0.35232823
    -0.58362509    -0.58362509     0.35232823
New lattice vectors in INITIAL alat:
     0.58362509    -0.58362509     0.35232823
     0.58362509     0.58362509     0.35232823
    -0.58362509    -0.58362509     0.35232823
New lattice vectors in NEW alat (for information only):
     0.50000000    -0.50000000     0.30184466
     0.50000000     0.50000000     0.30184466
    -0.50000000    -0.50000000     0.30184466
Discrepancy in bohr =     0.000000    0.000000    0.000000
     new conv_thr            =       0.0000000003 Ry

     new unit-cell volume =    333.77509 a.u.^3 (    49.46037 Ang^3 )
     density =      4.00470 g/cm^3

CELL_PARAMETERS (alat=  8.85916648)
   0.583625088  -0.583625088   0.352328230
   0.583625088   0.583625088   0.352328230
  -0.583625088  -0.583625088   0.352328230

ATOMIC_POSITIONS (crystal)
Li            0.0000000000        0.5000000000        0.5000000000
Si           -0.6026031031        0.7061504863       -0.1035473832
Si            0.6026031031        0.2938495137       -0.8964526168
Si            0.1903021305        0.1035473832       -0.2938495137
Si           -0.1903021305        0.8964526168       -0.7061504863



     Writing config-only to output data dir ./output/LiSi.save/
     NEW-OLD atomic charge density approx. for the potential
     extrapolated charge   18.96553, renormalised to   19.00000

     total cpu time spent up to now is       98.5 secs

     Self-consistent Calculation

     iteration #  1     ecut=    80.00 Ry     beta= 0.70
     Davidson diagonalization with overlap
     ethr =  1.00E-06,  avg # of iterations =  3.0

     Threshold (ethr) on eigenvalues was too large:
     Diagonalizing with lowered threshold

     Davidson diagonalization with overlap
     ethr =  3.64E-08,  avg # of iterations =  3.8

     total cpu time spent up to now is      101.0 secs

     total energy              =     -47.95146574 Ry
     estimated scf accuracy    <       0.00001036 Ry

     iteration #  2     ecut=    80.00 Ry     beta= 0.70
     Davidson diagonalization with overlap
     ethr =  5.45E-08,  avg # of iterations =  2.0

     total cpu time spent up to now is      102.0 secs

     total energy              =     -47.95147030 Ry
     estimated scf accuracy    <       0.00000223 Ry

     iteration #  3     ecut=    80.00 Ry     beta= 0.70
     Davidson diagonalization with overlap
     ethr =  1.17E-08,  avg # of iterations =  2.0

     total cpu time spent up to now is      103.0 secs

     total energy              =     -47.95147070 Ry
     estimated scf accuracy    <       0.00000011 Ry

     iteration #  4     ecut=    80.00 Ry     beta= 0.70
     Davidson diagonalization with overlap
     ethr =  5.65E-10,  avg # of iterations =  2.1

     total cpu time spent up to now is      104.0 secs

     total energy              =     -47.95147071 Ry
     estimated scf accuracy    <          7.9E-09 Ry

     iteration #  5     ecut=    80.00 Ry     beta= 0.70
     Davidson diagonalization with overlap
     ethr =  4.17E-11,  avg # of iterations =  2.3

     total cpu time spent up to now is      105.0 secs

     total energy              =     -47.95147071 Ry
     estimated scf accuracy    <          4.4E-10 Ry

     iteration #  6     ecut=    80.00 Ry     beta= 0.70
     Davidson diagonalization with overlap
     ethr =  2.31E-12,  avg # of iterations =  3.7

     total cpu time spent up to now is      106.2 secs

     End of self-consistent calculation

     Number of k-points >= 100: set verbosity='high' to print the bands.

     the Fermi energy is    14.2254 ev

!    total energy              =     -47.95147071 Ry
     estimated scf accuracy    <          3.7E-11 Ry
     smearing contrib. (-TS)   =       0.00058424 Ry
     internal energy E=F+TS    =     -47.95205495 Ry

     The total energy is F=E-TS. E is the sum of the following terms:
     one-electron contribution =      17.80552034 Ry
     hartree contribution      =       2.89450346 Ry
     xc contribution           =     -16.96124338 Ry
     ewald contribution        =     -51.69083537 Ry

     convergence has been achieved in   6 iterations

     Forces acting on atoms (cartesian axes, Ry/au):

     atom    1 type  1   force =     0.00000000    0.00000000   -0.00000000
     atom    2 type  2   force =     0.00058436    0.00009015   -0.00000000
     atom    3 type  2   force =    -0.00058436   -0.00009015   -0.00000000
     atom    4 type  2   force =    -0.00009015    0.00058436    0.00000000
     atom    5 type  2   force =     0.00009015   -0.00058436    0.00000000
     The non-local contrib.  to forces
     atom    1 type  1   force =     0.00000000    0.00000000    0.00000000
     atom    2 type  2   force =    -0.03225043   -0.01841629    0.00000000
     atom    3 type  2   force =     0.03225043    0.01841629   -0.00000000
     atom    4 type  2   force =     0.01841629   -0.03225043    0.00000000
     atom    5 type  2   force =    -0.01841629    0.03225043   -0.00000000
     The ionic contribution  to forces
     atom    1 type  1   force =    -0.00000000   -0.00000000    0.00000000
     atom    2 type  2   force =    -0.03376589   -0.03101028    0.00000000
     atom    3 type  2   force =     0.03376589    0.03101028   -0.00000000
     atom    4 type  2   force =     0.03101028   -0.03376589   -0.00000000
     atom    5 type  2   force =    -0.03101028    0.03376589    0.00000000
     The local contribution  to forces
     atom    1 type  1   force =     0.00000000    0.00000000   -0.00000000
     atom    2 type  2   force =     0.06427251    0.04861425   -0.00000000
     atom    3 type  2   force =    -0.06427251   -0.04861425   -0.00000000
     atom    4 type  2   force =    -0.04861425    0.06427251    0.00000000
     atom    5 type  2   force =     0.04861425   -0.06427251   -0.00000000
     The core correction contribution to forces
     atom    1 type  1   force =     0.00000000    0.00000000    0.00000000
     atom    2 type  2   force =     0.00232759    0.00089898   -0.00000000
     atom    3 type  2   force =    -0.00232759   -0.00089898   -0.00000000
     atom    4 type  2   force =    -0.00089898    0.00232759    0.00000000
     atom    5 type  2   force =     0.00089898   -0.00232759   -0.00000000
     The Hubbard contrib.    to forces
     atom    1 type  1   force =     0.00000000    0.00000000    0.00000000
     atom    2 type  2   force =     0.00000000    0.00000000    0.00000000
     atom    3 type  2   force =     0.00000000    0.00000000    0.00000000
     atom    4 type  2   force =     0.00000000    0.00000000    0.00000000
     atom    5 type  2   force =     0.00000000    0.00000000    0.00000000
     The SCF correction term to forces
     atom    1 type  1   force =     0.00000000    0.00000000    0.00000000
     atom    2 type  2   force =     0.00000059    0.00000349    0.00000000
     atom    3 type  2   force =    -0.00000059   -0.00000349   -0.00000000
     atom    4 type  2   force =    -0.00000349    0.00000059    0.00000000
     atom    5 type  2   force =     0.00000349   -0.00000059   -0.00000000

     Total force =     0.001183     Total SCF correction =     0.000007


     Computing stress (Cartesian axis) and pressure

          total   stress  (Ry/bohr**3)                   (kbar)     P=      500.52
   0.00340488  -0.00000000  -0.00000000          500.87       -0.00       -0.00
   0.00000000   0.00340488   0.00000000            0.00      500.87        0.00
  -0.00000000   0.00000000   0.00339767           -0.00        0.00      499.81

     Energy error            =      5.7E-05 Ry
     Gradient error          =      5.8E-04 Ry/Bohr
     Cell gradient error     =      8.7E-01 kbar
ibrav =      7
 celldm(1) =     10.34086362
 celldm(3) =      0.60368932
Input lattice vectors:
     0.58362509    -0.58362509     0.35232823
     0.58362509     0.58362509     0.35232823
    -0.58362509    -0.58362509     0.35232823
New lattice vectors in INITIAL alat:
     0.58362509    -0.58362509     0.35232823
     0.58362509     0.58362509     0.35232823
    -0.58362509    -0.58362509     0.35232823
New lattice vectors in NEW alat (for information only):
     0.50000000    -0.50000000     0.30184466
     0.50000000     0.50000000     0.30184466
    -0.50000000    -0.50000000     0.30184466
Discrepancy in bohr =     0.000000    0.000000    0.000000

     bfgs converged in   9 scf cycles and   8 bfgs steps
     (criteria: energy <  1.0E-04 Ry, force <  1.0E-03 Ry/Bohr, cell <  1.0E+00 kbar)

     End of BFGS Geometry Optimization

     Final enthalpy           =     -46.8169922267 Ry

     File ./output/LiSi.bfgs deleted, as requested
Begin final coordinates
     new unit-cell volume =    333.77509 a.u.^3 (    49.46037 Ang^3 )
     density =      4.00470 g/cm^3

CELL_PARAMETERS (alat=  8.85916648)
   0.583625088  -0.583625088   0.352328230
   0.583625088   0.583625088   0.352328230
  -0.583625088  -0.583625088   0.352328230

ATOMIC_POSITIONS (crystal)
Li            0.0000000000        0.5000000000        0.5000000000
Si           -0.6026031031        0.7061504863       -0.1035473832
Si            0.6026031031        0.2938495137       -0.8964526168
Si            0.1903021305        0.1035473832       -0.2938495137
Si           -0.1903021305        0.8964526168       -0.7061504863
End final coordinates



     Writing config-only to output data dir ./output/LiSi.save/

     Final scf calculation at the relaxed structure.
     The G-vectors are recalculated for the final unit cell
     Results may differ from those at the preceding step.

     Parallelization info
     --------------------
     sticks:   dense  smooth     PW     G-vecs:    dense   smooth      PW
     Min         199     199     63                 4045     4045     718
     Max         200     200     64                 4047     4047     719
     Sum        1595    1595    507                32369    32369    5751

     Using Slab Decomposition



     bravais-lattice index     =            7
     lattice parameter (alat)  =       8.8592  a.u.
     unit-cell volume          =     333.7751 (a.u.)^3
     number of atoms/cell      =            5
     number of atomic types    =            2
     number of electrons       =        19.00
     number of Kohn-Sham states=           14
     kinetic-energy cutoff     =      80.0000  Ry
     charge density cutoff     =     320.0000  Ry
     scf convergence threshold =      2.6E-10
     mixing beta               =       0.7000
     number of iterations used =            8  plain     mixing
     press convergence thresh. =      1.0E+00
     Exchange-correlation= PBE
                           (   1   4   3   4   0   0   0)

     celldm(1)=   8.859166  celldm(2)=   0.000000  celldm(3)=   0.474454
     celldm(4)=   0.000000  celldm(5)=   0.000000  celldm(6)=   0.000000

     crystal axes: (cart. coord. in units of alat)
               a(1) = (   0.583625  -0.583625   0.352328 )  
               a(2) = (   0.583625   0.583625   0.352328 )  
               a(3) = (  -0.583625  -0.583625   0.352328 )  

     reciprocal axes: (cart. coord. in units 2 pi/alat)
               b(1) = (  0.856714 -0.856714  0.000000 )  
               b(2) = (  0.000000  0.856714  1.419131 )  
               b(3) = ( -0.856714 -0.000000  1.419131 )  


     PseudoPot. # 1 for Li read from file:
     ../pseudo/Li_ONCV_PBE_sr.upf
     MD5 check sum: 50ff420e78310ffa21704f3361e624a4
     Pseudo is Norm-conserving, Zval =  3.0
     Generated using ONCVPSP code by D. R. Hamann
     Using radial grid of 1944 points,  4 beta functions with: 
                l(1) =   0
                l(2) =   0
                l(3) =   1
                l(4) =   1

     PseudoPot. # 2 for Si read from file:
     ../pseudo/Si_ONCV_PBE_sr.upf
     MD5 check sum: e543d271109d17c80368dfa7c482276d
     Pseudo is Norm-conserving + core correction, Zval =  4.0
     Generated using ONCVPSP code by D. R. Hamann
     Using radial grid of 1510 points,  6 beta functions with: 
                l(1) =   0
                l(2) =   0
                l(3) =   1
                l(4) =   1
                l(5) =   2
                l(6) =   2

     atomic species   valence    mass     pseudopotential
        Li             3.00     6.94100     Li( 1.00)
        Si             4.00    28.08550     Si( 1.00)

      8 Sym. Ops., with inversion, found



   Cartesian axes

     site n.     atom                  positions (alat units)
         1           Li  tau(   1) = (  -0.0000000  -0.0000000   0.3523282  )
         2           Si  tau(   2) = (   0.1208657   0.8242543  -0.0000000  )
         3           Si  tau(   3) = (   1.0463845   0.3429959  -0.0000000  )
         4           Si  tau(   4) = (   0.3429959   0.1208657   0.0000000  )
         5           Si  tau(   5) = (   0.8242543   1.0463845  -0.0000000  )

     number of k points=   120  Marzari-Vanderbilt smearing, width (Ry)=  0.0200

     Number of k-points >= 100: set verbosity='high' to print them.

     Dense  grid:    32369 G-vectors     FFT dimensions: (  45,  45,  45)

     Estimated max dynamical RAM per process >      28.29 MB

     Estimated total dynamical RAM >     226.29 MB

     Initial potential from superposition of free atoms

     starting charge      18.9930, renormalised to      19.0000
     Starting wfcs are   18 randomized atomic wfcs

     total cpu time spent up to now is      108.6 secs

     Self-consistent Calculation

     iteration #  1     ecut=    80.00 Ry     beta= 0.70
     Davidson diagonalization with overlap
     c_bands:  2 eigenvalues not converged
     c_bands:  1 eigenvalues not converged
     c_bands:  1 eigenvalues not converged
     c_bands:  1 eigenvalues not converged
     c_bands:  2 eigenvalues not converged
     c_bands:  1 eigenvalues not converged
     c_bands:  1 eigenvalues not converged
     c_bands:  1 eigenvalues not converged
     c_bands:  1 eigenvalues not converged
     c_bands:  2 eigenvalues not converged
     c_bands:  1 eigenvalues not converged
     c_bands:  1 eigenvalues not converged
     c_bands:  1 eigenvalues not converged
     c_bands:  1 eigenvalues not converged
     c_bands:  1 eigenvalues not converged
     c_bands:  4 eigenvalues not converged
     c_bands:  2 eigenvalues not converged
     c_bands:  2 eigenvalues not converged
     c_bands:  2 eigenvalues not converged
     c_bands:  1 eigenvalues not converged
     c_bands:  2 eigenvalues not converged
     c_bands:  1 eigenvalues not converged
     c_bands:  2 eigenvalues not converged
     c_bands:  1 eigenvalues not converged
     c_bands:  2 eigenvalues not converged
     c_bands:  1 eigenvalues not converged
     c_bands:  1 eigenvalues not converged
     c_bands:  1 eigenvalues not converged
     c_bands:  1 eigenvalues not converged
     c_bands:  1 eigenvalues not converged
     c_bands:  1 eigenvalues not converged
     c_bands:  1 eigenvalues not converged
     c_bands:  2 eigenvalues not converged
     c_bands:  1 eigenvalues not converged
     c_bands:  2 eigenvalues not converged
     c_bands:  1 eigenvalues not converged
     c_bands:  1 eigenvalues not converged
     c_bands:  1 eigenvalues not converged
     c_bands:  2 eigenvalues not converged
     c_bands:  2 eigenvalues not converged
     c_bands:  4 eigenvalues not converged
     c_bands:  1 eigenvalues not converged
     c_bands:  1 eigenvalues not converged
     c_bands:  1 eigenvalues not converged
     c_bands:  1 eigenvalues not converged
     c_bands:  1 eigenvalues not converged
     c_bands:  1 eigenvalues not converged
     c_bands:  2 eigenvalues not converged
     c_bands:  1 eigenvalues not converged
     c_bands:  2 eigenvalues not converged
     c_bands:  1 eigenvalues not converged
     c_bands:  1 eigenvalues not converged
     c_bands:  1 eigenvalues not converged
     c_bands:  2 eigenvalues not converged
     c_bands:  1 eigenvalues not converged
     c_bands:  1 eigenvalues not converged
     c_bands:  1 eigenvalues not converged
     c_bands:  1 eigenvalues not converged
     c_bands:  1 eigenvalues not converged
     c_bands:  1 eigenvalues not converged
     c_bands:  2 eigenvalues not converged
     c_bands:  1 eigenvalues not converged
     c_bands:  1 eigenvalues not converged
     c_bands:  1 eigenvalues not converged
     c_bands:  2 eigenvalues not converged
     c_bands:  1 eigenvalues not converged
     c_bands:  1 eigenvalues not converged
     c_bands:  2 eigenvalues not converged
     c_bands:  1 eigenvalues not converged
     ethr =  1.00E-06,  avg # of iterations = 18.9

     total cpu time spent up to now is      116.0 secs

     total energy              =     -47.97031975 Ry
     estimated scf accuracy    <       0.04107369 Ry

     iteration #  2     ecut=    80.00 Ry     beta= 0.70
     Davidson diagonalization with overlap
     ethr =  2.16E-04,  avg # of iterations =  2.0

     total cpu time spent up to now is      117.8 secs

     total energy              =     -47.97415255 Ry
     estimated scf accuracy    <       0.00814536 Ry

     iteration #  3     ecut=    80.00 Ry     beta= 0.70
     Davidson diagonalization with overlap
     ethr =  4.29E-05,  avg # of iterations =  2.2

     total cpu time spent up to now is      119.6 secs

     total energy              =     -47.97599820 Ry
     estimated scf accuracy    <       0.00080214 Ry

     iteration #  4     ecut=    80.00 Ry     beta= 0.70
     Davidson diagonalization with overlap
     ethr =  4.22E-06,  avg # of iterations =  2.3

     total cpu time spent up to now is      121.2 secs

     total energy              =     -47.97608609 Ry
     estimated scf accuracy    <       0.00001382 Ry

     iteration #  5     ecut=    80.00 Ry     beta= 0.70
     Davidson diagonalization with overlap
     ethr =  7.27E-08,  avg # of iterations =  3.8

     total cpu time spent up to now is      123.4 secs

     total energy              =     -47.97609574 Ry
     estimated scf accuracy    <       0.00000142 Ry

     iteration #  6     ecut=    80.00 Ry     beta= 0.70
     Davidson diagonalization with overlap
     ethr =  7.45E-09,  avg # of iterations =  2.2

     total cpu time spent up to now is      125.2 secs

     total energy              =     -47.97609616 Ry
     estimated scf accuracy    <       0.00000010 Ry

     iteration #  7     ecut=    80.00 Ry     beta= 0.70
     Davidson diagonalization with overlap
     ethr =  5.40E-10,  avg # of iterations =  2.3

     total cpu time spent up to now is      127.0 secs

     total energy              =     -47.97609619 Ry
     estimated scf accuracy    <          1.1E-09 Ry

     iteration #  8     ecut=    80.00 Ry     beta= 0.70
     Davidson diagonalization with overlap
     ethr =  5.89E-12,  avg # of iterations =  4.0

     total cpu time spent up to now is      129.1 secs

     End of self-consistent calculation

     Number of k-points >= 100: set verbosity='high' to print the bands.

     the Fermi energy is    14.2246 ev

!    total energy              =     -47.97609619 Ry
     estimated scf accuracy    <          7.3E-11 Ry
     smearing contrib. (-TS)   =       0.00057988 Ry
     internal energy E=F+TS    =     -47.97667607 Ry

     The total energy is F=E-TS. E is the sum of the following terms:
     one-electron contribution =      17.76432416 Ry
     hartree contribution      =       2.92511339 Ry
     xc contribution           =     -16.97528363 Ry
     ewald contribution        =     -51.69082999 Ry

     convergence has been achieved in   8 iterations

     Forces acting on atoms (cartesian axes, Ry/au):

     atom    1 type  1   force =     0.00000000   -0.00000000   -0.00000000
     atom    2 type  2   force =     0.00061605    0.00001040    0.00000000
     atom    3 type  2   force =    -0.00061605   -0.00001040    0.00000000
     atom    4 type  2   force =    -0.00001040    0.00061605    0.00000000
     atom    5 type  2   force =     0.00001040   -0.00061605    0.00000000
     The non-local contrib.  to forces
     atom    1 type  1   force =     0.00000000    0.00000000    0.00000000
     atom    2 type  2   force =    -0.03222174   -0.01846347    0.00000000
     atom    3 type  2   force =     0.03222174    0.01846347    0.00000000
     atom    4 type  2   force =     0.01846347   -0.03222174   -0.00000000
     atom    5 type  2   force =    -0.01846347    0.03222174   -0.00000000
     The ionic contribution  to forces
     atom    1 type  1   force =    -0.00000000    0.00000000   -0.00000000
     atom    2 type  2   force =    -0.03376589   -0.03101028    0.00000000
     atom    3 type  2   force =     0.03376589    0.03101028    0.00000000
     atom    4 type  2   force =     0.03101028   -0.03376589   -0.00000000
     atom    5 type  2   force =    -0.03101028    0.03376589   -0.00000000
     The local contribution  to forces
     atom    1 type  1   force =     0.00000000    0.00000000   -0.00000000
     atom    2 type  2   force =     0.06427645    0.04857873    0.00000000
     atom    3 type  2   force =    -0.06427645   -0.04857873   -0.00000000
     atom    4 type  2   force =    -0.04857873    0.06427645    0.00000000
     atom    5 type  2   force =     0.04857873   -0.06427645   -0.00000000
     The core correction contribution to forces
     atom    1 type  1   force =     0.00000000    0.00000000    0.00000000
     atom    2 type  2   force =     0.00232630    0.00090046    0.00000000
     atom    3 type  2   force =    -0.00232630   -0.00090046   -0.00000000
     atom    4 type  2   force =    -0.00090046    0.00232630    0.00000000
     atom    5 type  2   force =     0.00090046   -0.00232630   -0.00000000
     The Hubbard contrib.    to forces
     atom    1 type  1   force =     0.00000000    0.00000000    0.00000000
     atom    2 type  2   force =     0.00000000    0.00000000    0.00000000
     atom    3 type  2   force =     0.00000000    0.00000000    0.00000000
     atom    4 type  2   force =     0.00000000    0.00000000    0.00000000
     atom    5 type  2   force =     0.00000000    0.00000000    0.00000000
     The SCF correction term to forces
     atom    1 type  1   force =     0.00000000   -0.00000000   -0.00000000
     atom    2 type  2   force =     0.00000094    0.00000497    0.00000000
     atom    3 type  2   force =    -0.00000094   -0.00000497   -0.00000000
     atom    4 type  2   force =    -0.00000497    0.00000094   -0.00000000
     atom    5 type  2   force =     0.00000497   -0.00000094    0.00000000

     Total force =     0.001232     Total SCF correction =     0.000010


     Computing stress (Cartesian axis) and pressure

          total   stress  (Ry/bohr**3)                   (kbar)     P=      552.13
   0.00355822  -0.00000000   0.00000000          523.43       -0.00        0.00
   0.00000000   0.00355822  -0.00000000            0.00      523.43       -0.00
   0.00000000  -0.00000000   0.00414356            0.00       -0.00      609.54


     Writing all to output data dir ./output/LiSi.save/

     init_run     :      1.92s CPU      2.31s WALL (       2 calls)
     electrons    :    103.01s CPU    112.92s WALL (      10 calls)
     update_pot   :      1.32s CPU      1.35s WALL (       8 calls)
     forces       :      2.09s CPU      2.18s WALL (      10 calls)
     stress       :     12.13s CPU     12.34s WALL (      10 calls)

     Called by init_run:
     wfcinit      :      1.19s CPU      1.28s WALL (       2 calls)
     potinit      :      0.23s CPU      0.44s WALL (       2 calls)
     hinit0       :      0.46s CPU      0.54s WALL (       2 calls)

     Called by electrons:
     c_bands      :     91.74s CPU    100.61s WALL (      73 calls)
     sum_band     :     10.77s CPU     11.28s WALL (      73 calls)
     v_of_rho     :      0.50s CPU      1.07s WALL (      81 calls)
     mix_rho      :      0.05s CPU      0.10s WALL (      73 calls)

     Called by c_bands:
     init_us_2    :      1.76s CPU      1.94s WALL (   20160 calls)
     init_us_2:cp :      1.73s CPU      1.92s WALL (   20160 calls)
     cegterg      :     86.39s CPU     89.22s WALL (    8760 calls)

     Called by *egterg:
     cdiaghg      :      8.61s CPU      8.88s WALL (   40478 calls)
     h_psi        :     71.41s CPU     73.82s WALL (   41918 calls)
     g_psi        :      0.28s CPU      0.29s WALL (   32918 calls)

     Called by h_psi:
     h_psi:calbec :      4.92s CPU      5.08s WALL (   41918 calls)
     vloc_psi     :     62.49s CPU     64.60s WALL (   41918 calls)
     add_vuspsi   :      3.73s CPU      3.84s WALL (   41918 calls)

     General routines
     calbec       :      5.93s CPU      6.14s WALL (   47918 calls)
     fft          :      0.74s CPU      1.50s WALL (    1060 calls)
     ffts         :      0.03s CPU      0.05s WALL (      73 calls)
     fftw         :     63.73s CPU     65.85s WALL (  906702 calls)

     Parallel routines

     PWSCF        :   2m 0.94s CPU   2m12.11s WALL


   This run was terminated on:  20:31:55  29Dec2024            

=------------------------------------------------------------------------------=
   JOB DONE.
=------------------------------------------------------------------------------=
