
     Program PWSCF v.7.2 starts on 29Dec2024 at 20:53:52 

     This program is part of the open-source Quantum ESPRESSO suite
     for quantum simulation of materials; please cite
         "P. Giannozzi et al., J. Phys.:Condens. Matter 21 395502 (2009);
         "P. Giannozzi et al., J. Phys.:Condens. Matter 29 465901 (2017);
         "P. Giannozzi et al., J. Chem. Phys. 152 154105 (2020);
          URL http://www.quantum-espresso.org", 
     in publications or presentations arising from this work. More details at
     http://www.quantum-espresso.org/quote

     Parallel version (MPI & OpenMP), running on       8 processor cores
     Number of MPI processes:                 8
     Threads/MPI process:                     1

     MPI processes distributed on     1 nodes
     487628 MiB available memory on the printing compute node when the environment starts

     Waiting for input...
     Reading input from standard input

     Current dimensions of program PWSCF are:
     Max number of different atomic species (ntypx) = 10
     Max number of k-points (npk) =  40000
     Max angular momentum in pseudopotentials (lmaxx) =  4

     R & G space division:  proc/nbgrp/npool/nimage =       8
     Subspace diagonalization in iterative solution of the eigenvalue problem:
     a serial algorithm will be used


     Parallelization info
     --------------------
     sticks:   dense  smooth     PW     G-vecs:    dense   smooth      PW
     Min         180     180     63                 3196     3196     665
     Max         181     181     64                 3197     3197     666
     Sum        1447    1447    509                25575    25575    5323

     Using Slab Decomposition



     bravais-lattice index     =            7
     lattice parameter (alat)  =       4.7620  a.u.
     unit-cell volume          =     264.9277 (a.u.)^3
     number of atoms/cell      =            5
     number of atomic types    =            2
     number of electrons       =        16.00
     number of Kohn-Sham states=           12
     kinetic-energy cutoff     =      80.0000  Ry
     charge density cutoff     =     320.0000  Ry
     scf convergence threshold =      1.0E-08
     mixing beta               =       0.7000
     number of iterations used =            8  plain     mixing
     energy convergence thresh.=      1.0E-04
     force convergence thresh. =      1.0E-03
     press convergence thresh. =      1.0E+00
     Exchange-correlation= PBE
                           (   1   4   3   4   0   0   0)
     nstep                     =           50


     celldm(1)=   4.762045  celldm(2)=   0.000000  celldm(3)=   4.906559
     celldm(4)=   0.000000  celldm(5)=   0.000000  celldm(6)=   0.000000

     crystal axes: (cart. coord. in units of alat)
               a(1) = (   0.500000  -0.500000   2.453280 )  
               a(2) = (   0.500000   0.500000   2.453280 )  
               a(3) = (  -0.500000  -0.500000   2.453280 )  

     reciprocal axes: (cart. coord. in units 2 pi/alat)
               b(1) = (  1.000000 -1.000000  0.000000 )  
               b(2) = (  0.000000  1.000000  0.203809 )  
               b(3) = ( -1.000000  0.000000  0.203809 )  


     PseudoPot. # 1 for Li read from file:
     ../pseudo/Li_ONCV_PBE_sr.upf
     MD5 check sum: 50ff420e78310ffa21704f3361e624a4
     Pseudo is Norm-conserving, Zval =  3.0
     Generated using ONCVPSP code by D. R. Hamann
     Using radial grid of 1944 points,  4 beta functions with: 
                l(1) =   0
                l(2) =   0
                l(3) =   1
                l(4) =   1

     PseudoPot. # 2 for Si read from file:
     ../pseudo/Si_ONCV_PBE_sr.upf
     MD5 check sum: e543d271109d17c80368dfa7c482276d
     Pseudo is Norm-conserving + core correction, Zval =  4.0
     Generated using ONCVPSP code by D. R. Hamann
     Using radial grid of 1510 points,  6 beta functions with: 
                l(1) =   0
                l(2) =   0
                l(3) =   1
                l(4) =   1
                l(5) =   2
                l(6) =   2

     atomic species   valence    mass     pseudopotential
        Li             3.00     6.94100     Li( 1.00)
        Si             4.00    28.08550     Si( 1.00)

     16 Sym. Ops., with inversion, found



   Cartesian axes

     site n.     atom                  positions (alat units)
         1           Li  tau(   1) = (   0.0000000   0.0000000   0.9775093  )
         2           Li  tau(   2) = (   0.0000000   0.0000000   3.9290500  )
         3           Li  tau(   3) = (   0.0000000   0.0000000   2.0122904  )
         4           Li  tau(   4) = (   0.0000000   0.0000000   2.8942689  )
         5           Si  tau(   5) = (   0.0000000   0.0000000   0.0000000  )

     number of k points=    35  Marzari-Vanderbilt smearing, width (Ry)=  0.0200
                       cart. coord. in units 2pi/alat
        k(    1) = (   0.0000000   0.0000000   0.0000000), wk =   0.0156250
        k(    2) = (   0.5000000   0.0000000  -0.1019044), wk =   0.0625000
        k(    3) = (   0.0000000   0.1250000   0.0254761), wk =   0.0625000
        k(    4) = (   0.5000000   0.1250000  -0.0764283), wk =   0.1250000
        k(    5) = (   0.0000000   0.2500000   0.0509522), wk =   0.0625000
        k(    6) = (   0.5000000   0.2500000  -0.0509522), wk =   0.1250000
        k(    7) = (   0.0000000   0.3750000   0.0764283), wk =   0.0625000
        k(    8) = (   0.5000000   0.3750000  -0.0254761), wk =   0.1250000
        k(    9) = (   0.5000000  -0.5000000  -0.2038088), wk =   0.0312500
        k(   10) = (   0.1250000  -0.1250000   0.0000000), wk =   0.0312500
        k(   11) = (   0.6250000  -0.1250000  -0.1019044), wk =   0.1250000
        k(   12) = (   0.6250000   0.0000000  -0.0764283), wk =   0.0625000
        k(   13) = (   0.1250000   0.1250000   0.0509522), wk =   0.0312500
        k(   14) = (   0.6250000   0.1250000  -0.0509522), wk =   0.0625000
        k(   15) = (   0.1250000   0.2500000   0.0764283), wk =   0.0625000
        k(   16) = (   0.6250000   0.2500000  -0.0254761), wk =   0.0625000
        k(   17) = (   0.6250000  -0.6250000  -0.2038088), wk =   0.0312500
        k(   18) = (   0.1250000  -0.3750000  -0.0509522), wk =   0.0625000
        k(   19) = (   0.6250000  -0.3750000  -0.1528566), wk =   0.0312500
        k(   20) = (   0.1250000  -0.2500000  -0.0254761), wk =   0.0625000
        k(   21) = (   0.6250000  -0.2500000  -0.1273805), wk =   0.0625000
        k(   22) = (   0.2500000  -0.2500000   0.0000000), wk =   0.0312500
        k(   23) = (   0.7500000  -0.2500000  -0.1019044), wk =   0.0625000
        k(   24) = (   0.7500000  -0.1250000  -0.0764283), wk =   0.0625000
        k(   25) = (   0.7500000   0.0000000  -0.0509522), wk =   0.0625000
        k(   26) = (   0.7500000   0.1250000  -0.0254761), wk =   0.0625000
        k(   27) = (   0.7500000  -0.7500000  -0.2038088), wk =   0.0312500
        k(   28) = (   0.2500000  -0.6250000  -0.0764283), wk =   0.0625000
        k(   29) = (   0.2500000  -0.3750000  -0.0254761), wk =   0.0625000
        k(   30) = (   0.3750000  -0.3750000   0.0000000), wk =   0.0312500
        k(   31) = (   0.8750000  -0.1250000  -0.0509522), wk =   0.0312500
        k(   32) = (   0.8750000   0.0000000  -0.0254761), wk =   0.0625000
        k(   33) = (   0.8750000  -0.8750000  -0.2038088), wk =   0.0312500
        k(   34) = (   0.3750000  -0.6250000  -0.0509522), wk =   0.0312500
        k(   35) = (   0.0000000   0.0000000  -0.2038088), wk =   0.0156250

     Dense  grid:    25575 G-vectors     FFT dimensions: (  72,  72,  72)

     Estimated max dynamical RAM per process >      19.39 MB

     Estimated total dynamical RAM >     155.12 MB

     Initial potential from superposition of free atoms

     starting charge      15.9811, renormalised to      16.0000
     Starting wfcs are   12 randomized atomic wfcs

     total cpu time spent up to now is        2.7 secs

     Self-consistent Calculation

     iteration #  1     ecut=    80.00 Ry     beta= 0.70
     Davidson diagonalization with overlap
     ethr =  1.00E-02,  avg # of iterations =  6.6

     Threshold (ethr) on eigenvalues was too large:
     Diagonalizing with lowered threshold

     Davidson diagonalization with overlap
     ethr =  1.59E-04,  avg # of iterations =  3.0

     total cpu time spent up to now is        5.7 secs

     total energy              =     -65.70940426 Ry
     estimated scf accuracy    <       0.02543307 Ry

     iteration #  2     ecut=    80.00 Ry     beta= 0.70
     Davidson diagonalization with overlap
     ethr =  1.59E-04,  avg # of iterations =  2.6

     total cpu time spent up to now is        7.0 secs

     total energy              =     -65.69957579 Ry
     estimated scf accuracy    <       0.11761039 Ry

     iteration #  3     ecut=    80.00 Ry     beta= 0.70
     Davidson diagonalization with overlap
     ethr =  1.59E-04,  avg # of iterations =  2.3

     total cpu time spent up to now is        8.2 secs

     total energy              =     -65.71662428 Ry
     estimated scf accuracy    <       0.00431120 Ry

     iteration #  4     ecut=    80.00 Ry     beta= 0.70
     Davidson diagonalization with overlap
     ethr =  2.69E-05,  avg # of iterations =  1.1

     total cpu time spent up to now is        9.2 secs

     total energy              =     -65.71713646 Ry
     estimated scf accuracy    <       0.00001775 Ry

     iteration #  5     ecut=    80.00 Ry     beta= 0.70
     Davidson diagonalization with overlap
     ethr =  1.11E-07,  avg # of iterations =  3.2

     total cpu time spent up to now is       10.4 secs

     total energy              =     -65.71714160 Ry
     estimated scf accuracy    <       0.00000016 Ry

     iteration #  6     ecut=    80.00 Ry     beta= 0.70
     Davidson diagonalization with overlap
     ethr =  1.02E-09,  avg # of iterations =  3.2

     total cpu time spent up to now is       11.5 secs

     End of self-consistent calculation

          k = 0.0000 0.0000 0.0000 (  3165 PWs)   bands (ev):

   -37.4021 -37.2508 -37.0011 -36.6831  -3.6409   3.8534   5.1990  11.2313
    11.8265  14.3544  14.3544  14.9677

          k = 0.5000 0.0000-0.1019 (  3186 PWs)   bands (ev):

   -37.2519 -37.1538 -36.8443 -36.8442  -0.4431   2.4124   5.1659   7.6785
     7.8341  12.9595  14.4444  17.0969

          k = 0.0000 0.1250 0.0255 (  3198 PWs)   bands (ev):

   -37.3799 -37.2391 -36.9892 -36.6934  -3.3740   3.9675   5.3843  10.0136
    11.4803  12.6521  14.6645  16.5667

          k = 0.5000 0.1250-0.0764 (  3194 PWs)   bands (ev):

   -37.2426 -37.1454 -36.8367 -36.8367  -0.1000   2.5850   5.4800   7.8783
     8.0755  12.9705  14.0862  15.8311

          k = 0.0000 0.2500 0.0510 (  3211 PWs)   bands (ev):

   -37.3259 -37.2083 -36.9563 -36.7253  -2.5900   4.3064   5.7853   7.0071
    10.4143  13.1610  15.3685  15.5961

          k = 0.5000 0.2500-0.0510 (  3207 PWs)   bands (ev):

   -37.2200 -37.1252 -36.8184 -36.8184   0.9138   3.0543   6.4054   8.4034
     8.7432  11.6949  12.8990  13.3656

          k = 0.0000 0.3750 0.0764 (  3199 PWs)   bands (ev):

   -37.2729 -37.1716 -36.9072 -36.7783  -1.3815   3.8681   4.8226   6.9569
     8.8896  13.2939  14.7304  17.1509

          k = 0.5000 0.3750-0.0255 (  3218 PWs)   bands (ev):

   -37.1973 -37.1049 -36.8001 -36.8000   2.5182   3.6362   7.8245   8.3583
     9.0883   9.6484  11.4320  12.2750

          k = 0.5000-0.5000-0.2038 (  3222 PWs)   bands (ev):

   -37.1879 -37.0965 -36.7925 -36.7924   3.8990   3.9642   6.3908   8.7047
    10.0923  10.1787  10.5827  10.6348

          k = 0.1250-0.1250 0.0000 (  3207 PWs)   bands (ev):

   -37.3612 -37.2245 -36.9789 -36.7019  -3.1034   4.1264   5.5060   9.9812
    10.6668  11.8762  14.8945  15.1477

          k = 0.6250-0.1250-0.1019 (  3202 PWs)   bands (ev):

   -37.2606 -37.1637 -36.8955 -36.7769  -1.0781   4.0693   5.0582   7.2895
     9.0368  12.7351  14.0983  14.8039

          k = 0.6250 0.0000-0.0764 (  3206 PWs)   bands (ev):

   -37.2699 -37.1759 -36.9054 -36.7787  -1.3824   3.8655   4.7841   7.1927
     8.7232  13.0039  14.2941  17.1301

          k = 0.1250 0.1250 0.0510 (  3202 PWs)   bands (ev):

   -37.3578 -37.2305 -36.9756 -36.7026  -3.1038   4.0796   5.6537   9.9735
    10.0619  12.3259  15.1570  15.2547

          k = 0.6250 0.1250-0.0510 (  3201 PWs)   bands (ev):

   -37.2581 -37.1673 -36.8940 -36.7772  -1.0788   4.0654   5.0137   7.5682
     8.8428  12.6549  13.6584  14.7179

          k = 0.1250 0.2500 0.0764 (  3197 PWs)   bands (ev):

   -37.3079 -37.2008 -36.9427 -36.7303  -2.3093   4.4605   6.1358   7.1232
    10.0519  12.3383  13.9733  15.9249

          k = 0.6250 0.2500-0.0255 (  3201 PWs)   bands (ev):

   -37.2323 -37.1425 -36.8660 -36.7756  -0.1869   4.5402   5.6941   8.4727
     9.0548  11.3750  12.3391  12.7770

          k = 0.6250-0.6250-0.2038 (  3210 PWs)   bands (ev):

   -37.2071 -37.1165 -36.8309 -36.7812   1.2118   4.5693   6.7263   8.3182
     9.8316  10.9021  11.2962  11.3541

          k = 0.1250-0.3750-0.0510 (  3200 PWs)   bands (ev):

   -37.2630 -37.1603 -36.8969 -36.7765  -1.0775   4.0732   5.1078   7.0635
     9.1614  12.8826  14.5938  14.9948

          k = 0.6250-0.3750-0.1529 (  3205 PWs)   bands (ev):

   -37.2090 -37.1140 -36.8317 -36.7811   1.2034   4.6229   7.0513   8.2583
     8.8503   9.5442  12.5812  13.4467

          k = 0.1250-0.2500-0.0255 (  3208 PWs)   bands (ev):

   -37.3124 -37.1936 -36.9463 -36.7295  -2.3085   4.5319   5.9278   7.0896
    10.8738  11.7069  14.0554  15.5370

          k = 0.6250-0.2500-0.1274 (  3199 PWs)   bands (ev):

   -37.2354 -37.1382 -36.8676 -36.7752  -0.1876   4.5608   5.8389   7.7534
     9.5178  10.6234  13.3017  14.0376

          k = 0.2500-0.2500 0.0000 (  3208 PWs)   bands (ev):

   -37.2751 -37.1649 -36.9143 -36.7449  -1.4816   5.1119   6.5199   6.6385
     9.7547  11.6039  12.3835  15.9753

          k = 0.7500-0.2500-0.1019 (  3189 PWs)   bands (ev):

   -37.2695 -37.1734 -36.9104 -36.7459  -1.4826   4.9640   6.6091   7.0209
     9.2660  11.9768  12.0373  15.1460

          k = 0.7500-0.1250-0.0764 (  3203 PWs)   bands (ev):

   -37.3005 -37.2120 -36.9378 -36.7315  -2.3105   4.3784   6.4222   7.2459
     9.2327  12.8477  14.0009  15.6107

          k = 0.7500 0.0000-0.0510 (  3189 PWs)   bands (ev):

   -37.3099 -37.2324 -36.9458 -36.7279  -2.5923   4.1656   6.2768   7.2352
     8.9285  14.2242  15.5521  15.5977

          k = 0.7500 0.1250-0.0255 (  3190 PWs)   bands (ev):

   -37.2940 -37.2210 -36.9344 -36.7324  -2.3113   4.3293   6.5976   7.5234
     8.5681  13.1310  14.3017  14.9020

          k = 0.7500-0.7500-0.2038 (  3192 PWs)   bands (ev):

   -37.2628 -37.1828 -36.9066 -36.7469  -1.4836   4.8549   6.5807   8.0594
     8.1732  11.7442  13.0580  13.5047

          k = 0.2500-0.6250-0.0764 (  3195 PWs)   bands (ev):

   -37.2336 -37.1407 -36.8666 -36.7754  -0.1872   4.5486   5.7492   8.1043
     9.3214  10.9651  12.7922  13.2584

          k = 0.2500-0.3750-0.0255 (  3196 PWs)   bands (ev):

   -37.2366 -37.1365 -36.8682 -36.7750  -0.1879   4.5694   5.9144   7.5371
     9.6159  10.4380  13.7301  14.8978

          k = 0.3750-0.3750 0.0000 (  3214 PWs)   bands (ev):

   -37.2093 -37.1136 -36.8318 -36.7810   1.2020   4.6325   7.1333   8.2146
     8.7364   9.4322  12.8286  13.3417

          k = 0.8750-0.1250-0.0510 (  3195 PWs)   bands (ev):

   -37.3353 -37.2643 -36.9609 -36.7060  -3.1061   3.9136   6.6200   8.1722
     9.9376  13.0009  16.0636  17.1551

          k = 0.8750 0.0000-0.0255 (  3207 PWs)   bands (ev):

   -37.3447 -37.2914 -36.9672 -36.6984  -3.3769   3.7474   6.8129   7.6001
    10.8189  14.6021  16.6186  17.5901

          k = 0.8750-0.8750-0.2038 (  3204 PWs)   bands (ev):

   -37.3277 -37.2741 -36.9581 -36.7067  -3.1066   3.8867   7.3307   7.3400
     9.9303  13.0553  16.5494  17.0154

          k = 0.3750-0.6250-0.0510 (  3207 PWs)   bands (ev):

   -37.2075 -37.1161 -36.8311 -36.7811   1.2103   4.5782   6.7713   8.3163
     9.5981  10.3876  11.5653  12.0243

          k = 0.0000 0.0000-0.2038 (  3222 PWs)   bands (ev):

   -37.3565 -37.3174 -36.9741 -36.6891  -3.6440   3.6067   7.0813   7.1301
    14.2850  14.2850  14.9477  17.4390

     the Fermi energy is     8.5050 ev

!    total energy              =     -65.71714166 Ry
     estimated scf accuracy    <          4.0E-09 Ry
     smearing contrib. (-TS)   =       0.00008905 Ry
     internal energy E=F+TS    =     -65.71723071 Ry

     The total energy is F=E-TS. E is the sum of the following terms:
     one-electron contribution =     -21.01932247 Ry
     hartree contribution      =      11.75820081 Ry
     xc contribution           =     -17.51376839 Ry
     ewald contribution        =     -38.94234067 Ry

     convergence has been achieved in   6 iterations

     Forces acting on atoms (cartesian axes, Ry/au):

     atom    1 type  1   force =     0.00000000    0.00000000   -0.02675301
     atom    2 type  1   force =     0.00000000    0.00000000    0.02675301
     atom    3 type  1   force =     0.00000000    0.00000000   -0.09952735
     atom    4 type  1   force =     0.00000000    0.00000000    0.09952735
     atom    5 type  2   force =     0.00000000    0.00000000   -0.00000000
     The non-local contrib.  to forces
     atom    1 type  1   force =     0.00000000    0.00000000   -0.01937710
     atom    2 type  1   force =     0.00000000    0.00000000    0.01937710
     atom    3 type  1   force =     0.00000000   -0.00000000    0.00788157
     atom    4 type  1   force =     0.00000000    0.00000000   -0.00788157
     atom    5 type  2   force =     0.00000000    0.00000000    0.00000000
     The ionic contribution  to forces
     atom    1 type  1   force =     0.00000000   -0.00000000    0.56139475
     atom    2 type  1   force =    -0.00000000    0.00000000   -0.56139475
     atom    3 type  1   force =     0.00000000    0.00000000   -1.50850587
     atom    4 type  1   force =     0.00000000   -0.00000000    1.50850587
     atom    5 type  2   force =     0.00000000    0.00000000   -0.00000000
     The local contribution  to forces
     atom    1 type  1   force =     0.00000000   -0.00000000   -0.56878512
     atom    2 type  1   force =    -0.00000000    0.00000000    0.56878512
     atom    3 type  1   force =     0.00000000   -0.00000000    1.40108817
     atom    4 type  1   force =     0.00000000    0.00000000   -1.40108817
     atom    5 type  2   force =    -0.00000000   -0.00000000    0.00000000
     The core correction contribution to forces
     atom    1 type  1   force =     0.00000000    0.00000000    0.00000000
     atom    2 type  1   force =     0.00000000    0.00000000    0.00000000
     atom    3 type  1   force =     0.00000000    0.00000000    0.00000000
     atom    4 type  1   force =     0.00000000    0.00000000    0.00000000
     atom    5 type  2   force =    -0.00000000   -0.00000000    0.00000000
     The Hubbard contrib.    to forces
     atom    1 type  1   force =     0.00000000    0.00000000    0.00000000
     atom    2 type  1   force =     0.00000000    0.00000000    0.00000000
     atom    3 type  1   force =     0.00000000    0.00000000    0.00000000
     atom    4 type  1   force =     0.00000000    0.00000000    0.00000000
     atom    5 type  2   force =     0.00000000    0.00000000    0.00000000
     The SCF correction term to forces
     atom    1 type  1   force =    -0.00000000    0.00000000    0.00001447
     atom    2 type  1   force =    -0.00000000   -0.00000000   -0.00001447
     atom    3 type  1   force =     0.00000000    0.00000000    0.00000878
     atom    4 type  1   force =    -0.00000000   -0.00000000   -0.00000878
     atom    5 type  2   force =    -0.00000000    0.00000000    0.00000000

     Total force =     0.145749     Total SCF correction =     0.000024


     Computing stress (Cartesian axis) and pressure

          total   stress  (Ry/bohr**3)                   (kbar)     P=      754.44
   0.00507767   0.00000000  -0.00000000          746.95        0.00       -0.00
   0.00000000   0.00507767   0.00000000            0.00      746.95        0.00
   0.00000000   0.00000000   0.00523049            0.00        0.00      769.43


     BFGS Geometry Optimization
     Energy error            =      0.0E+00 Ry
     Gradient error          =      1.0E-01 Ry/Bohr
     Cell gradient error     =      2.7E+02 kbar

     number of scf cycles    =   1
     number of bfgs steps    =   0

     enthalpy           new  =     -64.8166706195 Ry

     new trust radius        =       0.1490580090 bohr
ibrav =      7
 celldm(1) =      4.96190061
 celldm(3) =      4.92454977
Input lattice vectors:
     0.52098427    -0.52098427     2.56561297
     0.52098427     0.52098427     2.56561297
    -0.52098427    -0.52098427     2.56561297
New lattice vectors in INITIAL alat:
     0.52098427    -0.52098427     2.56561297
     0.52098427     0.52098427     2.56561297
    -0.52098427    -0.52098427     2.56561297
New lattice vectors in NEW alat (for information only):
     0.50000000    -0.50000000     2.46227488
     0.50000000     0.50000000     2.46227488
    -0.50000000    -0.50000000     2.46227488
Discrepancy in bohr =     0.000000    0.000000    0.000000
     new conv_thr            =       0.0000000100 Ry

     new unit-cell volume =    300.80200 a.u.^3 (    44.57426 Ang^3 )
     density =      2.08058 g/cm^3

CELL_PARAMETERS (alat=  4.76204453)
   0.520984272  -0.520984272   2.565612975
   0.520984272   0.520984272   2.565612975
  -0.520984272  -0.520984272   2.565612975

ATOMIC_POSITIONS (crystal)
Li           -0.0000000000        0.1980800089        0.1980800089
Li           -0.0000000000        0.8019199911        0.8019199911
Li           -0.0000000000        0.4058628694        0.4058628694
Li           -0.0000000000        0.5941371306        0.5941371306
Si            0.0000000000       -0.0000000000       -0.0000000000



     Writing config-only to output data dir ./output/LiSi.save/
     NEW-OLD atomic charge density approx. for the potential
     extrapolated charge   17.90594, renormalised to   16.00000

     total cpu time spent up to now is       12.7 secs

     Self-consistent Calculation

     iteration #  1     ecut=    80.00 Ry     beta= 0.70
     Davidson diagonalization with overlap
     ethr =  1.00E-06,  avg # of iterations =  8.4

     total cpu time spent up to now is       15.4 secs

     total energy              =     -65.67507235 Ry
     estimated scf accuracy    <       0.19707974 Ry

     iteration #  2     ecut=    80.00 Ry     beta= 0.70
     Davidson diagonalization with overlap
     ethr =  1.23E-03,  avg # of iterations =  3.7

     total cpu time spent up to now is       16.9 secs

     total energy              =     -65.59904337 Ry
     estimated scf accuracy    <       2.83218807 Ry

     iteration #  3     ecut=    80.00 Ry     beta= 0.70
     Davidson diagonalization with overlap
     ethr =  1.23E-03,  avg # of iterations =  2.5

     total cpu time spent up to now is       18.1 secs

     total energy              =     -65.88412497 Ry
     estimated scf accuracy    <       0.03256077 Ry

     iteration #  4     ecut=    80.00 Ry     beta= 0.70
     Davidson diagonalization with overlap
     ethr =  2.04E-04,  avg # of iterations =  2.1

     total cpu time spent up to now is       19.1 secs

     total energy              =     -65.88034731 Ry
     estimated scf accuracy    <       0.01583370 Ry

     iteration #  5     ecut=    80.00 Ry     beta= 0.70
     Davidson diagonalization with overlap
     ethr =  9.90E-05,  avg # of iterations =  2.3

     total cpu time spent up to now is       20.1 secs

     total energy              =     -65.88017517 Ry
     estimated scf accuracy    <       0.00325498 Ry

     iteration #  6     ecut=    80.00 Ry     beta= 0.70
     Davidson diagonalization with overlap
     ethr =  2.03E-05,  avg # of iterations =  3.4

     total cpu time spent up to now is       21.3 secs

     total energy              =     -65.88062027 Ry
     estimated scf accuracy    <       0.00001529 Ry

     iteration #  7     ecut=    80.00 Ry     beta= 0.70
     Davidson diagonalization with overlap
     ethr =  9.55E-08,  avg # of iterations =  3.2

     total cpu time spent up to now is       22.4 secs

     total energy              =     -65.88061958 Ry
     estimated scf accuracy    <       0.00000738 Ry

     iteration #  8     ecut=    80.00 Ry     beta= 0.70
     Davidson diagonalization with overlap
     ethr =  4.61E-08,  avg # of iterations =  1.9

     total cpu time spent up to now is       23.5 secs

     total energy              =     -65.88062110 Ry
     estimated scf accuracy    <       0.00000966 Ry

     iteration #  9     ecut=    80.00 Ry     beta= 0.70
     Davidson diagonalization with overlap
     ethr =  4.61E-08,  avg # of iterations =  1.1

     total cpu time spent up to now is       24.5 secs

     total energy              =     -65.88062225 Ry
     estimated scf accuracy    <       0.00000002 Ry

     iteration # 10     ecut=    80.00 Ry     beta= 0.70
     Davidson diagonalization with overlap
     ethr =  1.56E-10,  avg # of iterations =  2.9

     total cpu time spent up to now is       25.7 secs

     End of self-consistent calculation

          k = 0.0000 0.0000 0.0000 (  3165 PWs)   bands (ev):

   -38.4587 -38.3448 -38.2065 -38.0382  -4.2354   2.8542   3.9349  10.0290
    10.1498  12.7942  12.7942  13.9131

          k = 0.4799 0.0000-0.0974 (  3186 PWs)   bands (ev):

   -38.3006 -38.2575 -38.1666 -38.1664  -1.0445   1.6392   4.2603   6.4536
     6.6348  11.2356  12.6765  15.1022

          k = 0.0000 0.1200 0.0244 (  3198 PWs)   bands (ev):

   -38.4393 -38.3354 -38.2036 -38.0471  -3.9715   2.9725   4.1376   8.8931
    10.0050  11.2717  13.0837  14.7299

          k = 0.4799 0.1200-0.0731 (  3194 PWs)   bands (ev):

   -38.2947 -38.2520 -38.1616 -38.1614  -0.7235   1.8272   4.5506   6.6489
     6.8685  11.2937  12.4451  13.9756

          k = 0.0000 0.2399 0.0487 (  3211 PWs)   bands (ev):

   -38.3881 -38.3106 -38.1971 -38.0741  -3.1951   3.3290   4.6648   5.9757
     9.0720  11.7314  13.4862  13.9515

          k = 0.4799 0.2399-0.0487 (  3207 PWs)   bands (ev):

   -38.2803 -38.2387 -38.1494 -38.1492   0.2310   2.3470   5.4057   7.1758
     7.5172  10.1472  11.3268  12.0088

          k = 0.0000 0.3599 0.0731 (  3199 PWs)   bands (ev):

   -38.3278 -38.2790 -38.1893 -38.1181  -1.9929   3.0847   3.8823   5.7098
     7.6655  11.6700  12.9168  15.6476

          k = 0.4799 0.3599-0.0244 (  3218 PWs)   bands (ev):

   -38.2659 -38.2254 -38.1371 -38.1370   1.7800   3.0158   6.7198   6.8992
     7.8965   8.4220  10.1897  10.8480

          k = 0.4799-0.4799-0.1949 (  3222 PWs)   bands (ev):

   -38.2599 -38.2199 -38.1321 -38.1319   3.3378   3.4047   4.7746   7.5747
     8.9856   9.0528   9.1173   9.2551

          k = 0.1200-0.1200-0.0000 (  3207 PWs)   bands (ev):

   -38.4224 -38.3236 -38.2022 -38.0544  -3.7051   3.1446   4.2602   8.9866
     9.4797  10.2629  13.0858  13.5041

          k = 0.5998-0.1200-0.0974 (  3202 PWs)   bands (ev):

   -38.3167 -38.2753 -38.1825 -38.1181  -1.7030   3.2949   4.0878   6.0521
     7.8281  11.2704  12.3893  12.9473

          k = 0.5998 0.0000-0.0731 (  3206 PWs)   bands (ev):

   -38.3222 -38.2876 -38.1855 -38.1190  -1.9933   3.0822   3.8202   5.9575
     7.5402  11.3271  12.5119  15.3675

          k = 0.1200 0.1200 0.0487 (  3202 PWs)   bands (ev):

   -38.4200 -38.3288 -38.1987 -38.0552  -3.7054   3.0760   4.4257   8.8223
     8.9785  10.7605  13.3383  13.6055

          k = 0.5998 0.1200-0.0487 (  3201 PWs)   bands (ev):

   -38.3111 -38.2833 -38.1793 -38.1188  -1.7032   3.2910   4.0248   6.3296
     7.6840  11.0945  12.0028  12.8893

          k = 0.1200 0.2399 0.0731 (  3197 PWs)   bands (ev):

   -38.3714 -38.3066 -38.1906 -38.0791  -2.9218   3.4626   5.0254   6.1253
     8.8069  10.9377  12.2574  14.0202

          k = 0.5998 0.2399-0.0244 (  3201 PWs)   bands (ev):

   -38.2907 -38.2630 -38.1670 -38.1193  -0.8471   3.8168   4.6592   7.2120
     7.9425   9.8446  10.8657  11.0840

          k = 0.5998-0.5998-0.1949 (  3210 PWs)   bands (ev):

   -38.2724 -38.2379 -38.1523 -38.1247   0.5091   3.9614   5.6450   6.9553
     8.4622   9.7186   9.8796   9.9175

          k = 0.1200-0.3599-0.0487 (  3200 PWs)   bands (ev):

   -38.3207 -38.2686 -38.1858 -38.1174  -1.7029   3.2988   4.1613   5.8126
     7.9135  11.5125  12.8632  13.0705

          k = 0.5998-0.3599-0.1462 (  3205 PWs)   bands (ev):

   -38.2761 -38.2324 -38.1544 -38.1244   0.5009   4.0165   5.9863   6.9573
     7.4278   8.3500  11.1704  11.8940

          k = 0.1200-0.2399-0.0244 (  3208 PWs)   bands (ev):

   -38.3758 -38.2981 -38.1958 -38.0780  -2.9213   3.5638   4.7659   6.1257
     9.5356  10.4153  12.3524  13.5887

          k = 0.5998-0.2399-0.1218 (  3199 PWs)   bands (ev):

   -38.2974 -38.2530 -38.1710 -38.1185  -0.8486   3.8368   4.8314   6.5307
     8.2875   9.2220  11.6250  12.4044

          k = 0.2399-0.2399-0.0000 (  3208 PWs)   bands (ev):

   -38.3401 -38.2742 -38.1873 -38.0923  -2.1150   4.1382   5.3057   5.8905
     8.4217  10.2433  10.8090  13.8743

          k = 0.7198-0.2399-0.0974 (  3189 PWs)   bands (ev):

   -38.3327 -38.2874 -38.1800 -38.0938  -2.1153   3.9454   5.8404   5.8599
     8.0197  10.2871  10.6526  13.5325

          k = 0.7198-0.1200-0.0731 (  3203 PWs)   bands (ev):

   -38.3630 -38.3200 -38.1839 -38.0808  -2.9224   3.3539   5.4155   6.1392
     8.0568  11.3579  12.2955  13.8426

          k = 0.7198 0.0000-0.0487 (  3189 PWs)   bands (ev):

   -38.3714 -38.3373 -38.1837 -38.0775  -3.1964   3.1343   5.3612   5.9936
     7.7364  12.5494  13.8216  13.9093

          k = 0.7198 0.1200-0.0244 (  3190 PWs)   bands (ev):

   -38.3520 -38.3341 -38.1794 -38.0821  -2.9228   3.2911   5.7378   6.2084
     7.4844  11.5640  12.6123  13.2102

          k = 0.7198-0.7198-0.1949 (  3192 PWs)   bands (ev):

   -38.3149 -38.3100 -38.1734 -38.0955  -2.1155   3.8135   5.8306   6.8067
     7.0735   9.9955  11.7029  11.8975

          k = 0.2399-0.5998-0.0731 (  3195 PWs)   bands (ev):

   -38.2939 -38.2585 -38.1686 -38.1190  -0.8477   3.8251   4.7236   6.8819
     8.1378   9.5212  11.1312  11.6649

          k = 0.2399-0.3599-0.0244 (  3196 PWs)   bands (ev):

   -38.2995 -38.2494 -38.1728 -38.1182  -0.8492   3.8453   4.9266   6.3013
     8.3615   9.0547  12.0867  13.1962

          k = 0.3599-0.3599-0.0000 (  3214 PWs)   bands (ev):

   -38.2766 -38.2315 -38.1548 -38.1243   0.4995   4.0264   6.0784   6.9480
     7.2720   8.2443  11.5379  11.6592

          k = 0.8398-0.1200-0.0487 (  3195 PWs)   bands (ev):

   -38.4032 -38.3569 -38.1833 -38.0593  -3.7068   2.8558   5.4016   7.0059
     8.9408  11.3855  14.3777  15.1974

          k = 0.8398 0.0000-0.0244 (  3207 PWs)   bands (ev):

   -38.4166 -38.3737 -38.1823 -38.0528  -3.9734   2.6760   5.5570   6.4728
     9.6478  13.0241  14.9506  15.6453

          k = 0.8398-0.8398-0.1949 (  3204 PWs)   bands (ev):

   -38.3968 -38.3652 -38.1804 -38.0602  -3.7071   2.8220   5.8978   6.4022
     8.9332  11.4327  14.9160  15.1362

          k = 0.3599-0.5998-0.0487 (  3207 PWs)   bands (ev):

   -38.2731 -38.2369 -38.1526 -38.1246   0.5077   3.9705   5.6910   6.9571
     8.2310   9.1514  10.1403  10.6305

          k = 0.0000 0.0000-0.1949 (  3222 PWs)   bands (ev):

   -38.4340 -38.3872 -38.1822 -38.0449  -4.2376   2.5216   5.6395   6.1535
    12.7279  12.7279  13.8900  15.4022

     the Fermi energy is     7.2190 ev

!    total energy              =     -65.88062225 Ry
     estimated scf accuracy    <          7.0E-09 Ry
     smearing contrib. (-TS)   =       0.00106676 Ry
     internal energy E=F+TS    =     -65.88168902 Ry

     The total energy is F=E-TS. E is the sum of the following terms:
     one-electron contribution =     -23.02149659 Ry
     hartree contribution      =      11.98807070 Ry
     xc contribution           =     -17.29168834 Ry
     ewald contribution        =     -37.55657479 Ry

     convergence has been achieved in  10 iterations

     Forces acting on atoms (cartesian axes, Ry/au):

     atom    1 type  1   force =    -0.00000000   -0.00000000   -0.01968402
     atom    2 type  1   force =    -0.00000000    0.00000000    0.01968402
     atom    3 type  1   force =     0.00000000   -0.00000000   -0.04521920
     atom    4 type  1   force =    -0.00000000    0.00000000    0.04521920
     atom    5 type  2   force =     0.00000000    0.00000000   -0.00000000
     The non-local contrib.  to forces
     atom    1 type  1   force =    -0.00000000   -0.00000000   -0.02687946
     atom    2 type  1   force =     0.00000000    0.00000000    0.02687946
     atom    3 type  1   force =    -0.00000000   -0.00000000   -0.01235236
     atom    4 type  1   force =     0.00000000    0.00000000    0.01235236
     atom    5 type  2   force =     0.00000000    0.00000000   -0.00000000
     The ionic contribution  to forces
     atom    1 type  1   force =    -0.00000000   -0.00000000    0.52181781
     atom    2 type  1   force =    -0.00000000   -0.00000000   -0.52181781
     atom    3 type  1   force =    -0.00000000   -0.00000000   -1.13162366
     atom    4 type  1   force =     0.00000000   -0.00000000    1.13162366
     atom    5 type  2   force =    -0.00000000   -0.00000000   -0.00000000
     The local contribution  to forces
     atom    1 type  1   force =    -0.00000000   -0.00000000   -0.51457492
     atom    2 type  1   force =     0.00000000    0.00000000    0.51457492
     atom    3 type  1   force =    -0.00000000   -0.00000000    1.09865286
     atom    4 type  1   force =     0.00000000   -0.00000000   -1.09865286
     atom    5 type  2   force =    -0.00000000   -0.00000000    0.00000000
     The core correction contribution to forces
     atom    1 type  1   force =     0.00000000    0.00000000    0.00000000
     atom    2 type  1   force =     0.00000000    0.00000000    0.00000000
     atom    3 type  1   force =     0.00000000    0.00000000    0.00000000
     atom    4 type  1   force =     0.00000000    0.00000000    0.00000000
     atom    5 type  2   force =     0.00000000   -0.00000000   -0.00000000
     The Hubbard contrib.    to forces
     atom    1 type  1   force =     0.00000000    0.00000000    0.00000000
     atom    2 type  1   force =     0.00000000    0.00000000    0.00000000
     atom    3 type  1   force =     0.00000000    0.00000000    0.00000000
     atom    4 type  1   force =     0.00000000    0.00000000    0.00000000
     atom    5 type  2   force =     0.00000000    0.00000000    0.00000000
     The SCF correction term to forces
     atom    1 type  1   force =    -0.00000000   -0.00000000   -0.00004745
     atom    2 type  1   force =    -0.00000000    0.00000000    0.00004745
     atom    3 type  1   force =    -0.00000000   -0.00000000    0.00010396
     atom    4 type  1   force =    -0.00000000    0.00000000   -0.00010396
     atom    5 type  2   force =     0.00000000    0.00000000   -0.00000000

     Total force =     0.069746     Total SCF correction =     0.000162


     Computing stress (Cartesian axis) and pressure

          total   stress  (Ry/bohr**3)                   (kbar)     P=      478.41
   0.00323762  -0.00000000  -0.00000000          476.27       -0.00       -0.00
  -0.00000000   0.00323762   0.00000000           -0.00      476.27        0.00
  -0.00000000  -0.00000000   0.00328130           -0.00       -0.00      482.70

     Energy error            =      4.2E-02 Ry
     Gradient error          =      4.5E-02 Ry/Bohr
     Cell gradient error     =      2.4E+01 kbar

     number of scf cycles    =   2
     number of bfgs steps    =   1

     enthalpy           old  =     -64.8166706195 Ry
     enthalpy           new  =     -64.8582170414 Ry

     CASE: enthalpy          _new < enthalpy          _old

     new trust radius        =       0.0608512229 bohr
ibrav =      7
 celldm(1) =      4.95511837
 celldm(3) =      4.93201996
Input lattice vectors:
     0.52027216    -0.52027216     2.56599266
     0.52027216     0.52027216     2.56599266
    -0.52027216    -0.52027216     2.56599266
New lattice vectors in INITIAL alat:
     0.52027216    -0.52027216     2.56599266
     0.52027216     0.52027216     2.56599266
    -0.52027216    -0.52027216     2.56599266
New lattice vectors in NEW alat (for information only):
     0.50000000    -0.50000000     2.46600998
     0.50000000     0.50000000     2.46600998
    -0.50000000    -0.50000000     2.46600998
Discrepancy in bohr =     0.000000    0.000000    0.000000
     new conv_thr            =       0.0000000045 Ry

     new unit-cell volume =    300.02464 a.u.^3 (    44.45907 Ang^3 )
     density =      2.08597 g/cm^3

CELL_PARAMETERS (alat=  4.76204453)
   0.520272157  -0.520272157   2.565992664
   0.520272157   0.520272157   2.565992664
  -0.520272157  -0.520272157   2.565992664

ATOMIC_POSITIONS (crystal)
Li            0.0000000000        0.1970511223        0.1970511223
Li            0.0000000000        0.8029488777        0.8029488777
Li            0.0000000000        0.4033725519        0.4033725519
Li            0.0000000000        0.5966274481        0.5966274481
Si            0.0000000000       -0.0000000000       -0.0000000000



     Writing config-only to output data dir ./output/LiSi.save/
     NEW-OLD atomic charge density approx. for the potential
     extrapolated charge   15.95859, renormalised to   16.00000

     total cpu time spent up to now is       26.9 secs

     Self-consistent Calculation

     iteration #  1     ecut=    80.00 Ry     beta= 0.70
     Davidson diagonalization with overlap
     ethr =  1.00E-06,  avg # of iterations =  4.8

     total cpu time spent up to now is       28.8 secs

     total energy              =     -65.88189347 Ry
     estimated scf accuracy    <       0.00267427 Ry

     iteration #  2     ecut=    80.00 Ry     beta= 0.70
     Davidson diagonalization with overlap
     ethr =  1.67E-05,  avg # of iterations =  3.0

     total cpu time spent up to now is       29.9 secs

     total energy              =     -65.88244890 Ry
     estimated scf accuracy    <       0.01133747 Ry

     iteration #  3     ecut=    80.00 Ry     beta= 0.70
     Davidson diagonalization with overlap
     ethr =  1.67E-05,  avg # of iterations =  2.2

     total cpu time spent up to now is       31.0 secs

     total energy              =     -65.88359674 Ry
     estimated scf accuracy    <       0.00030805 Ry

     iteration #  4     ecut=    80.00 Ry     beta= 0.70
     Davidson diagonalization with overlap
     ethr =  1.93E-06,  avg # of iterations =  3.0

     total cpu time spent up to now is       32.0 secs

     total energy              =     -65.88365352 Ry
     estimated scf accuracy    <       0.00002284 Ry

     iteration #  5     ecut=    80.00 Ry     beta= 0.70
     Davidson diagonalization with overlap
     ethr =  1.43E-07,  avg # of iterations =  1.8

     total cpu time spent up to now is       32.9 secs

     total energy              =     -65.88365837 Ry
     estimated scf accuracy    <       0.00000605 Ry

     iteration #  6     ecut=    80.00 Ry     beta= 0.70
     Davidson diagonalization with overlap
     ethr =  3.78E-08,  avg # of iterations =  1.6

     total cpu time spent up to now is       33.7 secs

     total energy              =     -65.88365952 Ry
     estimated scf accuracy    <       0.00000050 Ry

     iteration #  7     ecut=    80.00 Ry     beta= 0.70
     Davidson diagonalization with overlap
     ethr =  3.10E-09,  avg # of iterations =  1.7

     total cpu time spent up to now is       34.6 secs

     End of self-consistent calculation

          k = 0.0000 0.0000 0.0000 (  3165 PWs)   bands (ev):

   -38.4421 -38.3425 -38.1579 -37.9966  -4.2389   2.8714   3.9702  10.0907
    10.1452  12.9493  12.9493  14.0195

          k = 0.4805-0.0000-0.0974 (  3186 PWs)   bands (ev):

   -38.2844 -38.2502 -38.1232 -38.1231  -0.9620   1.6405   4.2688   6.4915
     6.6730  11.2272  12.5656  15.1824

          k =-0.0000 0.1201 0.0244 (  3198 PWs)   bands (ev):

   -38.4226 -38.3319 -38.1560 -38.0057  -3.9702   2.9905   4.1705   8.9678
    10.0435  11.3420  13.2392  14.7138

          k = 0.4805 0.1201-0.0731 (  3194 PWs)   bands (ev):

   -38.2785 -38.2446 -38.1181 -38.1180  -0.6402   1.8373   4.5586   6.6836
     6.9049  11.2847  12.3752  14.0615

          k =-0.0000 0.2403 0.0487 (  3211 PWs)   bands (ev):

   -38.3711 -38.3043 -38.1519 -38.0330  -3.1791   3.3473   4.6982   6.0435
     9.1178  11.7762  13.4067  14.1079

          k = 0.4805 0.2403-0.0487 (  3207 PWs)   bands (ev):

   -38.2641 -38.2311 -38.1057 -38.1056   0.3167   2.3839   5.4119   7.1989
     7.5471  10.2492  11.3112  12.0378

          k =-0.0000 0.3604 0.0731 (  3199 PWs)   bands (ev):

   -38.3113 -38.2704 -38.1458 -38.0767  -1.9489   3.1273   3.8969   5.7329
     7.7149  11.6758  12.8144  15.7138

          k = 0.4805 0.3604-0.0244 (  3218 PWs)   bands (ev):

   -38.2497 -38.2177 -38.0933 -38.0932   1.8705   3.0947   6.7198   6.9830
     7.9009   8.4448  10.2292  10.8500

          k = 0.4805-0.4805-0.1949 (  3222 PWs)   bands (ev):

   -38.2437 -38.2121 -38.0881 -38.0881   3.4421   3.5139   4.8458   7.5593
     8.9744   9.0209   9.1459   9.2897

          k = 0.1201-0.1201-0.0000 (  3207 PWs)   bands (ev):

   -38.4054 -38.3198 -38.1548 -38.0132  -3.6993   3.1611   4.2936   9.1115
     9.5430  10.2716  13.1932  13.5052

          k = 0.6006-0.1201-0.0974 (  3202 PWs)   bands (ev):

   -38.3004 -38.2658 -38.1396 -38.0764  -1.6569   3.3454   4.1031   6.0715
     7.8760  11.3022  12.3368  13.0070

          k = 0.6006-0.0000-0.0731 (  3206 PWs)   bands (ev):

   -38.3062 -38.2772 -38.1435 -38.0773  -1.9492   3.1247   3.8369   5.9712
     7.5989  11.3386  12.4256  15.5217

          k = 0.1201 0.1201 0.0487 (  3202 PWs)   bands (ev):

   -38.4031 -38.3237 -38.1525 -38.0138  -3.6996   3.0958   4.4540   8.8650
     9.1028  10.8065  13.4299  13.6076

          k = 0.6006 0.1201-0.0487 (  3201 PWs)   bands (ev):

   -38.2953 -38.2723 -38.1378 -38.0769  -1.6571   3.3414   4.0417   6.3387
     7.7437  11.1208  11.9447  12.9770

          k = 0.1201 0.2403 0.0731 (  3197 PWs)   bands (ev):

   -38.3545 -38.2985 -38.1468 -38.0379  -2.9020   3.4823   5.0547   6.2015
     8.8596  11.0114  12.2579  14.0140

          k = 0.6006 0.2403-0.0244 (  3201 PWs)   bands (ev):

   -38.2748 -38.2525 -38.1248 -38.0770  -0.7944   3.8929   4.6739   7.2215
     7.9941   9.9167  10.8534  11.0875

          k = 0.6006-0.6006-0.1949 (  3210 PWs)   bands (ev):

   -38.2563 -38.2291 -38.1089 -38.0817   0.5754   4.0676   5.6533   7.0036
     8.4841   9.6887   9.9196   9.9532

          k = 0.1201-0.3604-0.0487 (  3200 PWs)   bands (ev):

   -38.3041 -38.2607 -38.1415 -38.0759  -1.6568   3.3494   4.1743   5.8389
     7.9537  11.5650  12.7888  13.0976

          k = 0.6006-0.3604-0.1461 (  3205 PWs)   bands (ev):

   -38.2598 -38.2246 -38.1100 -38.0815   0.5668   4.1267   5.9940   7.0033
     7.4534   8.3377  11.2255  11.9541

          k = 0.1201-0.2403-0.0244 (  3208 PWs)   bands (ev):

   -38.3585 -38.2922 -38.1500 -38.0370  -2.9016   3.5797   4.7989   6.2083
     9.5777  10.4906  12.3226  13.6405

          k = 0.6006-0.2403-0.1218 (  3199 PWs)   bands (ev):

   -38.2810 -38.2445 -38.1271 -38.0764  -0.7960   3.9138   4.8438   6.5546
     8.3145   9.2837  11.6330  12.4031

          k = 0.2403-0.2403-0.0000 (  3208 PWs)   bands (ev):

   -38.3230 -38.2675 -38.1418 -38.0512  -2.0839   4.1516   5.3345   6.0067
     8.4701  10.2354  10.8410  13.9007

          k = 0.7208-0.2403-0.0974 (  3189 PWs)   bands (ev):

   -38.3162 -38.2775 -38.1375 -38.0523  -2.0842   3.9642   5.8604   5.9738
     8.0572  10.3431  10.6484  13.5568

          k = 0.7208-0.1201-0.0731 (  3203 PWs)   bands (ev):

   -38.3469 -38.3092 -38.1424 -38.0392  -2.9026   3.3768   5.4481   6.1930
     8.1248  11.4460  12.3026  13.8236

          k = 0.7208-0.0000-0.0487 (  3189 PWs)   bands (ev):

   -38.3559 -38.3256 -38.1430 -38.0356  -3.1803   3.1593   5.4081   6.0053
     7.8245  12.5665  13.7633  14.0621

          k = 0.7208 0.1201-0.0244 (  3190 PWs)   bands (ev):

   -38.3372 -38.3211 -38.1394 -38.0401  -2.9031   3.3157   5.8079   6.1914
     7.5835  11.6671  12.6171  13.1969

          k = 0.7208-0.7208-0.1949 (  3192 PWs)   bands (ev):

   -38.3001 -38.2965 -38.1333 -38.0536  -2.0844   3.8349   5.9424   6.7793
     7.1451  10.0667  11.6792  11.9368

          k = 0.2403-0.6006-0.0731 (  3195 PWs)   bands (ev):

   -38.2778 -38.2488 -38.1258 -38.0768  -0.7950   3.9015   4.7375   6.9008
     8.1773   9.5791  11.1403  11.6626

          k = 0.2403-0.3604-0.0244 (  3196 PWs)   bands (ev):

   -38.2830 -38.2418 -38.1281 -38.0762  -0.7966   3.9226   4.9371   6.3283
     8.3762   9.1260  12.0873  13.1907

          k = 0.3604-0.3604-0.0000 (  3214 PWs)   bands (ev):

   -38.2603 -38.2239 -38.1102 -38.0814   0.5653   4.1374   6.0855   6.9912
     7.3010   8.2308  11.6224  11.6921

          k = 0.8409-0.1201-0.0487 (  3195 PWs)   bands (ev):

   -38.3879 -38.3462 -38.1421 -38.0170  -3.7010   2.8833   5.3968   7.0667
     9.0624  11.4867  14.3840  15.2308

          k = 0.8409-0.0000-0.0244 (  3207 PWs)   bands (ev):

   -38.4019 -38.3626 -38.1413 -38.0102  -3.9721   2.7053   5.5216   6.5642
     9.7635  13.1744  14.9944  15.6112

          k = 0.8409-0.8409-0.1949 (  3204 PWs)   bands (ev):

   -38.3822 -38.3532 -38.1400 -38.0178  -3.7013   2.8504   5.8275   6.5272
     9.0543  11.5393  14.9034  15.1805

          k = 0.3604-0.6006-0.0487 (  3207 PWs)   bands (ev):

   -38.2570 -38.2282 -38.1091 -38.0816   0.5739   4.0774   5.6993   7.0054
     8.2534   9.1441  10.1816  10.6445

          k = 0.0000-0.0000-0.1949 (  3222 PWs)   bands (ev):

   -38.4197 -38.3765 -38.1410 -38.0020  -4.2410   2.5523   5.5518   6.2989
    12.8772  12.8772  13.9954  15.4295

     the Fermi energy is     7.2588 ev

!    total energy              =     -65.88365960 Ry
     estimated scf accuracy    <          1.8E-09 Ry
     smearing contrib. (-TS)   =       0.00087873 Ry
     internal energy E=F+TS    =     -65.88453833 Ry

     The total energy is F=E-TS. E is the sum of the following terms:
     one-electron contribution =     -22.80123558 Ry
     hartree contribution      =      11.89557621 Ry
     xc contribution           =     -17.28881318 Ry
     ewald contribution        =     -37.69006578 Ry

     convergence has been achieved in   7 iterations

     Forces acting on atoms (cartesian axes, Ry/au):

     atom    1 type  1   force =     0.00000000    0.00000000   -0.01276212
     atom    2 type  1   force =    -0.00000000   -0.00000000    0.01276212
     atom    3 type  1   force =    -0.00000000    0.00000000   -0.03249163
     atom    4 type  1   force =    -0.00000000   -0.00000000    0.03249163
     atom    5 type  2   force =    -0.00000000    0.00000000    0.00000000
     The non-local contrib.  to forces
     atom    1 type  1   force =     0.00000000    0.00000000   -0.03186561
     atom    2 type  1   force =    -0.00000000   -0.00000000    0.03186561
     atom    3 type  1   force =    -0.00000000   -0.00000000   -0.01330677
     atom    4 type  1   force =     0.00000000    0.00000000    0.01330677
     atom    5 type  2   force =     0.00000000    0.00000000    0.00000000
     The ionic contribution  to forces
     atom    1 type  1   force =    -0.00000000   -0.00000000    0.54380587
     atom    2 type  1   force =     0.00000000    0.00000000   -0.54380587
     atom    3 type  1   force =    -0.00000000   -0.00000000   -0.99075390
     atom    4 type  1   force =    -0.00000000    0.00000000    0.99075390
     atom    5 type  2   force =    -0.00000000   -0.00000000   -0.00000000
     The local contribution  to forces
     atom    1 type  1   force =    -0.00000000   -0.00000000   -0.52472922
     atom    2 type  1   force =     0.00000000    0.00000000    0.52472922
     atom    3 type  1   force =     0.00000000   -0.00000000    0.97161892
     atom    4 type  1   force =     0.00000000   -0.00000000   -0.97161892
     atom    5 type  2   force =     0.00000000   -0.00000000    0.00000000
     The core correction contribution to forces
     atom    1 type  1   force =     0.00000000    0.00000000    0.00000000
     atom    2 type  1   force =     0.00000000    0.00000000    0.00000000
     atom    3 type  1   force =     0.00000000    0.00000000    0.00000000
     atom    4 type  1   force =     0.00000000    0.00000000    0.00000000
     atom    5 type  2   force =    -0.00000000   -0.00000000    0.00000000
     The Hubbard contrib.    to forces
     atom    1 type  1   force =     0.00000000    0.00000000    0.00000000
     atom    2 type  1   force =     0.00000000    0.00000000    0.00000000
     atom    3 type  1   force =     0.00000000    0.00000000    0.00000000
     atom    4 type  1   force =     0.00000000    0.00000000    0.00000000
     atom    5 type  2   force =     0.00000000    0.00000000    0.00000000
     The SCF correction term to forces
     atom    1 type  1   force =    -0.00000000   -0.00000000    0.00002684
     atom    2 type  1   force =     0.00000000    0.00000000   -0.00002684
     atom    3 type  1   force =     0.00000000    0.00000000   -0.00004989
     atom    4 type  1   force =    -0.00000000   -0.00000000    0.00004989
     atom    5 type  2   force =     0.00000000    0.00000000    0.00000000

     Total force =     0.049368     Total SCF correction =     0.000080


     Computing stress (Cartesian axis) and pressure

          total   stress  (Ry/bohr**3)                   (kbar)     P=      473.43
   0.00320405  -0.00000000   0.00000000          471.33       -0.00        0.00
   0.00000000   0.00320405   0.00000000            0.00      471.33        0.00
   0.00000000  -0.00000000   0.00324677            0.00       -0.00      477.62

     Energy error            =      5.7E-03 Ry
     Gradient error          =      3.2E-02 Ry/Bohr
     Cell gradient error     =      2.9E+01 kbar

     number of scf cycles    =   3
     number of bfgs steps    =   2

     enthalpy           old  =     -64.8582170414 Ry
     enthalpy           new  =     -64.8638965624 Ry

     CASE: enthalpy          _new < enthalpy          _old

     new trust radius        =       0.0669462512 bohr
ibrav =      7
 celldm(1) =      4.93437352
 celldm(3) =      4.94259317
Input lattice vectors:
     0.51809401    -0.51809401     2.56072793
     0.51809401     0.51809401     2.56072793
    -0.51809401    -0.51809401     2.56072793
New lattice vectors in INITIAL alat:
     0.51809401    -0.51809401     2.56072793
     0.51809401     0.51809401     2.56072793
    -0.51809401    -0.51809401     2.56072793
New lattice vectors in NEW alat (for information only):
     0.50000000    -0.50000000     2.47129659
     0.50000000     0.50000000     2.47129659
    -0.50000000    -0.50000000     2.47129659
Discrepancy in bohr =     0.000000    0.000000    0.000000
     new conv_thr            =       0.0000000032 Ry

     new unit-cell volume =    296.90734 a.u.^3 (    43.99713 Ang^3 )
     density =      2.10787 g/cm^3

CELL_PARAMETERS (alat=  4.76204453)
   0.518094013  -0.518094013   2.560727930
   0.518094013   0.518094013   2.560727930
  -0.518094013  -0.518094013   2.560727930

ATOMIC_POSITIONS (crystal)
Li            0.0000000000        0.1960136750        0.1960136750
Li            0.0000000000        0.8039863250        0.8039863250
Li           -0.0000000000        0.4006332027        0.4006332027
Li            0.0000000000        0.5993667973        0.5993667973
Si           -0.0000000000        0.0000000000        0.0000000000



     Writing config-only to output data dir ./output/LiSi.save/
     NEW-OLD atomic charge density approx. for the potential
     extrapolated charge   15.83221, renormalised to   16.00000

     total cpu time spent up to now is       35.7 secs

     Self-consistent Calculation

     iteration #  1     ecut=    80.00 Ry     beta= 0.70
     Davidson diagonalization with overlap
     ethr =  1.00E-06,  avg # of iterations =  5.2

     total cpu time spent up to now is       37.5 secs

     total energy              =     -65.87596567 Ry
     estimated scf accuracy    <       0.00235759 Ry

     iteration #  2     ecut=    80.00 Ry     beta= 0.70
     Davidson diagonalization with overlap
     ethr =  1.47E-05,  avg # of iterations =  2.9

     total cpu time spent up to now is       38.6 secs

     total energy              =     -65.87622287 Ry
     estimated scf accuracy    <       0.01080050 Ry

     iteration #  3     ecut=    80.00 Ry     beta= 0.70
     Davidson diagonalization with overlap
     ethr =  1.47E-05,  avg # of iterations =  2.3

     total cpu time spent up to now is       39.6 secs

     total energy              =     -65.87755132 Ry
     estimated scf accuracy    <       0.00003311 Ry

     iteration #  4     ecut=    80.00 Ry     beta= 0.70
     Davidson diagonalization with overlap
     ethr =  2.07E-07,  avg # of iterations =  2.6

     total cpu time spent up to now is       40.5 secs

     total energy              =     -65.87755034 Ry
     estimated scf accuracy    <       0.00000734 Ry

     iteration #  5     ecut=    80.00 Ry     beta= 0.70
     Davidson diagonalization with overlap
     ethr =  4.59E-08,  avg # of iterations =  2.0

     total cpu time spent up to now is       41.4 secs

     total energy              =     -65.87755119 Ry
     estimated scf accuracy    <       0.00000016 Ry

     iteration #  6     ecut=    80.00 Ry     beta= 0.70
     Davidson diagonalization with overlap
     ethr =  9.94E-10,  avg # of iterations =  2.8

     total cpu time spent up to now is       42.4 secs

     total energy              =     -65.87755124 Ry
     estimated scf accuracy    <       0.00000004 Ry

     iteration #  7     ecut=    80.00 Ry     beta= 0.70
     Davidson diagonalization with overlap
     ethr =  2.43E-10,  avg # of iterations =  1.8

     total cpu time spent up to now is       43.3 secs

     total energy              =     -65.87755125 Ry
     estimated scf accuracy    <       0.00000002 Ry

     iteration #  8     ecut=    80.00 Ry     beta= 0.70
     Davidson diagonalization with overlap
     ethr =  1.29E-10,  avg # of iterations =  1.2

     total cpu time spent up to now is       44.1 secs

     End of self-consistent calculation

          k = 0.0000 0.0000 0.0000 (  3165 PWs)   bands (ev):

   -38.3674 -38.2798 -38.0322 -37.8728  -4.2174   2.9395   4.0855  10.2334
    10.2349  13.2246  13.2246  14.2056

          k = 0.4825 0.0000-0.0976 (  3186 PWs)   bands (ev):

   -38.2079 -38.1807 -38.0000 -38.0000  -0.8309   1.6799   4.3323   6.6094
     6.7900  11.3032  12.5151  15.3812

          k = 0.0000 0.1206 0.0244 (  3198 PWs)   bands (ev):

   -38.3472 -38.2679 -38.0311 -37.8822  -3.9426   3.0607   4.2817   9.1203
    10.1741  11.5039  13.5164  14.7986

          k = 0.4825 0.1206-0.0732 (  3194 PWs)   bands (ev):

   -38.2018 -38.1749 -37.9947 -37.9946  -0.5068   1.8865   4.6229   6.7974
     7.0197  11.3571  12.3689  14.2785

          k = 0.0000 0.2413 0.0488 (  3211 PWs)   bands (ev):

   -38.2945 -38.2369 -38.0286 -37.9105  -3.1325   3.4204   4.8045   6.1802
     9.2525  11.9059  13.4093  14.3904

          k = 0.4825 0.2413-0.0488 (  3207 PWs)   bands (ev):

   -38.1870 -38.1608 -37.9817 -37.9817   0.4567   2.4627   5.4779   7.2971
     7.6535  10.4587  11.3731  12.1409

          k = 0.0000 0.3619 0.0732 (  3199 PWs)   bands (ev):

   -38.2346 -38.2004 -38.0231 -37.9546  -1.8669   3.2206   3.9673   5.8328
     7.8477  11.7646  12.7786  15.9004

          k = 0.4825 0.3619-0.0244 (  3218 PWs)   bands (ev):

   -38.1721 -38.1468 -37.9687 -37.9687   2.0207   3.2200   6.7839   7.1629
     7.9745   8.5398  10.3438  10.9334

          k = 0.4825-0.4825-0.1953 (  3222 PWs)   bands (ev):

   -38.1660 -38.1410 -37.9633 -37.9633   3.5959   3.6736   5.0229   7.6046
     9.0237   9.0515   9.2654   9.3989

          k = 0.1206-0.1206-0.0000 (  3207 PWs)   bands (ev):

   -38.3294 -38.2550 -38.0301 -37.8901  -3.6658   3.2296   4.4060   9.3165
     9.6868  10.3731  13.4217  13.6014

          k = 0.6032-0.1206-0.0976 (  3202 PWs)   bands (ev):

   -38.2238 -38.1950 -38.0171 -37.9540  -1.5715   3.4475   4.1763   6.1661
     8.0058  11.4118  12.3567  13.1886

          k = 0.6032 0.0000-0.0732 (  3206 PWs)   bands (ev):

   -38.2300 -38.2058 -38.0218 -37.9550  -1.8672   3.2180   3.9113   6.0590
     7.7409  11.4365  12.4085  15.8103

          k = 0.1206 0.1206 0.0488 (  3202 PWs)   bands (ev):

   -38.3273 -38.2580 -38.0287 -37.8906  -3.6661   3.1703   4.5578   8.9890
     9.3071  10.9481  13.6404  13.7051

          k = 0.6032 0.1206-0.0488 (  3201 PWs)   bands (ev):

   -38.2191 -38.2004 -38.0160 -37.9543  -1.5716   3.4435   4.1179   6.4208
     7.8852  11.2292  11.9597  13.1866

          k = 0.1206 0.2413 0.0732 (  3197 PWs)   bands (ev):

   -38.2779 -38.2297 -38.0244 -37.9153  -2.8504   3.5593   5.1548   6.3463
     8.9968  11.1764  12.3506  14.1098

          k = 0.6032 0.2413-0.0244 (  3201 PWs)   bands (ev):

   -38.1981 -38.1805 -38.0022 -37.9538  -0.6982   4.0224   4.7506   7.3048
     8.1217  10.0862  10.9198  11.1828

          k = 0.6032-0.6032-0.1953 (  3210 PWs)   bands (ev):

   -38.1790 -38.1577 -37.9849 -37.9577   0.6915   4.2266   5.7255   7.1383
     8.5862   9.7253  10.0503  10.0671

          k = 0.1206-0.3619-0.0488 (  3200 PWs)   bands (ev):

   -38.2271 -38.1909 -38.0182 -37.9536  -1.5714   3.4517   4.2434   5.9428
     8.0759  11.6948  12.7806  13.2465

          k = 0.6032-0.3619-0.1464 (  3205 PWs)   bands (ev):

   -38.1823 -38.1539 -37.9855 -37.9576   0.6825   4.2904   6.0651   7.1314
     7.5629   8.3902  11.3747  12.1119

          k = 0.1206-0.2413-0.0244 (  3208 PWs)   bands (ev):

   -38.2816 -38.2248 -38.0263 -37.9147  -2.8500   3.6497   4.9072   6.3593
     9.7068  10.6528  12.3768  13.8068

          k = 0.6032-0.2413-0.1220 (  3199 PWs)   bands (ev):

   -38.2039 -38.1739 -38.0034 -37.9534  -0.6999   4.0444   4.9162   6.6534
     8.4170   9.4369  11.7354  12.4852

          k = 0.2413-0.2413-0.0000 (  3208 PWs)   bands (ev):

   -38.2455 -38.1987 -38.0179 -37.9289  -2.0167   4.2208   5.4396   6.1861
     8.6050  10.3035  10.9685  14.0395

          k = 0.7238-0.2413-0.0976 (  3189 PWs)   bands (ev):

   -38.2394 -38.2065 -38.0154 -37.9297  -2.0169   4.0431   5.9514   6.1506
     8.1741  10.5061  10.7217  13.6712

          k = 0.7238-0.1206-0.0732 (  3203 PWs)   bands (ev):

   -38.2711 -38.2383 -38.0216 -37.9162  -2.8510   3.4599   5.5436   6.3177
     8.2778  11.6318  12.4053  13.8969

          k = 0.7238 0.0000-0.0488 (  3189 PWs)   bands (ev):

   -38.2809 -38.2542 -38.0231 -37.9124  -3.1337   3.2449   5.5119   6.0912
     8.0026  12.6730  13.7881  14.3399

          k = 0.7238 0.1206-0.0244 (  3190 PWs)   bands (ev):

   -38.2625 -38.2481 -38.0197 -37.9169  -2.8514   3.4018   5.9326   6.2512
     7.7677  11.8787  12.7104  13.2764

          k = 0.7238-0.7238-0.1953 (  3192 PWs)   bands (ev):

   -38.2250 -38.2225 -38.0130 -37.9305  -2.0171   3.9185   6.1168   6.8216
     7.2904  10.2514  11.7334  12.0651

          k = 0.2413-0.6032-0.0732 (  3195 PWs)   bands (ev):

   -38.2009 -38.1774 -38.0027 -37.9536  -0.6989   4.0315   4.8128   6.9934
     8.2934   9.7272  11.2443  11.7433

          k = 0.2413-0.3619-0.0244 (  3196 PWs)   bands (ev):

   -38.2056 -38.1717 -38.0039 -37.9533  -0.7006   4.0537   5.0062   6.4315
     8.4655   9.2905  12.1791  13.2678

          k = 0.3619-0.3619-0.0000 (  3214 PWs)   bands (ev):

   -38.1828 -38.1533 -37.9856 -37.9576   0.6810   4.3020   6.1554   7.1124
     7.4183   8.2818  11.7967  11.8288

          k = 0.8444-0.1206-0.0488 (  3195 PWs)   bands (ev):

   -38.3135 -38.2763 -38.0218 -37.8931  -3.6674   2.9721   5.4525   7.2152
     9.2636  11.6991  14.4877  15.3745

          k = 0.8444-0.0000-0.0244 (  3207 PWs)   bands (ev):

   -38.3284 -38.2929 -38.0214 -37.8857  -3.9444   2.7967   5.5407   6.7495
     9.9683  13.4447  15.1360  15.6789

          k = 0.8444-0.8444-0.1953 (  3204 PWs)   bands (ev):

   -38.3085 -38.2821 -38.0204 -37.8936  -3.6677   2.9410   5.8218   6.7349
     9.2549  11.7590  14.9877  15.3310

          k = 0.3619-0.6032-0.0488 (  3207 PWs)   bands (ev):

   -38.1796 -38.1570 -37.9850 -37.9577   0.6900   4.2371   5.7715   7.1398
     8.3562   9.2038  10.3143  10.7361

          k =-0.0000 0.0000-0.1953 (  3222 PWs)   bands (ev):

   -38.3470 -38.3075 -38.0209 -37.8770  -4.2195   2.6454   5.5275   6.5316
    13.1449  13.1449  14.1806  15.5805

     the Fermi energy is     7.3818 ev

!    total energy              =     -65.87755125 Ry
     estimated scf accuracy    <          6.2E-10 Ry
     smearing contrib. (-TS)   =       0.00059724 Ry
     internal energy E=F+TS    =     -65.87814849 Ry

     The total energy is F=E-TS. E is the sum of the following terms:
     one-electron contribution =     -22.44740943 Ry
     hartree contribution      =      11.78182465 Ry
     xc contribution           =     -17.29786295 Ry
     ewald contribution        =     -37.91470075 Ry

     convergence has been achieved in   8 iterations

     Forces acting on atoms (cartesian axes, Ry/au):

     atom    1 type  1   force =     0.00000000    0.00000000   -0.00526930
     atom    2 type  1   force =    -0.00000000   -0.00000000    0.00526930
     atom    3 type  1   force =    -0.00000000   -0.00000000   -0.02036493
     atom    4 type  1   force =    -0.00000000    0.00000000    0.02036493
     atom    5 type  2   force =     0.00000000    0.00000000   -0.00000000
     The non-local contrib.  to forces
     atom    1 type  1   force =     0.00000000   -0.00000000   -0.03807906
     atom    2 type  1   force =     0.00000000   -0.00000000    0.03807906
     atom    3 type  1   force =     0.00000000    0.00000000   -0.01316432
     atom    4 type  1   force =    -0.00000000   -0.00000000    0.01316432
     atom    5 type  2   force =    -0.00000000   -0.00000000   -0.00000000
     The ionic contribution  to forces
     atom    1 type  1   force =     0.00000000    0.00000000    0.56242609
     atom    2 type  1   force =    -0.00000000   -0.00000000   -0.56242609
     atom    3 type  1   force =     0.00000000    0.00000000   -0.84054606
     atom    4 type  1   force =     0.00000000   -0.00000000    0.84054606
     atom    5 type  2   force =     0.00000000    0.00000000    0.00000000
     The local contribution  to forces
     atom    1 type  1   force =    -0.00000000   -0.00000000   -0.52959852
     atom    2 type  1   force =     0.00000000    0.00000000    0.52959852
     atom    3 type  1   force =    -0.00000000   -0.00000000    0.83331475
     atom    4 type  1   force =    -0.00000000    0.00000000   -0.83331475
     atom    5 type  2   force =     0.00000000   -0.00000000    0.00000000
     The core correction contribution to forces
     atom    1 type  1   force =     0.00000000    0.00000000    0.00000000
     atom    2 type  1   force =     0.00000000    0.00000000    0.00000000
     atom    3 type  1   force =     0.00000000    0.00000000    0.00000000
     atom    4 type  1   force =     0.00000000    0.00000000    0.00000000
     atom    5 type  2   force =    -0.00000000   -0.00000000    0.00000000
     The Hubbard contrib.    to forces
     atom    1 type  1   force =     0.00000000    0.00000000    0.00000000
     atom    2 type  1   force =     0.00000000    0.00000000    0.00000000
     atom    3 type  1   force =     0.00000000    0.00000000    0.00000000
     atom    4 type  1   force =     0.00000000    0.00000000    0.00000000
     atom    5 type  2   force =     0.00000000    0.00000000    0.00000000
     The SCF correction term to forces
     atom    1 type  1   force =    -0.00000000   -0.00000000   -0.00001780
     atom    2 type  1   force =     0.00000000   -0.00000000    0.00001780
     atom    3 type  1   force =     0.00000000    0.00000000    0.00003069
     atom    4 type  1   force =    -0.00000000   -0.00000000   -0.00003069
     atom    5 type  2   force =    -0.00000000   -0.00000000    0.00000000

     Total force =     0.029749     Total SCF correction =     0.000050


     Computing stress (Cartesian axis) and pressure

          total   stress  (Ry/bohr**3)                   (kbar)     P=      481.15
   0.00325910   0.00000000   0.00000000          479.43        0.00        0.00
  -0.00000000   0.00325910  -0.00000000           -0.00      479.43       -0.00
   0.00000000  -0.00000000   0.00329418            0.00       -0.00      484.59

     Energy error            =      4.5E-03 Ry
     Gradient error          =      2.0E-02 Ry/Bohr
     Cell gradient error     =      2.1E+01 kbar

     number of scf cycles    =   4
     number of bfgs steps    =   3

     enthalpy           old  =     -64.8638965624 Ry
     enthalpy           new  =     -64.8683837110 Ry

     CASE: enthalpy          _new < enthalpy          _old

     new trust radius        =       0.1002133429 bohr
ibrav =      7
 celldm(1) =      4.89804276
 celldm(3) =      4.96125648
Input lattice vectors:
     0.51427939    -0.51427939     2.55147198
     0.51427939     0.51427939     2.55147198
    -0.51427939    -0.51427939     2.55147198
New lattice vectors in INITIAL alat:
     0.51427939    -0.51427939     2.55147198
     0.51427939     0.51427939     2.55147198
    -0.51427939    -0.51427939     2.55147198
New lattice vectors in NEW alat (for information only):
     0.50000000    -0.50000000     2.48062824
     0.50000000     0.50000000     2.48062824
    -0.50000000    -0.50000000     2.48062824
Discrepancy in bohr =     0.000000    0.000000    0.000000
     new conv_thr            =       0.0000000020 Ry

     new unit-cell volume =    291.49385 a.u.^3 (    43.19493 Ang^3 )
     density =      2.14702 g/cm^3

CELL_PARAMETERS (alat=  4.76204453)
   0.514279394  -0.514279394   2.551471978
   0.514279394   0.514279394   2.551471978
  -0.514279394  -0.514279394   2.551471978

ATOMIC_POSITIONS (crystal)
Li            0.0000000000        0.1947493406        0.1947493406
Li            0.0000000000        0.8052506594        0.8052506594
Li            0.0000000000        0.3965241788        0.3965241788
Li            0.0000000000        0.6034758212        0.6034758212
Si            0.0000000000       -0.0000000000       -0.0000000000



     Writing config-only to output data dir ./output/LiSi.save/
     NEW-OLD atomic charge density approx. for the potential
     extrapolated charge   15.70321, renormalised to   16.00000

     total cpu time spent up to now is       45.1 secs

     Self-consistent Calculation

     iteration #  1     ecut=    80.00 Ry     beta= 0.70
     Davidson diagonalization with overlap
     ethr =  1.00E-06,  avg # of iterations =  6.2

     total cpu time spent up to now is       47.0 secs

     total energy              =     -65.85681678 Ry
     estimated scf accuracy    <       0.00715023 Ry

     iteration #  2     ecut=    80.00 Ry     beta= 0.70
     Davidson diagonalization with overlap
     ethr =  4.47E-05,  avg # of iterations =  3.0

     total cpu time spent up to now is       48.1 secs

     total energy              =     -65.85775341 Ry
     estimated scf accuracy    <       0.03671759 Ry

     iteration #  3     ecut=    80.00 Ry     beta= 0.70
     Davidson diagonalization with overlap
     ethr =  4.47E-05,  avg # of iterations =  2.3

     total cpu time spent up to now is       49.1 secs

     total energy              =     -65.86192761 Ry
     estimated scf accuracy    <       0.00026648 Ry

     iteration #  4     ecut=    80.00 Ry     beta= 0.70
     Davidson diagonalization with overlap
     ethr =  1.67E-06,  avg # of iterations =  3.3

     total cpu time spent up to now is       50.1 secs

     total energy              =     -65.86193992 Ry
     estimated scf accuracy    <       0.00002979 Ry

     iteration #  5     ecut=    80.00 Ry     beta= 0.70
     Davidson diagonalization with overlap
     ethr =  1.86E-07,  avg # of iterations =  1.6

     total cpu time spent up to now is       50.9 secs

     total energy              =     -65.86193744 Ry
     estimated scf accuracy    <       0.00001550 Ry

     iteration #  6     ecut=    80.00 Ry     beta= 0.70
     Davidson diagonalization with overlap
     ethr =  9.69E-08,  avg # of iterations =  1.7

     total cpu time spent up to now is       51.8 secs

     total energy              =     -65.86194073 Ry
     estimated scf accuracy    <       0.00000228 Ry

     iteration #  7     ecut=    80.00 Ry     beta= 0.70
     Davidson diagonalization with overlap
     ethr =  1.42E-08,  avg # of iterations =  1.1

     total cpu time spent up to now is       52.6 secs

     total energy              =     -65.86194063 Ry
     estimated scf accuracy    <       0.00000067 Ry

     iteration #  8     ecut=    80.00 Ry     beta= 0.70
     Davidson diagonalization with overlap
     ethr =  4.17E-09,  avg # of iterations =  1.4

     total cpu time spent up to now is       53.4 secs

     total energy              =     -65.86194073 Ry
     estimated scf accuracy    <       0.00000001 Ry

     iteration #  9     ecut=    80.00 Ry     beta= 0.70
     Davidson diagonalization with overlap
     ethr =  6.43E-11,  avg # of iterations =  2.6

     total cpu time spent up to now is       54.3 secs

     End of self-consistent calculation

          k = 0.0000 0.0000 0.0000 (  3165 PWs)   bands (ev):

   -38.2448 -38.1686 -37.8171 -37.6590  -4.1800   3.0482   4.2964  10.4233
    10.4813  13.6774  13.6774  14.5077

          k = 0.4861-0.0000-0.0980 (  3186 PWs)   bands (ev):

   -38.0765 -38.0570 -37.7911 -37.7911  -0.6212   1.7516   4.4554   6.8232
     7.0027  11.4326  12.4505  15.7090

          k =-0.0000 0.1215 0.0245 (  3198 PWs)   bands (ev):

   -38.2232 -38.1545 -37.8170 -37.6693  -3.8955   3.1755   4.4856   9.3791
    10.4135  11.7818  13.9725  14.9672

          k = 0.4861 0.1215-0.0735 (  3194 PWs)   bands (ev):

   -38.0700 -38.0507 -37.7853 -37.7852  -0.2930   1.9724   4.7478   7.0037
     7.2280  11.4785  12.3718  14.6521

          k =-0.0000 0.2431 0.0490 (  3211 PWs)   bands (ev):

   -38.1673 -38.1185 -37.8171 -37.6998  -3.0560   3.5465   4.9980   6.4099
     9.4987  12.1229  13.4457  14.8564

          k = 0.4861 0.2431-0.0490 (  3207 PWs)   bands (ev):

   -38.0543 -38.0357 -37.7712 -37.7712   0.6822   2.5919   5.6066   7.4759
     7.8450  10.8074  11.4857  12.3091

          k =-0.0000 0.3646 0.0735 (  3199 PWs)   bands (ev):

   -38.1046 -38.0773 -37.8135 -37.7458  -1.7357   3.3793   4.0967   6.0188
     8.0868  11.9133  12.7408  16.2139

          k = 0.4861 0.3646-0.0245 (  3218 PWs)   bands (ev):

   -38.0386 -38.0206 -37.7571 -37.7571   2.2631   3.4184   6.9090   7.4630
     8.1149   8.7079  10.5412  11.0930

          k = 0.4861-0.4861-0.1960 (  3222 PWs)   bands (ev):

   -38.0320 -38.0143 -37.7513 -37.7513   3.8379   3.9248   5.3278   7.6964
     9.1261   9.1344   9.4848   9.5726

          k = 0.1215-0.1215-0.0000 (  3207 PWs)   bands (ev):

   -38.2040 -38.1402 -37.8166 -37.6780  -3.6096   3.3434   4.6119   9.6468
     9.9354  10.5736  13.7843  13.8013

          k = 0.6076-0.1215-0.0980 (  3202 PWs)   bands (ev):

   -38.0934 -38.0710 -37.8074 -37.7448  -1.4346   3.6188   4.3108   6.3429
     8.2388  11.5851  12.4047  13.5122

          k = 0.6076-0.0000-0.0735 (  3206 PWs)   bands (ev):

   -38.1005 -38.0819 -37.8128 -37.7460  -1.7361   3.3767   4.0471   6.2265
     7.9939  11.5986  12.3988  16.2888

          k = 0.1215 0.1215 0.0490 (  3202 PWs)   bands (ev):

   -38.2023 -38.1424 -37.8158 -37.6783  -3.6098   3.2948   4.7483   9.2150
     9.6364  11.2007  13.8900  13.9952

          k = 0.6076 0.1215-0.0490 (  3201 PWs)   bands (ev):

   -38.0891 -38.0757 -37.8069 -37.7450  -1.4347   3.6146   4.2575   6.5793
     8.1360  11.4027  12.0053  13.5463

          k = 0.1215 0.2431 0.0735 (  3197 PWs)   bands (ev):

   -38.1502 -38.1094 -37.8136 -37.7047  -2.7659   3.6937   5.3364   6.5866
     9.2430  11.4513  12.5210  14.2895

          k = 0.6076 0.2431-0.0245 (  3201 PWs)   bands (ev):

   -38.0664 -38.0552 -37.7920 -37.7437  -0.5435   4.2324   4.8925   7.4625
     8.3463  10.3628  11.0541  11.3598

          k = 0.6076-0.6076-0.1960 (  3210 PWs)   bands (ev):

   -38.0459 -38.0318 -37.7736 -37.7468   0.8787   4.4775   5.8615   7.3711
     8.7702   9.8186  10.2495  10.2885

          k = 0.1215-0.3646-0.0490 (  3200 PWs)   bands (ev):

   -38.0964 -38.0677 -37.8079 -37.7446  -1.4345   3.6231   4.3713   6.1340
     8.2967  11.8977  12.7875  13.5224

          k = 0.6076-0.3646-0.1470 (  3205 PWs)   bands (ev):

   -38.0493 -38.0282 -37.7739 -37.7467   0.8691   4.5488   6.2009   7.3478
     7.7640   8.4947  11.6387  12.3859

          k = 0.1215-0.2431-0.0245 (  3208 PWs)   bands (ev):

   -38.1533 -38.1056 -37.8146 -37.7043  -2.7655   3.7717   5.1051   6.6082
     9.9415  10.9269  12.4868  14.0886

          k = 0.6076-0.2431-0.1225 (  3199 PWs)   bands (ev):

   -38.0721 -38.0491 -37.7927 -37.7435  -0.5453   4.2560   5.0513   6.8337
     8.6006   9.6989  11.9263  12.6308

          k = 0.2431-0.2431-0.0000 (  3208 PWs)   bands (ev):

   -38.1152 -38.0769 -37.8066 -37.7190  -1.9075   4.3453   5.6319   6.4720
     8.8428  10.4361  11.2027  14.2751

          k = 0.7292-0.2431-0.0980 (  3189 PWs)   bands (ev):

   -38.1100 -38.0829 -37.8053 -37.7195  -1.9077   4.1844   6.1188   6.4323
     8.3855  10.7946  10.8623  13.8678

          k = 0.7292-0.1215-0.0735 (  3203 PWs)   bands (ev):

   -38.1445 -38.1159 -37.8121 -37.7053  -2.7665   3.6053   5.7096   6.5336
     8.5486  11.9338  12.5987  14.0402

          k = 0.7292-0.0000-0.0490 (  3189 PWs)   bands (ev):

   -38.1562 -38.1315 -37.8141 -37.7010  -3.0572   3.3935   5.6799   6.2631
     8.3111  12.8517  13.8569  14.7981

          k = 0.7292 0.1215-0.0245 (  3190 PWs)   bands (ev):

   -38.1380 -38.1231 -37.8110 -37.7057  -2.7669   3.5527   6.1127   6.4032
     8.0804  12.2311  12.8736  13.4334

          k = 0.7292-0.7292-0.1960 (  3192 PWs)   bands (ev):

   -38.0977 -38.0960 -37.8040 -37.7200  -1.9079   4.0682   6.3947   6.9168
     7.5421  10.5723  11.8580  12.2733

          k = 0.2431-0.6076-0.0735 (  3195 PWs)   bands (ev):

   -38.0693 -38.0522 -37.7923 -37.7437  -0.5443   4.2421   4.9525   7.1644
     8.4999   9.9749  11.4404  11.8908

          k = 0.2431-0.3646-0.0245 (  3196 PWs)   bands (ev):

   -38.0737 -38.0473 -37.7929 -37.7434  -0.5460   4.2660   5.1363   6.6186
     8.6290   9.5717  12.3531  13.3994

          k = 0.3646-0.3646-0.0000 (  3214 PWs)   bands (ev):

   -38.0497 -38.0277 -37.7740 -37.7467   0.8674   4.5618   6.2902   7.3143
     7.6347   8.3838  12.0798  12.0913

          k = 0.8507-0.1215-0.0490 (  3195 PWs)   bands (ev):

   -38.1909 -38.1561 -37.8119 -37.6800  -3.6111   3.1236   5.5553   7.4911
     9.5881  12.0568  14.6822  15.6290

          k = 0.8507-0.0000-0.0245 (  3207 PWs)   bands (ev):

   -38.2079 -38.1731 -37.8114 -37.6717  -3.8972   2.9512   5.5890   7.0807
    10.3037  13.8895  15.3766  15.8275

          k = 0.8507-0.8507-0.1960 (  3204 PWs)   bands (ev):

   -38.1873 -38.1602 -37.8111 -37.6803  -3.6114   3.0959   5.8480   7.0833
     9.5785  12.1285  15.1654  15.5793

          k = 0.3646-0.6076-0.0490 (  3207 PWs)   bands (ev):

   -38.0466 -38.0310 -37.7737 -37.7468   0.8771   4.4892   5.9077   7.3718
     8.5419   9.3194  10.5548  10.8969

          k =-0.0000-0.0000-0.1960 (  3222 PWs)   bands (ev):

   -38.2281 -38.1891 -37.8103 -37.6619  -4.1818   2.8016   5.5274   6.9193
    13.5851  13.5851  14.4819  15.8759

     the Fermi energy is     7.6014 ev

!    total energy              =     -65.86194073 Ry
     estimated scf accuracy    <          1.0E-09 Ry
     smearing contrib. (-TS)   =       0.00031593 Ry
     internal energy E=F+TS    =     -65.86225666 Ry

     The total energy is F=E-TS. E is the sum of the following terms:
     one-electron contribution =     -21.91506401 Ry
     hartree contribution      =      11.62594381 Ry
     xc contribution           =     -17.31617214 Ry
     ewald contribution        =     -38.25696431 Ry

     convergence has been achieved in   9 iterations

     Forces acting on atoms (cartesian axes, Ry/au):

     atom    1 type  1   force =     0.00000000   -0.00000000    0.00488724
     atom    2 type  1   force =     0.00000000    0.00000000   -0.00488724
     atom    3 type  1   force =    -0.00000000    0.00000000   -0.00353690
     atom    4 type  1   force =     0.00000000    0.00000000    0.00353690
     atom    5 type  2   force =     0.00000000    0.00000000    0.00000000
     The non-local contrib.  to forces
     atom    1 type  1   force =     0.00000000   -0.00000000   -0.04865146
     atom    2 type  1   force =    -0.00000000    0.00000000    0.04865146
     atom    3 type  1   force =     0.00000000   -0.00000000   -0.01189560
     atom    4 type  1   force =     0.00000000    0.00000000    0.01189560
     atom    5 type  2   force =     0.00000000   -0.00000000   -0.00000000
     The ionic contribution  to forces
     atom    1 type  1   force =    -0.00000000   -0.00000000    0.56763265
     atom    2 type  1   force =    -0.00000000   -0.00000000   -0.56763265
     atom    3 type  1   force =    -0.00000000   -0.00000000   -0.61094318
     atom    4 type  1   force =    -0.00000000   -0.00000000    0.61094318
     atom    5 type  2   force =     0.00000000    0.00000000    0.00000000
     The local contribution  to forces
     atom    1 type  1   force =    -0.00000000    0.00000000   -0.51411785
     atom    2 type  1   force =    -0.00000000    0.00000000    0.51411785
     atom    3 type  1   force =    -0.00000000   -0.00000000    0.61934190
     atom    4 type  1   force =    -0.00000000    0.00000000   -0.61934190
     atom    5 type  2   force =    -0.00000000   -0.00000000    0.00000000
     The core correction contribution to forces
     atom    1 type  1   force =     0.00000000    0.00000000    0.00000000
     atom    2 type  1   force =     0.00000000    0.00000000    0.00000000
     atom    3 type  1   force =     0.00000000    0.00000000    0.00000000
     atom    4 type  1   force =     0.00000000    0.00000000    0.00000000
     atom    5 type  2   force =    -0.00000000   -0.00000000   -0.00000000
     The Hubbard contrib.    to forces
     atom    1 type  1   force =     0.00000000    0.00000000    0.00000000
     atom    2 type  1   force =     0.00000000    0.00000000    0.00000000
     atom    3 type  1   force =     0.00000000    0.00000000    0.00000000
     atom    4 type  1   force =     0.00000000    0.00000000    0.00000000
     atom    5 type  2   force =     0.00000000    0.00000000    0.00000000
     The SCF correction term to forces
     atom    1 type  1   force =     0.00000000   -0.00000000    0.00002390
     atom    2 type  1   force =     0.00000000    0.00000000   -0.00002390
     atom    3 type  1   force =    -0.00000000    0.00000000   -0.00004002
     atom    4 type  1   force =     0.00000000   -0.00000000    0.00004002
     atom    5 type  2   force =     0.00000000   -0.00000000    0.00000000

     Total force =     0.008532     Total SCF correction =     0.000066


     Computing stress (Cartesian axis) and pressure

          total   stress  (Ry/bohr**3)                   (kbar)     P=      498.42
   0.00338840  -0.00000000   0.00000000          498.45       -0.00        0.00
  -0.00000000   0.00338840   0.00000000           -0.00      498.45        0.00
  -0.00000000   0.00000000   0.00338776           -0.00        0.00      498.36

     Energy error            =      2.8E-03 Ry
     Gradient error          =      4.9E-03 Ry/Bohr
     Cell gradient error     =      1.6E+00 kbar

     number of scf cycles    =   5
[...]
     Generated using ONCVPSP code by D. R. Hamann
     Using radial grid of 1944 points,  4 beta functions with: 
                l(1) =   0
                l(2) =   0
                l(3) =   1
                l(4) =   1

     PseudoPot. # 2 for Si read from file:
     ../pseudo/Si_ONCV_PBE_sr.upf
     MD5 check sum: e543d271109d17c80368dfa7c482276d
     Pseudo is Norm-conserving + core correction, Zval =  4.0
     Generated using ONCVPSP code by D. R. Hamann
     Using radial grid of 1510 points,  6 beta functions with: 
                l(1) =   0
                l(2) =   0
                l(3) =   1
                l(4) =   1
                l(5) =   2
                l(6) =   2

     atomic species   valence    mass     pseudopotential
        Li             3.00     6.94100     Li( 1.00)
        Si             4.00    28.08550     Si( 1.00)

     16 Sym. Ops., with inversion, found



   Cartesian axes

     site n.     atom                  positions (alat units)
         1           Li  tau(   1) = (   0.0000000  -0.0000000   0.9973967  )
         2           Li  tau(   2) = (   0.0000000  -0.0000000   4.0993283  )
         3           Li  tau(   3) = (   0.0000000   0.0000000   2.0149113  )
         4           Li  tau(   4) = (   0.0000000  -0.0000000   3.0818137  )
         5           Si  tau(   5) = (   0.0000000  -0.0000000  -0.0000000  )

     number of k points=    35  Marzari-Vanderbilt smearing, width (Ry)=  0.0200
                       cart. coord. in units 2pi/alat
        k(    1) = (   0.0000000   0.0000000   0.0000000), wk =   0.0156250
        k(    2) = (   0.4867749  -0.0000000  -0.0981022), wk =   0.0625000
        k(    3) = (  -0.0000000   0.1216937   0.0245256), wk =   0.0625000
        k(    4) = (   0.4867749   0.1216937  -0.0735767), wk =   0.1250000
        k(    5) = (  -0.0000000   0.2433874   0.0490511), wk =   0.0625000
        k(    6) = (   0.4867749   0.2433874  -0.0490511), wk =   0.1250000
        k(    7) = (  -0.0000000   0.3650812   0.0735767), wk =   0.0625000
        k(    8) = (   0.4867749   0.3650812  -0.0245256), wk =   0.1250000
        k(    9) = (   0.4867749  -0.4867749  -0.1962044), wk =   0.0312500
        k(   10) = (   0.1216937  -0.1216937   0.0000000), wk =   0.0312500
        k(   11) = (   0.6084686  -0.1216937  -0.0981022), wk =   0.1250000
        k(   12) = (   0.6084686  -0.0000000  -0.0735767), wk =   0.0625000
        k(   13) = (   0.1216937   0.1216937   0.0490511), wk =   0.0312500
        k(   14) = (   0.6084686   0.1216937  -0.0490511), wk =   0.0625000
        k(   15) = (   0.1216937   0.2433874   0.0735767), wk =   0.0625000
        k(   16) = (   0.6084686   0.2433874  -0.0245256), wk =   0.0625000
        k(   17) = (   0.6084686  -0.6084686  -0.1962044), wk =   0.0312500
        k(   18) = (   0.1216937  -0.3650812  -0.0490511), wk =   0.0625000
        k(   19) = (   0.6084686  -0.3650812  -0.1471533), wk =   0.0312500
        k(   20) = (   0.1216937  -0.2433874  -0.0245256), wk =   0.0625000
        k(   21) = (   0.6084686  -0.2433874  -0.1226278), wk =   0.0625000
        k(   22) = (   0.2433874  -0.2433874   0.0000000), wk =   0.0312500
        k(   23) = (   0.7301623  -0.2433874  -0.0981022), wk =   0.0625000
        k(   24) = (   0.7301623  -0.1216937  -0.0735767), wk =   0.0625000
        k(   25) = (   0.7301623  -0.0000000  -0.0490511), wk =   0.0625000
        k(   26) = (   0.7301623   0.1216937  -0.0245256), wk =   0.0625000
        k(   27) = (   0.7301623  -0.7301623  -0.1962044), wk =   0.0312500
        k(   28) = (   0.2433874  -0.6084686  -0.0735767), wk =   0.0625000
        k(   29) = (   0.2433874  -0.3650812  -0.0245256), wk =   0.0625000
        k(   30) = (   0.3650812  -0.3650812   0.0000000), wk =   0.0312500
        k(   31) = (   0.8518560  -0.1216937  -0.0490511), wk =   0.0312500
        k(   32) = (   0.8518560  -0.0000000  -0.0245256), wk =   0.0625000
        k(   33) = (   0.8518560  -0.8518560  -0.1962044), wk =   0.0312500
        k(   34) = (   0.3650812  -0.6084686  -0.0490511), wk =   0.0312500
        k(   35) = (  -0.0000000  -0.0000000  -0.1962044), wk =   0.0156250

     Dense  grid:    27961 G-vectors     FFT dimensions: (  72,  72,  72)

     Estimated max dynamical RAM per process >      19.88 MB

     Estimated total dynamical RAM >     159.04 MB

     Initial potential from superposition of free atoms

     starting charge      15.9811, renormalised to      16.0000
     Starting wfcs are   12 randomized atomic wfcs

     total cpu time spent up to now is       81.3 secs

     Self-consistent Calculation

     iteration #  1     ecut=    80.00 Ry     beta= 0.70
     Davidson diagonalization with overlap
     c_bands:  1 eigenvalues not converged
     c_bands:  1 eigenvalues not converged
     c_bands:  1 eigenvalues not converged
     ethr =  1.00E-06,  avg # of iterations = 15.1

     total cpu time spent up to now is       84.3 secs

     total energy              =     -65.81281682 Ry
     estimated scf accuracy    <       0.08158120 Ry

     iteration #  2     ecut=    80.00 Ry     beta= 0.70
     Davidson diagonalization with overlap
     ethr =  5.10E-04,  avg # of iterations =  2.8

     total cpu time spent up to now is       85.4 secs

     total energy              =     -65.77010992 Ry
     estimated scf accuracy    <       0.58070165 Ry

     iteration #  3     ecut=    80.00 Ry     beta= 0.70
     Davidson diagonalization with overlap
     ethr =  5.10E-04,  avg # of iterations =  2.2

     total cpu time spent up to now is       86.4 secs

     total energy              =     -65.85817893 Ry
     estimated scf accuracy    <       0.00079037 Ry

     iteration #  4     ecut=    80.00 Ry     beta= 0.70
     Davidson diagonalization with overlap
     ethr =  4.94E-06,  avg # of iterations =  4.5

     total cpu time spent up to now is       87.5 secs

     total energy              =     -65.85825526 Ry
     estimated scf accuracy    <       0.00051893 Ry

     iteration #  5     ecut=    80.00 Ry     beta= 0.70
     Davidson diagonalization with overlap
     ethr =  3.24E-06,  avg # of iterations =  1.0

     total cpu time spent up to now is       88.4 secs

     total energy              =     -65.85831874 Ry
     estimated scf accuracy    <       0.00000164 Ry

     iteration #  6     ecut=    80.00 Ry     beta= 0.70
     Davidson diagonalization with overlap
     ethr =  1.02E-08,  avg # of iterations =  2.7

     total cpu time spent up to now is       89.3 secs

     total energy              =     -65.85831927 Ry
     estimated scf accuracy    <       0.00000022 Ry

     iteration #  7     ecut=    80.00 Ry     beta= 0.70
     Davidson diagonalization with overlap
     ethr =  1.35E-09,  avg # of iterations =  1.4

     total cpu time spent up to now is       90.2 secs

     total energy              =     -65.85831928 Ry
     estimated scf accuracy    <       0.00000002 Ry

     iteration #  8     ecut=    80.00 Ry     beta= 0.70
     Davidson diagonalization with overlap
     ethr =  1.30E-10,  avg # of iterations =  1.9

     total cpu time spent up to now is       91.1 secs

     total energy              =     -65.85831928 Ry
     estimated scf accuracy    <          1.1E-09 Ry

     iteration #  9     ecut=    80.00 Ry     beta= 0.70
     Davidson diagonalization with overlap
     ethr =  7.14E-12,  avg # of iterations =  1.8

     total cpu time spent up to now is       92.0 secs

     End of self-consistent calculation

          k = 0.0000 0.0000 0.0000 (  3487 PWs)   bands (ev):

   -38.2050 -38.1252 -37.7715 -37.6041  -4.1646   3.0688   4.3528  10.4139
    10.5807  13.7904  13.7904  14.5818

          k = 0.4868-0.0000-0.0981 (  3498 PWs)   bands (ev):

   -38.0312 -38.0134 -37.7426 -37.7426  -0.5623   1.7733   4.4930   6.8649
     7.0417  11.4216  12.4249  15.7884

          k =-0.0000 0.1217 0.0245 (  3482 PWs)   bands (ev):

   -38.1828 -38.1111 -37.7713 -37.6148  -3.8779   3.1987   4.5384   9.4526
    10.4359  11.8629  14.0857  14.9885

          k = 0.4868 0.1217-0.0736 (  3522 PWs)   bands (ev):

   -38.0247 -38.0071 -37.7367 -37.7367  -0.2332   1.9978   4.7860   7.0427
     7.2640  11.4743  12.3602  14.7472

          k =-0.0000 0.2434 0.0491 (  3485 PWs)   bands (ev):

   -38.1254 -38.0748 -37.7711 -37.6467  -3.0312   3.5757   5.0422   6.4773
     9.5337  12.1735  13.4306  14.9704

          k = 0.4868 0.2434-0.0491 (  3525 PWs)   bands (ev):

   -38.0088 -37.9919 -37.7224 -37.7224   0.7446   2.6291   5.6458   7.5079
     7.8711  10.8907  11.5028  12.3410

          k =-0.0000 0.3651 0.0736 (  3498 PWs)   bands (ev):

   -38.0605 -38.0336 -37.7667 -37.6949  -1.6974   3.4229   4.1316   6.0613
     8.1279  11.9098  12.7236  16.2556

          k = 0.4868 0.3651-0.0245 (  3513 PWs)   bands (ev):

   -37.9930 -37.9767 -37.7081 -37.7081   2.3297   3.4750   6.9419   7.5350
     8.1508   8.7221  10.5733  11.1390

          k = 0.4868-0.4868-0.1962 (  3510 PWs)   bands (ev):

   -37.9864 -37.9703 -37.7022 -37.7022   3.9068   3.9977   5.4011   7.7065
     9.1519   9.1938   9.5419   9.5504

          k = 0.1217-0.1217 0.0000 (  3504 PWs)   bands (ev):

   -38.1631 -38.0967 -37.7708 -37.6240  -3.5897   3.3678   4.6627   9.7331
    10.0216  10.5754  13.8125  13.8967

          k = 0.6085-0.1217-0.0981 (  3512 PWs)   bands (ev):

   -38.0491 -38.0273 -37.7605 -37.6940  -1.3949   3.6658   4.3463   6.3831
     8.2788  11.5964  12.4111  13.5861

          k = 0.6085-0.0000-0.0736 (  3511 PWs)   bands (ev):

   -38.0563 -38.0382 -37.7661 -37.6951  -1.6977   3.4202   4.0820   6.2699
     8.0363  11.5901  12.3980  16.4025

          k = 0.1217 0.1217 0.0491 (  3507 PWs)   bands (ev):

   -38.1614 -38.0988 -37.7700 -37.6243  -3.5900   3.3212   4.7967   9.2671
     9.7222  11.2433  13.9195  14.0837

          k = 0.6085 0.1217-0.0491 (  3504 PWs)   bands (ev):

   -38.0445 -38.0323 -37.7600 -37.6942  -1.3949   3.6614   4.2926   6.6209
     8.1776  11.4011  12.0225  13.6302

          k = 0.1217 0.2434 0.0736 (  3499 PWs)   bands (ev):

   -38.1079 -38.0655 -37.7675 -37.6519  -2.7391   3.7250   5.3776   6.6553
     9.2871  11.5150  12.5422  14.3176

          k = 0.6085 0.2434-0.0245 (  3530 PWs)   bands (ev):

   -38.0209 -38.0121 -37.7447 -37.6933  -0.4994   4.2901   4.9272   7.4997
     8.3899  10.4142  11.1064  11.3669

          k = 0.6085-0.6085-0.1962 (  3526 PWs)   bands (ev):

   -38.0002 -37.9882 -37.7255 -37.6969   0.9312   4.5480   5.8929   7.4252
     8.8017   9.8799  10.2290  10.3547

          k = 0.1217-0.3651-0.0491 (  3508 PWs)   bands (ev):

   -38.0522 -38.0239 -37.7610 -37.6938  -1.3948   3.6701   4.4072   6.1730
     8.3347  11.9263  12.7764  13.5836

          k = 0.6085-0.3651-0.1472 (  3514 PWs)   bands (ev):

   -38.0040 -37.9842 -37.7258 -37.6969   0.9211   4.6226   6.2421   7.3903
     7.7988   8.5083  11.7093  12.4482

          k = 0.1217-0.2434-0.0245 (  3496 PWs)   bands (ev):

   -38.1109 -38.0619 -37.7685 -37.6515  -2.7387   3.8014   5.1477   6.6789
     9.9778  11.0014  12.4866  14.1467

          k = 0.6085-0.2434-0.1226 (  3520 PWs)   bands (ev):

   -38.0273 -38.0052 -37.7453 -37.6931  -0.5012   4.3145   5.0887   6.8647
     8.6338   9.7635  11.9615  12.6475

          k = 0.2434-0.2434 0.0000 (  3488 PWs)   bands (ev):

   -38.0717 -38.0331 -37.7600 -37.6671  -1.8747   4.3790   5.6672   6.5508
     8.9097  10.4541  11.2326  14.3240

          k = 0.7302-0.2434-0.0981 (  3510 PWs)   bands (ev):

   -38.0666 -38.0390 -37.7588 -37.6676  -1.8749   4.2184   6.1540   6.5092
     8.4392  10.8466  10.8858  13.8964

          k = 0.7302-0.1217-0.0736 (  3498 PWs)   bands (ev):

   -38.1025 -38.0718 -37.7661 -37.6524  -2.7397   3.6382   5.7502   6.5974
     8.5963  11.9985  12.6327  14.0567

          k = 0.7302-0.0000-0.0491 (  3504 PWs)   bands (ev):

   -38.1150 -38.0869 -37.7683 -37.6478  -3.0324   3.4264   5.7228   6.3198
     8.3599  12.8640  13.8659  14.9089

          k = 0.7302 0.1217-0.0245 (  3506 PWs)   bands (ev):

   -38.0968 -38.0781 -37.7651 -37.6528  -2.7401   3.5864   6.1566   6.4572
     8.1330  12.3100  12.9004  13.4527

          k = 0.7302-0.7302-0.1962 (  3520 PWs)   bands (ev):

   -38.0559 -38.0505 -37.7575 -37.6680  -1.8751   4.1024   6.4699   6.9515
     7.5865  10.6378  11.9254  12.2577

          k = 0.2434-0.6085-0.0736 (  3525 PWs)   bands (ev):

   -38.0243 -38.0085 -37.7449 -37.6932  -0.5001   4.3001   4.9881   7.1988
     8.5406  10.0299  11.4832  11.9062

          k = 0.2434-0.3651-0.0245 (  3517 PWs)   bands (ev):

   -38.0290 -38.0034 -37.7455 -37.6930  -0.5020   4.3249   5.1755   6.6470
     8.6553   9.6441  12.3811  13.4130

          k = 0.3651-0.3651 0.0000 (  3512 PWs)   bands (ev):

   -38.0045 -37.9836 -37.7258 -37.6969   0.9193   4.6362   6.3356   7.3457
     7.6763   8.3959  12.1503  12.1588

          k = 0.8519-0.1217-0.0491 (  3485 PWs)   bands (ev):

   -38.1510 -38.1115 -37.7664 -37.6257  -3.5912   3.1556   5.5958   7.5350
     9.6717  12.1373  14.7242  15.6845

          k = 0.8519-0.0000-0.0245 (  3485 PWs)   bands (ev):

   -38.1689 -38.1282 -37.7660 -37.6170  -3.8796   2.9833   5.6285   7.1261
    10.3848  13.9980  15.4197  15.8561

          k = 0.8519-0.8519-0.1962 (  3490 PWs)   bands (ev):

   -38.1479 -38.1150 -37.7656 -37.6260  -3.5915   3.1287   5.8858   7.1284
     9.6617  12.2131  15.2432  15.5718

          k = 0.3651-0.6085-0.0491 (  3539 PWs)   bands (ev):

   -38.0010 -37.9873 -37.7255 -37.6969   0.9294   4.5602   5.9401   7.4255
     8.5742   9.3461  10.6209  10.9111

          k =-0.0000-0.0000-0.1962 (  3462 PWs)   bands (ev):

   -38.1899 -38.1441 -37.7651 -37.6066  -4.1664   2.8335   5.5661   6.9656
    13.6927  13.6927  14.5552  15.9538

     the Fermi energy is     7.6467 ev

!    total energy              =     -65.85831928 Ry
     estimated scf accuracy    <          1.5E-12 Ry
     smearing contrib. (-TS)   =       0.00021635 Ry
     internal energy E=F+TS    =     -65.85853564 Ry

     The total energy is F=E-TS. E is the sum of the following terms:
     one-electron contribution =     -21.74517110 Ry
     hartree contribution      =      11.56838055 Ry
     xc contribution           =     -17.31794210 Ry
     ewald contribution        =     -38.36380299 Ry

     convergence has been achieved in   9 iterations

     Forces acting on atoms (cartesian axes, Ry/au):

     atom    1 type  1   force =     0.00000000   -0.00000000    0.00071328
     atom    2 type  1   force =     0.00000000    0.00000000   -0.00071328
     atom    3 type  1   force =     0.00000000    0.00000000    0.00054472
     atom    4 type  1   force =    -0.00000000    0.00000000   -0.00054472
     atom    5 type  2   force =     0.00000000   -0.00000000   -0.00000000
     The non-local contrib.  to forces
     atom    1 type  1   force =     0.00000000   -0.00000000   -0.05162646
     atom    2 type  1   force =     0.00000000    0.00000000    0.05162646
     atom    3 type  1   force =     0.00000000    0.00000000   -0.00981625
     atom    4 type  1   force =    -0.00000000   -0.00000000    0.00981625
     atom    5 type  2   force =    -0.00000000    0.00000000    0.00000000
     The ionic contribution  to forces
     atom    1 type  1   force =    -0.00000000   -0.00000000    0.48860591
     atom    2 type  1   force =    -0.00000000    0.00000000   -0.48860591
     atom    3 type  1   force =    -0.00000000   -0.00000000   -0.51552546
     atom    4 type  1   force =    -0.00000000   -0.00000000    0.51552546
     atom    5 type  2   force =    -0.00000000   -0.00000000    0.00000000
     The local contribution  to forces
     atom    1 type  1   force =    -0.00000000   -0.00000000   -0.43626471
     atom    2 type  1   force =     0.00000000    0.00000000    0.43626471
     atom    3 type  1   force =    -0.00000000   -0.00000000    0.52588459
     atom    4 type  1   force =     0.00000000    0.00000000   -0.52588459
     atom    5 type  2   force =     0.00000000   -0.00000000    0.00000000
     The core correction contribution to forces
     atom    1 type  1   force =     0.00000000    0.00000000    0.00000000
     atom    2 type  1   force =     0.00000000    0.00000000    0.00000000
     atom    3 type  1   force =     0.00000000    0.00000000    0.00000000
     atom    4 type  1   force =     0.00000000    0.00000000    0.00000000
     atom    5 type  2   force =    -0.00000000   -0.00000000    0.00000000
     The Hubbard contrib.    to forces
     atom    1 type  1   force =     0.00000000    0.00000000    0.00000000
     atom    2 type  1   force =     0.00000000    0.00000000    0.00000000
     atom    3 type  1   force =     0.00000000    0.00000000    0.00000000
     atom    4 type  1   force =     0.00000000    0.00000000    0.00000000
     atom    5 type  2   force =     0.00000000    0.00000000    0.00000000
     The SCF correction term to forces
     atom    1 type  1   force =    -0.00000000    0.00000000   -0.00000146
     atom    2 type  1   force =     0.00000000   -0.00000000    0.00000146
     atom    3 type  1   force =     0.00000000    0.00000000    0.00000184
     atom    4 type  1   force =    -0.00000000   -0.00000000   -0.00000184
     atom    5 type  2   force =    -0.00000000    0.00000000   -0.00000000

     Total force =     0.001269     Total SCF correction =     0.000003


     Computing stress (Cartesian axis) and pressure

          total   stress  (Ry/bohr**3)                   (kbar)     P=      500.71
   0.00340295   0.00000000  -0.00000000          500.59        0.00       -0.00
  -0.00000000   0.00340295   0.00000000           -0.00      500.59        0.00
   0.00000000   0.00000000   0.00340540            0.00        0.00      500.95


     Writing all to output data dir ./output/LiSi.save/

     init_run     :      2.07s CPU      3.32s WALL (       2 calls)
     electrons    :     70.40s CPU     79.93s WALL (       9 calls)
     update_pot   :      1.95s CPU      1.99s WALL (       7 calls)
     forces       :      1.58s CPU      1.62s WALL (       9 calls)
     stress       :      5.25s CPU      5.56s WALL (       9 calls)

     Called by init_run:
     wfcinit      :      1.17s CPU      2.07s WALL (       2 calls)
     potinit      :      0.30s CPU      0.55s WALL (       2 calls)
     hinit0       :      0.58s CPU      0.64s WALL (       2 calls)

     Called by electrons:
     c_bands      :     58.35s CPU     65.94s WALL (      73 calls)
     sum_band     :     10.18s CPU     11.47s WALL (      73 calls)
     v_of_rho     :      1.99s CPU      2.70s WALL (      81 calls)
     mix_rho      :      0.07s CPU      0.15s WALL (      73 calls)

     Called by c_bands:
     init_us_2    :      0.62s CPU      0.69s WALL (    5810 calls)
     init_us_2:cp :      0.61s CPU      0.68s WALL (    5810 calls)
     cegterg      :     57.06s CPU     63.18s WALL (    2555 calls)

     Called by *egterg:
     cdiaghg      :      1.39s CPU      1.51s WALL (    9268 calls)
     h_psi        :     55.05s CPU     61.79s WALL (    9618 calls)
     g_psi        :      0.07s CPU      0.08s WALL (    6993 calls)

     Called by h_psi:
     h_psi:calbec :      0.97s CPU      1.09s WALL (    9618 calls)
     vloc_psi     :     53.35s CPU     59.88s WALL (    9618 calls)
     add_vuspsi   :      0.66s CPU      0.74s WALL (    9618 calls)

     General routines
     calbec       :      1.21s CPU      1.34s WALL (   11193 calls)
     fft          :      1.27s CPU      2.22s WALL (    1034 calls)
     ffts         :      0.06s CPU      0.11s WALL (      73 calls)
     fftw         :     54.92s CPU     61.59s WALL (  195860 calls)

     Parallel routines

     PWSCF        :   1m21.50s CPU   1m32.98s WALL


   This run was terminated on:  20:55:25  29Dec2024            

=------------------------------------------------------------------------------=
   JOB DONE.
=------------------------------------------------------------------------------=
