
     Program PWSCF v.7.2 starts on 21Jan2025 at 23: 4:47 

     This program is part of the open-source Quantum ESPRESSO suite
     for quantum simulation of materials; please cite
         "P. Giannozzi et al., J. Phys.:Condens. Matter 21 395502 (2009);
         "P. Giannozzi et al., J. Phys.:Condens. Matter 29 465901 (2017);
         "P. Giannozzi et al., J. Chem. Phys. 152 154105 (2020);
          URL http://www.quantum-espresso.org", 
     in publications or presentations arising from this work. More details at
     http://www.quantum-espresso.org/quote

     Parallel version (MPI & OpenMP), running on       8 processor cores
     Number of MPI processes:                 8
     Threads/MPI process:                     1

     MPI processes distributed on     1 nodes
     481697 MiB available memory on the printing compute node when the environment starts

     Waiting for input...
     Reading input from standard input

     Current dimensions of program PWSCF are:
     Max number of different atomic species (ntypx) = 10
     Max number of k-points (npk) =  40000
     Max angular momentum in pseudopotentials (lmaxx) =  4

     R & G space division:  proc/nbgrp/npool/nimage =       8
     Subspace diagonalization in iterative solution of the eigenvalue problem:
     a serial algorithm will be used


     Parallelization info
     --------------------
     sticks:   dense  smooth     PW     G-vecs:    dense   smooth      PW
     Min          72      72     20                 5212     5212     828
     Max          73      73     21                 5227     5227     847
     Sum         583     583    163                41789    41789    6689

     Using Slab Decomposition



     bravais-lattice index     =            4
     lattice parameter (alat)  =       5.9355  a.u.
     unit-cell volume          =     664.2120 (a.u.)^3
     number of atoms/cell      =           10
     number of atomic types    =            2
     number of electrons       =        32.00
     number of Kohn-Sham states=           20
     kinetic-energy cutoff     =      60.0000  Ry
     charge density cutoff     =     240.0000  Ry
     scf convergence threshold =      1.0E-08
     mixing beta               =       0.8000
     number of iterations used =            8  plain     mixing
     energy convergence thresh.=      5.0E-03
     force convergence thresh. =      1.0E-02
     press convergence thresh. =      2.0E+00
     Exchange-correlation= PBE
                           (   1   4   3   4   0   0   0)
     nstep                     =           50


     celldm(1)=   5.935502  celldm(2)=   0.000000  celldm(3)=   3.667784
     celldm(4)=   0.000000  celldm(5)=   0.000000  celldm(6)=   0.000000

     crystal axes: (cart. coord. in units of alat)
               a(1) = (   1.000000   0.000000   0.000000 )  
               a(2) = (  -0.500000   0.866025   0.000000 )  
               a(3) = (   0.000000   0.000000   3.667784 )  

     reciprocal axes: (cart. coord. in units 2 pi/alat)
               b(1) = (  1.000000  0.577350 -0.000000 )  
               b(2) = (  0.000000  1.154701  0.000000 )  
               b(3) = (  0.000000 -0.000000  0.272644 )  


     PseudoPot. # 1 for Li read from file:
     ../pseudo/Li_ONCV_PBE_sr.upf
     MD5 check sum: 50ff420e78310ffa21704f3361e624a4
     Pseudo is Norm-conserving, Zval =  3.0
     Generated using ONCVPSP code by D. R. Hamann
     Using radial grid of 1944 points,  4 beta functions with: 
                l(1) =   0
                l(2) =   0
                l(3) =   1
                l(4) =   1

     PseudoPot. # 2 for Si read from file:
     ../pseudo/Si_ONCV_PBE_sr.upf
     MD5 check sum: e543d271109d17c80368dfa7c482276d
     Pseudo is Norm-conserving + core correction, Zval =  4.0
     Generated using ONCVPSP code by D. R. Hamann
     Using radial grid of 1510 points,  6 beta functions with: 
                l(1) =   0
                l(2) =   0
                l(3) =   1
                l(4) =   1
                l(5) =   2
                l(6) =   2

     atomic species   valence    mass     pseudopotential
        Li             3.00     6.94100     Li( 1.00)
        Si             4.00    28.08550     Si( 1.00)

      6 Sym. Ops. (no inversion) found



   Cartesian axes

     site n.     atom                  positions (alat units)
         1           Li  tau(   1) = (   0.0000000   0.0000000   1.2394175  )
         2           Li  tau(   2) = (   0.0000000   0.0000000   1.9906089  )
         3           Li  tau(   3) = (  -0.0000000   0.5773503   1.5192437  )
         4           Li  tau(   4) = (  -0.0000000   0.5773503   2.2328660  )
         5           Li  tau(   5) = (  -0.0000000   0.5773503   2.9711175  )
         6           Li  tau(   6) = (   0.5000000   0.2886751   0.3232418  )
         7           Li  tau(   7) = (   0.5000000   0.2886751   1.7208141  )
         8           Li  tau(   8) = (   0.5000000   0.2886751   2.5067578  )
         9           Si  tau(   9) = (   0.0000000   0.0000000   0.5323568  )
        10           Si  tau(  10) = (   0.5000000   0.2886751   3.2604910  )

     number of k points=    17  Marzari-Vanderbilt smearing, width (Ry)=  0.0200
                       cart. coord. in units 2pi/alat
        k(    1) = (   0.0000000   0.0000000   0.0000000), wk =   0.0185185
        k(    2) = (   0.0000000   0.0000000   0.0908814), wk =   0.0370370
        k(    3) = (   0.0000000   0.1924501   0.0000000), wk =   0.1111111
        k(    4) = (   0.0000000   0.1924501   0.0908814), wk =   0.1111111
        k(    5) = (   0.0000000   0.3849002   0.0000000), wk =   0.1111111
        k(    6) = (   0.0000000   0.3849002   0.0908814), wk =   0.1111111
        k(    7) = (   0.0000000  -0.5773503   0.0000000), wk =   0.0555556
        k(    8) = (   0.0000000  -0.5773503   0.0908814), wk =   0.1111111
        k(    9) = (   0.1666667   0.2886751   0.0000000), wk =   0.1111111
        k(   10) = (   0.1666667   0.2886751   0.0908814), wk =   0.2222222
        k(   11) = (   0.1666667   0.4811252   0.0000000), wk =   0.2222222
        k(   12) = (   0.1666667   0.4811252   0.0908814), wk =   0.2222222
        k(   13) = (   0.3333333   0.5773503   0.0000000), wk =   0.0370370
        k(   14) = (   0.3333333   0.5773503   0.0908814), wk =   0.0740741
        k(   15) = (   0.0000000  -0.1924501   0.0908814), wk =   0.1111111
        k(   16) = (   0.0000000  -0.3849002   0.0908814), wk =   0.1111111
        k(   17) = (  -0.1666667  -0.4811252   0.0908814), wk =   0.2222222

     Dense  grid:    41789 G-vectors     FFT dimensions: (  30,  30, 108)

     Estimated max dynamical RAM per process >      18.61 MB

     Estimated total dynamical RAM >     148.90 MB

     Initial potential from superposition of free atoms

     starting charge      31.9623, renormalised to      32.0000
     Starting wfcs are   24 randomized atomic wfcs

     total cpu time spent up to now is        1.7 secs

     Self-consistent Calculation

     iteration #  1     ecut=    60.00 Ry     beta= 0.80
     Davidson diagonalization with overlap
     ethr =  1.00E-02,  avg # of iterations =  6.7

     total cpu time spent up to now is        2.8 secs

     total energy              =    -118.82008204 Ry
     estimated scf accuracy    <      13.95624136 Ry

     iteration #  2     ecut=    60.00 Ry     beta= 0.80
     Davidson diagonalization with overlap
     ethr =  1.00E-02,  avg # of iterations = 14.4

     total cpu time spent up to now is        4.6 secs

     total energy              =     -90.74111088 Ry
     estimated scf accuracy    <     465.22102162 Ry

     iteration #  3     ecut=    60.00 Ry     beta= 0.80
     Davidson diagonalization with overlap
     ethr =  1.00E-02,  avg # of iterations =  7.6

     total cpu time spent up to now is        5.8 secs

     total energy              =    -130.58480926 Ry
     estimated scf accuracy    <      26.27438219 Ry

     iteration #  4     ecut=    60.00 Ry     beta= 0.80
     Davidson diagonalization with overlap
     ethr =  1.00E-02,  avg # of iterations =  4.2

     total cpu time spent up to now is        6.4 secs

     total energy              =    -130.22503971 Ry
     estimated scf accuracy    <      29.00255468 Ry

     iteration #  5     ecut=    60.00 Ry     beta= 0.80
     Davidson diagonalization with overlap
     ethr =  1.00E-02,  avg # of iterations =  2.4

     total cpu time spent up to now is        7.0 secs

     total energy              =    -130.70474467 Ry
     estimated scf accuracy    <       9.60426377 Ry

     iteration #  6     ecut=    60.00 Ry     beta= 0.80
     Davidson diagonalization with overlap
     ethr =  1.00E-02,  avg # of iterations =  2.4

     total cpu time spent up to now is        7.6 secs

     total energy              =    -130.89523224 Ry
     estimated scf accuracy    <       1.20608913 Ry

     iteration #  7     ecut=    60.00 Ry     beta= 0.80
     Davidson diagonalization with overlap
     ethr =  3.77E-03,  avg # of iterations =  2.7

     total cpu time spent up to now is        8.2 secs

     total energy              =    -130.95812811 Ry
     estimated scf accuracy    <       0.12118211 Ry

     iteration #  8     ecut=    60.00 Ry     beta= 0.80
     Davidson diagonalization with overlap
     ethr =  3.79E-04,  avg # of iterations =  4.1

     total cpu time spent up to now is        9.0 secs

     total energy              =    -130.97975212 Ry
     estimated scf accuracy    <       0.00688392 Ry

     iteration #  9     ecut=    60.00 Ry     beta= 0.80
     Davidson diagonalization with overlap
     ethr =  2.15E-05,  avg # of iterations =  5.4

     total cpu time spent up to now is        9.8 secs

     total energy              =    -130.98183924 Ry
     estimated scf accuracy    <       0.02921417 Ry

     iteration # 10     ecut=    60.00 Ry     beta= 0.80
     Davidson diagonalization with overlap
     ethr =  2.15E-05,  avg # of iterations =  1.0

     total cpu time spent up to now is       10.2 secs

     total energy              =    -130.98137236 Ry
     estimated scf accuracy    <       0.01680029 Ry

     iteration # 11     ecut=    60.00 Ry     beta= 0.80
     Davidson diagonalization with overlap
     ethr =  2.15E-05,  avg # of iterations =  1.0

     total cpu time spent up to now is       10.6 secs

     total energy              =    -130.98093827 Ry
     estimated scf accuracy    <       0.00563091 Ry

     iteration # 12     ecut=    60.00 Ry     beta= 0.80
     Davidson diagonalization with overlap
     ethr =  1.76E-05,  avg # of iterations =  1.8

     total cpu time spent up to now is       10.9 secs

     total energy              =    -130.98123606 Ry
     estimated scf accuracy    <       0.00001763 Ry

     iteration # 13     ecut=    60.00 Ry     beta= 0.80
     Davidson diagonalization with overlap
     ethr =  5.51E-08,  avg # of iterations =  6.4

     total cpu time spent up to now is       11.5 secs

     total energy              =    -130.98125798 Ry
     estimated scf accuracy    <       0.00007003 Ry

     iteration # 14     ecut=    60.00 Ry     beta= 0.80
     Davidson diagonalization with overlap
     ethr =  5.51E-08,  avg # of iterations =  1.3

     total cpu time spent up to now is       11.9 secs

     total energy              =    -130.98125880 Ry
     estimated scf accuracy    <       0.00000681 Ry

     iteration # 15     ecut=    60.00 Ry     beta= 0.80
     Davidson diagonalization with overlap
     ethr =  2.13E-08,  avg # of iterations =  1.6

     total cpu time spent up to now is       12.2 secs

     total energy              =    -130.98125905 Ry
     estimated scf accuracy    <       0.00000089 Ry

     iteration # 16     ecut=    60.00 Ry     beta= 0.80
     Davidson diagonalization with overlap
     ethr =  2.79E-09,  avg # of iterations =  3.5

     total cpu time spent up to now is       12.7 secs

     total energy              =    -130.98125915 Ry
     estimated scf accuracy    <       0.00000056 Ry

     iteration # 17     ecut=    60.00 Ry     beta= 0.80
     Davidson diagonalization with overlap
     ethr =  1.76E-09,  avg # of iterations =  1.4

     total cpu time spent up to now is       13.1 secs

     total energy              =    -130.98125918 Ry
     estimated scf accuracy    <       0.00000004 Ry

     iteration # 18     ecut=    60.00 Ry     beta= 0.80
     Davidson diagonalization with overlap
     ethr =  1.31E-10,  avg # of iterations =  2.9

     total cpu time spent up to now is       13.5 secs

     End of self-consistent calculation

          k = 0.0000 0.0000 0.0000 (  5243 PWs)   bands (ev):

   -40.7074 -40.3847 -39.9557 -39.8450 -39.8067 -39.5800 -39.4698 -39.1113
    -3.6344  -2.7697   1.8133   3.0643   3.4237   6.0944   6.5838  10.3971
    10.3971  11.0132  11.0132  11.4398

          k = 0.0000 0.0000 0.0909 (  5268 PWs)   bands (ev):

   -40.7077 -40.3847 -39.9560 -39.8451 -39.8071 -39.5805 -39.4701 -39.1116
    -3.6344  -2.7698   1.8157   2.8467   3.9601   5.0335   7.8874   9.8457
    10.3975  10.3975  11.0141  11.0141

          k = 0.0000 0.1925 0.0000 (  5227 PWs)   bands (ev):

   -40.6586 -40.3518 -39.9516 -39.8387 -39.8182 -39.5881 -39.4882 -39.1487
    -3.2166  -2.3558   2.1445   3.2415   3.6617   6.1762   6.7096   7.9148
     8.5897   9.1072   9.6572   9.8782

          k = 0.0000 0.1925 0.0909 (  5228 PWs)   bands (ev):

   -40.6585 -40.3517 -39.9516 -39.8388 -39.8181 -39.5883 -39.4881 -39.1487
    -3.2166  -2.3558   2.1528   3.0323   4.1663   5.2315   7.6823   7.9280
     8.5931   9.1252   9.6561   9.8021

          k = 0.0000 0.3849 0.0000 (  5183 PWs)   bands (ev):

   -40.5517 -40.2789 -39.9433 -39.8507 -39.8260 -39.6018 -39.5234 -39.2332
    -2.0189  -1.2171   2.9960   3.7171   3.9168   4.9866   5.1458   6.0742
     7.0957   7.4868   7.7756   8.5638

          k = 0.0000 0.3849 0.0909 (  5195 PWs)   bands (ev):

   -40.5520 -40.2792 -39.9434 -39.8509 -39.8262 -39.6018 -39.5235 -39.2332
    -2.0188  -1.2171   3.0268   3.4955   4.2649   4.7204   5.2416   6.3152
     6.6564   7.5774   7.8038   8.4255

          k = 0.0000-0.5774 0.0000 (  5212 PWs)   bands (ev):

   -40.4920 -40.2380 -39.9399 -39.8756 -39.8201 -39.6078 -39.5403 -39.2839
    -0.7330  -0.3820   2.2868   2.8172   4.5222   4.5567   5.1692   5.3357
     6.4748   6.6142   7.3043   8.0895

          k = 0.0000-0.5774 0.0909 (  5214 PWs)   bands (ev):

   -40.4920 -40.2381 -39.9399 -39.8757 -39.8202 -39.6080 -39.5401 -39.2840
    -0.7329  -0.3821   2.2862   2.8190   4.5145   4.5848   5.0133   5.5474
     6.1538   6.9830   7.3356   7.9326

          k = 0.1667 0.2887 0.0000 (  5221 PWs)   bands (ev):

   -40.5807 -40.2987 -39.9457 -39.8405 -39.8295 -39.5983 -39.5153 -39.2118
    -2.4012  -1.5653   2.7875   3.6238   4.0659   5.8509   6.0295   6.3383
     6.9354   7.4808   7.8674   8.2284

          k = 0.1667 0.2887 0.0909 (  5213 PWs)   bands (ev):

   -40.5806 -40.2987 -39.9456 -39.8403 -39.8293 -39.5982 -39.5152 -39.2116
    -2.4011  -1.5652   2.8166   3.3994   4.5405   5.3541   6.0399   6.2278
     7.2533   7.5474   7.8693   8.0470

          k = 0.1667 0.4811 0.0000 (  5216 PWs)   bands (ev):

   -40.4945 -40.2390 -39.9399 -39.8709 -39.8202 -39.6034 -39.5415 -39.2888
    -0.9471  -0.3238   2.8982   3.4976   4.1498   4.5771   5.2598   5.5516
     6.1642   6.3246   6.8748   7.1911

          k = 0.1667 0.4811 0.0909 (  5210 PWs)   bands (ev):

   -40.4944 -40.2389 -39.9398 -39.8708 -39.8201 -39.6033 -39.5415 -39.2887
    -0.9471  -0.3239   2.8967   3.5124   4.1186   4.6040   5.1239   5.7716
     6.0663   6.4796   6.7865   7.0806

          k = 0.3333 0.5774 0.0000 (  5205 PWs)   bands (ev):

   -40.4654 -40.2178 -39.9379 -39.8791 -39.8167 -39.5980 -39.5509 -39.3243
     0.0817   0.2444   2.6139   2.9080   4.3175   4.7216   5.2550   5.4253
     5.6161   5.9845   6.0198   6.9436

          k = 0.3333 0.5774 0.0909 (  5196 PWs)   bands (ev):

   -40.4653 -40.2176 -39.9378 -39.8789 -39.8165 -39.5978 -39.5509 -39.3241
     0.0817   0.2444   2.6140   2.9078   4.3168   4.7178   5.2540   5.4367
     5.6274   5.9857   5.9980   6.9463

          k = 0.0000-0.1925 0.0909 (  5228 PWs)   bands (ev):

   -40.6586 -40.3518 -39.9516 -39.8388 -39.8181 -39.5883 -39.4881 -39.1486
    -3.2166  -2.3558   2.1536   3.0243   4.2034   5.1707   7.8146   7.9544
     8.6450   9.1212   9.1629   9.8187

          k = 0.0000-0.3849 0.0909 (  5195 PWs)   bands (ev):

   -40.5520 -40.2791 -39.9435 -39.8509 -39.8262 -39.6018 -39.5236 -39.2333
    -2.0189  -1.2171   3.0250   3.5257   4.1057   4.9431   5.4481   5.7197
     6.8024   7.8020   7.9605   8.4329

          k =-0.1667-0.4811 0.0909 (  5210 PWs)   bands (ev):

   -40.4944 -40.2389 -39.9399 -39.8708 -39.8201 -39.6033 -39.5415 -39.2887
    -0.9471  -0.3239   2.8950   3.5152   4.2083   4.4036   5.3351   5.6964
     6.1082   6.3606   6.8154   7.1327

     the Fermi energy is     6.2667 ev

!    total energy              =    -130.98125918 Ry
     estimated scf accuracy    <          9.2E-10 Ry
     smearing contrib. (-TS)   =      -0.00179839 Ry
     internal energy E=F+TS    =    -130.97946079 Ry

     The total energy is F=E-TS. E is the sum of the following terms:
     one-electron contribution =     -71.67066076 Ry
     hartree contribution      =      35.47363900 Ry
     xc contribution           =     -34.30171024 Ry
     ewald contribution        =     -60.48072879 Ry

     convergence has been achieved in  18 iterations

     Forces acting on atoms (cartesian axes, Ry/au):

     atom    1 type  1   force =     0.00000000   -0.00000000   -0.10708633
     atom    2 type  1   force =     0.00000000    0.00000000    0.03477270
     atom    3 type  1   force =     0.00000000   -0.00000000   -0.07634825
     atom    4 type  1   force =     0.00000000    0.00000000    0.04645667
     atom    5 type  1   force =     0.00000000   -0.00000000   -0.10246544
     atom    6 type  1   force =     0.00000000    0.00000000   -0.10781388
     atom    7 type  1   force =     0.00000000   -0.00000000   -0.00112540
     atom    8 type  1   force =     0.00000000    0.00000000    0.06242508
     atom    9 type  2   force =     0.00000000    0.00000000    0.09419512
     atom   10 type  2   force =     0.00000000    0.00000000    0.15698972
     The non-local contrib.  to forces
     atom    1 type  1   force =     0.00000000   -0.00000000   -0.09095213
     atom    2 type  1   force =     0.00000000    0.00000000    0.07164764
     atom    3 type  1   force =    -0.00000000   -0.00000000   -0.14099984
     atom    4 type  1   force =     0.00000000    0.00000000    0.11981853
     atom    5 type  1   force =     0.00000000    0.00000000   -0.05846551
     atom    6 type  1   force =     0.00000000   -0.00000000    0.03694254
     atom    7 type  1   force =     0.00000000   -0.00000000   -0.07120606
     atom    8 type  1   force =     0.00000000    0.00000000    0.02367971
     atom    9 type  2   force =     0.00000000    0.00000000    0.08572379
     atom   10 type  2   force =     0.00000000    0.00000000    0.17596828
     The ionic contribution  to forces
     atom    1 type  1   force =    -0.00000001    0.00000001   -4.29981340
     atom    2 type  1   force =    -0.00000000    0.00000000    0.53573189
     atom    3 type  1   force =     0.00000006   -0.00000004   -3.60332290
     atom    4 type  1   force =     0.00000006   -0.00000003    2.09031215
     atom    5 type  1   force =     0.00000005   -0.00000003    2.51757112
     atom    6 type  1   force =    -0.00000003    0.00000002   -1.05962856
     atom    7 type  1   force =    -0.00000007    0.00000004   -1.89047552
     atom    8 type  1   force =    -0.00000005    0.00000003    2.98292382
     atom    9 type  2   force =     0.00000003   -0.00000002   -1.06318243
     atom   10 type  2   force =    -0.00000004    0.00000002    3.78988384
     The local contribution  to forces
     atom    1 type  1   force =     0.00000000   -0.00000000    4.28366791
     atom    2 type  1   force =     0.00000000   -0.00000000   -0.57260579
     atom    3 type  1   force =     0.00000056   -0.00000032    3.66796598
     atom    4 type  1   force =     0.00000057   -0.00000033   -2.16366030
     atom    5 type  1   force =     0.00000058   -0.00000033   -2.56153759
     atom    6 type  1   force =    -0.00000058    0.00000033    0.91484822
     atom    7 type  1   force =    -0.00000056    0.00000032    1.96055017
     atom    8 type  1   force =    -0.00000058    0.00000033   -2.94415203
     atom    9 type  2   force =    -0.00000000    0.00000000    1.07697323
     atom   10 type  2   force =    -0.00000001    0.00000000   -3.79713981
     The core correction contribution to forces
     atom    1 type  1   force =     0.00000000    0.00000000    0.00000000
     atom    2 type  1   force =     0.00000000    0.00000000    0.00000000
     atom    3 type  1   force =     0.00000000    0.00000000    0.00000000
     atom    4 type  1   force =     0.00000000    0.00000000    0.00000000
     atom    5 type  1   force =     0.00000000    0.00000000    0.00000000
     atom    6 type  1   force =     0.00000000    0.00000000    0.00000000
     atom    7 type  1   force =     0.00000000    0.00000000    0.00000000
     atom    8 type  1   force =     0.00000000    0.00000000    0.00000000
     atom    9 type  2   force =     0.00000000    0.00000000   -0.00535656
     atom   10 type  2   force =     0.00000000   -0.00000000   -0.01168772
     The Hubbard contrib.    to forces
     atom    1 type  1   force =     0.00000000    0.00000000    0.00000000
     atom    2 type  1   force =     0.00000000    0.00000000    0.00000000
     atom    3 type  1   force =     0.00000000    0.00000000    0.00000000
     atom    4 type  1   force =     0.00000000    0.00000000    0.00000000
     atom    5 type  1   force =     0.00000000    0.00000000    0.00000000
     atom    6 type  1   force =     0.00000000    0.00000000    0.00000000
     atom    7 type  1   force =     0.00000000    0.00000000    0.00000000
     atom    8 type  1   force =     0.00000000    0.00000000    0.00000000
     atom    9 type  2   force =     0.00000000    0.00000000    0.00000000
     atom   10 type  2   force =     0.00000000    0.00000000    0.00000000
     The SCF correction term to forces
     atom    1 type  1   force =    -0.00000000    0.00000000    0.00001297
     atom    2 type  1   force =    -0.00000000    0.00000000    0.00000064
     atom    3 type  1   force =     0.00000000   -0.00000000    0.00001019
     atom    4 type  1   force =     0.00000000   -0.00000000   -0.00001204
     atom    5 type  1   force =     0.00000000   -0.00000000   -0.00003178
     atom    6 type  1   force =    -0.00000000    0.00000000    0.00002559
     atom    7 type  1   force =    -0.00000000    0.00000000    0.00000769
     atom    8 type  1   force =    -0.00000000    0.00000000   -0.00002476
     atom    9 type  2   force =     0.00000000   -0.00000000    0.00003878
     atom   10 type  2   force =     0.00000000   -0.00000000   -0.00003320

     Total force =     0.283202     Total SCF correction =     0.000073


     Computing stress (Cartesian axis) and pressure

          total   stress  (Ry/bohr**3)                   (kbar)     P=      505.13
   0.00346755  -0.00000000   0.00000000          510.09       -0.00        0.00
  -0.00000000   0.00346755   0.00000000           -0.00      510.09        0.00
   0.00000000  -0.00000000   0.00336636            0.00       -0.00      495.21


     BFGS Geometry Optimization
     Energy error            =      0.0E+00 Ry
     Gradient error          =      1.6E-01 Ry/Bohr
     Cell gradient error     =      1.0E+01 kbar

     number of scf cycles    =   1
     number of bfgs steps    =   0

     enthalpy           new  =    -128.7236483867 Ry

     new trust radius        =       0.1569897206 bohr
ibrav =      4
 celldm(1) =      5.94568414
 celldm(3) =      3.65852089
Input lattice vectors:
     1.00171545    -0.00000000     0.00000000
    -0.50085772     0.86751102    -0.00000000
     0.00000000     0.00000000     3.66479689
New lattice vectors in INITIAL alat:
     1.00171545     0.00000000     0.00000000
    -0.50085772     0.86751102     0.00000000
     0.00000000     0.00000000     3.66479689
New lattice vectors in NEW alat (for information only):
     1.00000000     0.00000000     0.00000000
    -0.50000000     0.86602540     0.00000000
     0.00000000     0.00000000     3.65852089
Discrepancy in bohr =     0.000000    0.000000    0.000000
     new conv_thr            =       0.0000000100 Ry

     new unit-cell volume =    665.95007 a.u.^3 (    98.68362 Ang^3 )
     density =      1.87955 g/cm^3

CELL_PARAMETERS (alat=  5.93550210)
   1.001715447   0.000000000   0.000000000
  -0.500857723   0.867511024   0.000000000
   0.000000000   0.000000000   3.664796886

ATOMIC_POSITIONS (crystal)
Li           -0.0000000000       -0.0000000000        0.3330010450
Li            0.0000000000        0.0000000000        0.5443252661
Li            0.3333333300        0.6666666700        0.4107059829
Li            0.3333333300        0.6666666700        0.6109119633
Li            0.3333333300        0.6666666700        0.8053513032
Li            0.6666666700        0.3333333300        0.0831776251
Li            0.6666666700        0.3333333300        0.4691183052
Li            0.6666666700        0.3333333300        0.6863204635
Si            0.0000000000        0.0000000000        0.1494708043
Si            0.6666666700        0.3333333300        0.8961652415



     Writing config-only to output data dir ./output/LiSi.save/
     NEW-OLD atomic charge density approx. for the potential
     extrapolated charge   32.08342, renormalised to   32.00000

     total cpu time spent up to now is       16.2 secs

     Self-consistent Calculation

     iteration #  1     ecut=    60.00 Ry     beta= 0.80
     Davidson diagonalization with overlap
     ethr =  1.00E-06,  avg # of iterations = 10.3

     total cpu time spent up to now is       17.7 secs

     total energy              =    -131.00812482 Ry
     estimated scf accuracy    <       0.05173944 Ry

     iteration #  2     ecut=    60.00 Ry     beta= 0.80
     Davidson diagonalization with overlap
     ethr =  1.62E-04,  avg # of iterations =  8.2

     total cpu time spent up to now is       18.4 secs

     total energy              =    -130.59206500 Ry
     estimated scf accuracy    <      11.26159552 Ry

     iteration #  3     ecut=    60.00 Ry     beta= 0.80
     Davidson diagonalization with overlap
     ethr =  1.62E-04,  avg # of iterations =  8.7

     total cpu time spent up to now is       19.2 secs

     total energy              =    -131.04210248 Ry
     estimated scf accuracy    <       0.18259276 Ry

     iteration #  4     ecut=    60.00 Ry     beta= 0.80
     Davidson diagonalization with overlap
     ethr =  1.62E-04,  avg # of iterations =  2.6

     total cpu time spent up to now is       19.6 secs

     total energy              =    -131.05044133 Ry
     estimated scf accuracy    <       0.07826262 Ry

     iteration #  5     ecut=    60.00 Ry     beta= 0.80
     Davidson diagonalization with overlap
     ethr =  1.62E-04,  avg # of iterations =  1.6

     total cpu time spent up to now is       20.0 secs

     total energy              =    -131.05408075 Ry
     estimated scf accuracy    <       0.00764700 Ry

     iteration #  6     ecut=    60.00 Ry     beta= 0.80
     Davidson diagonalization with overlap
     ethr =  2.39E-05,  avg # of iterations =  2.2

     total cpu time spent up to now is       20.5 secs

     total energy              =    -131.05446048 Ry
     estimated scf accuracy    <       0.00138789 Ry

     iteration #  7     ecut=    60.00 Ry     beta= 0.80
     Davidson diagonalization with overlap
     ethr =  4.34E-06,  avg # of iterations =  3.8

     total cpu time spent up to now is       21.0 secs

     total energy              =    -131.05454464 Ry
     estimated scf accuracy    <       0.00020970 Ry

     iteration #  8     ecut=    60.00 Ry     beta= 0.80
     Davidson diagonalization with overlap
     ethr =  6.55E-07,  avg # of iterations =  2.8

     total cpu time spent up to now is       21.5 secs

     total energy              =    -131.05456001 Ry
     estimated scf accuracy    <       0.00000538 Ry

     iteration #  9     ecut=    60.00 Ry     beta= 0.80
     Davidson diagonalization with overlap
     ethr =  1.68E-08,  avg # of iterations =  4.0

     total cpu time spent up to now is       22.2 secs

     total energy              =    -131.05456129 Ry
     estimated scf accuracy    <       0.00000159 Ry

     iteration # 10     ecut=    60.00 Ry     beta= 0.80
     Davidson diagonalization with overlap
     ethr =  4.96E-09,  avg # of iterations =  1.8

     total cpu time spent up to now is       22.5 secs

     total energy              =    -131.05456142 Ry
     estimated scf accuracy    <       0.00000004 Ry

     iteration # 11     ecut=    60.00 Ry     beta= 0.80
     Davidson diagonalization with overlap
     ethr =  1.12E-10,  avg # of iterations =  4.5

     total cpu time spent up to now is       23.0 secs

     total energy              =    -131.05456143 Ry
     estimated scf accuracy    <       0.00000004 Ry

     iteration # 12     ecut=    60.00 Ry     beta= 0.80
     Davidson diagonalization with overlap
     ethr =  1.12E-10,  avg # of iterations =  1.4

     total cpu time spent up to now is       23.4 secs

     End of self-consistent calculation

          k = 0.0000 0.0000 0.0000 (  5243 PWs)   bands (ev):

   -40.6494 -40.3801 -39.8347 -39.8067 -39.7718 -39.5738 -39.4883 -39.1139
    -3.7114  -2.8718   1.9002   3.0315   3.4359   6.1409   6.4672  10.4891
    10.4891  11.2133  11.2133  11.2349

          k = 0.0000 0.0000 0.0910 (  5268 PWs)   bands (ev):

   -40.6496 -40.3802 -39.8349 -39.8072 -39.7720 -39.5743 -39.4885 -39.1143
    -3.7115  -2.8718   1.9081   2.8110   3.9769   5.0203   7.7696   9.8789
    10.4894  10.4895  11.2154  11.2155

          k = 0.0000 0.1921 0.0000 (  5227 PWs)   bands (ev):

   -40.6032 -40.3474 -39.8444 -39.8005 -39.7680 -39.5802 -39.5085 -39.1497
    -3.2819  -2.4391   2.2124   3.2193   3.6669   6.2140   6.6257   7.9258
     8.6368   9.1976   9.7051  10.0921

          k = 0.0000 0.1921 0.0910 (  5228 PWs)   bands (ev):

   -40.6031 -40.3474 -39.8443 -39.8006 -39.7680 -39.5804 -39.5084 -39.1497
    -3.2819  -2.4391   2.2272   3.0023   4.1780   5.2245   7.6373   7.9370
     8.6240   9.2170   9.6274   9.9874

          k = 0.0000 0.3842 0.0000 (  5183 PWs)   bands (ev):

   -40.5022 -40.2751 -39.8750 -39.7855 -39.7601 -39.5921 -39.5467 -39.2305
    -2.0452  -1.2358   2.9908   3.7016   3.9105   4.9973   5.1354   6.0726
     7.0221   7.4587   7.8679   8.7712

          k = 0.0000 0.3842 0.0910 (  5195 PWs)   bands (ev):

   -40.5025 -40.2754 -39.8752 -39.7858 -39.7602 -39.5921 -39.5468 -39.2306
    -2.0452  -1.2358   3.0248   3.4752   4.2590   4.7401   5.2199   6.3180
     6.5943   7.5629   7.8976   8.5923

          k = 0.0000-0.5764 0.0000 (  5212 PWs)   bands (ev):

   -40.4456 -40.2346 -39.8989 -39.7779 -39.7569 -39.6028 -39.5604 -39.2792
    -0.6859  -0.3131   2.1608   2.7129   4.5041   4.5445   5.1279   5.3795
     6.4180   6.6175   7.3973   8.2922

          k = 0.0000-0.5764 0.0910 (  5214 PWs)   bands (ev):

   -40.4456 -40.2346 -39.8989 -39.7781 -39.7570 -39.6031 -39.5601 -39.2793
    -0.6859  -0.3132   2.1604   2.7143   4.4986   4.5719   4.9898   5.5747
     6.1453   6.9088   7.4301   8.0949

          k = 0.1664 0.2882 0.0000 (  5221 PWs)   bands (ev):

   -40.5295 -40.2948 -39.8654 -39.7899 -39.7624 -39.5883 -39.5385 -39.2100
    -2.4421  -1.6086   2.8148   3.6200   4.0557   5.8789   6.1111   6.3753
     6.8449   7.4695   7.9297   8.2119

          k = 0.1664 0.2882 0.0910 (  5213 PWs)   bands (ev):

   -40.5295 -40.2947 -39.8653 -39.7898 -39.7623 -39.5881 -39.5384 -39.2098
    -2.4421  -1.6086   2.8507   3.3820   4.5400   5.3620   6.0897   6.2756
     7.2268   7.5584   7.8792   8.0904

          k = 0.1664 0.4803 0.0000 (  5216 PWs)   bands (ev):

   -40.4478 -40.2355 -39.8953 -39.7779 -39.7570 -39.5968 -39.5631 -39.2834
    -0.9326  -0.2782   2.8295   3.4941   4.1618   4.5708   5.2341   5.5732
     6.1187   6.3395   6.8630   7.2059

          k = 0.1664 0.4803 0.0910 (  5210 PWs)   bands (ev):

   -40.4477 -40.2354 -39.8952 -39.7778 -39.7569 -39.5967 -39.5631 -39.2834
    -0.9325  -0.2782   2.8284   3.5079   4.1257   4.6056   5.1131   5.7879
     6.0088   6.5237   6.7317   7.0676

          k = 0.3328 0.5764 0.0000 (  5205 PWs)   bands (ev):

   -40.4200 -40.2144 -39.9046 -39.7731 -39.7551 -39.5974 -39.5673 -39.3169
     0.1174   0.3437   2.6434   3.0395   4.0922   4.5667   5.2941   5.4560
     5.6409   5.8676   5.9599   6.9361

          k = 0.3328 0.5764 0.0910 (  5196 PWs)   bands (ev):

   -40.4198 -40.2143 -39.9044 -39.7729 -39.7549 -39.5971 -39.5673 -39.3168
     0.1174   0.3438   2.6435   3.0394   4.0919   4.5640   5.2887   5.4675
     5.6501   5.8762   5.9388   6.9355

          k = 0.0000-0.1921 0.0910 (  5228 PWs)   bands (ev):

   -40.6032 -40.3475 -39.8444 -39.8005 -39.7679 -39.5804 -39.5084 -39.1496
    -3.2819  -2.4390   2.2283   2.9944   4.2143   5.1647   7.7977   7.9340
     8.6147   9.2124   9.2449  10.0108

          k = 0.0000-0.3842 0.0910 (  5195 PWs)   bands (ev):

   -40.5024 -40.2754 -39.8752 -39.7858 -39.7602 -39.5922 -39.5469 -39.2306
    -2.0452  -1.2358   3.0211   3.5125   4.0916   4.9787   5.4065   5.7038
     6.8046   7.8705   7.8955   8.6018

          k =-0.1664-0.4803 0.0910 (  5210 PWs)   bands (ev):

   -40.4477 -40.2354 -39.8952 -39.7778 -39.7569 -39.5967 -39.5630 -39.2833
    -0.9325  -0.2783   2.8269   3.5130   4.1961   4.4239   5.3431   5.6445
     6.1146   6.3648   6.7934   7.0922

     the Fermi energy is     6.2749 ev

!    total energy              =    -131.05456143 Ry
     estimated scf accuracy    <          1.3E-09 Ry
     smearing contrib. (-TS)   =      -0.00150335 Ry
     internal energy E=F+TS    =    -131.05305808 Ry

     The total energy is F=E-TS. E is the sum of the following terms:
     one-electron contribution =     -69.30665320 Ry
     hartree contribution      =      34.28150824 Ry
     xc contribution           =     -34.26605803 Ry
     ewald contribution        =     -61.76185508 Ry

     convergence has been achieved in  12 iterations

     Forces acting on atoms (cartesian axes, Ry/au):

     atom    1 type  1   force =     0.00000000    0.00000000   -0.06194835
     atom    2 type  1   force =     0.00000000    0.00000000    0.02515352
     atom    3 type  1   force =     0.00000000    0.00000000   -0.06914521
     atom    4 type  1   force =     0.00000000    0.00000000    0.03012635
     atom    5 type  1   force =     0.00000000    0.00000000   -0.06868557
     atom    6 type  1   force =     0.00000000   -0.00000000   -0.07296591
     atom    7 type  1   force =     0.00000000    0.00000000   -0.00139205
     atom    8 type  1   force =     0.00000000    0.00000000    0.05956238
     atom    9 type  2   force =     0.00000000    0.00000000    0.06178423
     atom   10 type  2   force =     0.00000000   -0.00000000    0.09751061
     The non-local contrib.  to forces
     atom    1 type  1   force =     0.00000000    0.00000000   -0.07231411
     atom    2 type  1   force =     0.00000000    0.00000000    0.06318374
     atom    3 type  1   force =     0.00000000    0.00000000   -0.13871256
     atom    4 type  1   force =     0.00000000    0.00000000    0.11491068
     atom    5 type  1   force =     0.00000000   -0.00000000   -0.06567562
     atom    6 type  1   force =     0.00000000    0.00000000    0.04655136
     atom    7 type  1   force =     0.00000000    0.00000000   -0.06913483
     atom    8 type  1   force =     0.00000000   -0.00000000    0.02813685
     atom    9 type  2   force =     0.00000000    0.00000000    0.05533167
     atom   10 type  2   force =     0.00000000    0.00000000    0.11254434
     The ionic contribution  to forces
     atom    1 type  1   force =    -0.00000001    0.00000001   -3.85860680
     atom    2 type  1   force =    -0.00000000    0.00000000    0.47633820
     atom    3 type  1   force =     0.00000006   -0.00000003   -3.37849971
     atom    4 type  1   force =     0.00000006   -0.00000003    1.91133315
     atom    5 type  1   force =     0.00000004   -0.00000003    2.56857028
     atom    6 type  1   force =    -0.00000002    0.00000001   -0.90594516
     atom    7 type  1   force =    -0.00000007    0.00000004   -1.76297595
     atom    8 type  1   force =    -0.00000005    0.00000003    2.87029706
     atom    9 type  2   force =     0.00000002   -0.00000001   -1.19846233
     atom   10 type  2   force =    -0.00000003    0.00000002    3.27795128
     The local contribution  to forces
     atom    1 type  1   force =    -0.00000000   -0.00000000    3.86897869
     atom    2 type  1   force =    -0.00000000   -0.00000000   -0.51433244
     atom    3 type  1   force =     0.00000056   -0.00000033    3.44808353
     atom    4 type  1   force =     0.00000057   -0.00000033   -1.99609580
     atom    5 type  1   force =     0.00000058   -0.00000033   -2.57161596
     atom    6 type  1   force =    -0.00000058    0.00000034    0.78645151
     atom    7 type  1   force =    -0.00000056    0.00000032    1.83075039
     atom    8 type  1   force =    -0.00000058    0.00000033   -2.83887623
     atom    9 type  2   force =    -0.00000000    0.00000000    1.20842291
     atom   10 type  2   force =    -0.00000001    0.00000001   -3.28530437
     The core correction contribution to forces
     atom    1 type  1   force =     0.00000000    0.00000000    0.00000000
     atom    2 type  1   force =     0.00000000    0.00000000    0.00000000
     atom    3 type  1   force =     0.00000000    0.00000000    0.00000000
     atom    4 type  1   force =     0.00000000    0.00000000    0.00000000
     atom    5 type  1   force =     0.00000000    0.00000000    0.00000000
     atom    6 type  1   force =     0.00000000    0.00000000    0.00000000
     atom    7 type  1   force =     0.00000000    0.00000000    0.00000000
     atom    8 type  1   force =     0.00000000    0.00000000    0.00000000
     atom    9 type  2   force =    -0.00000000    0.00000000   -0.00347609
     atom   10 type  2   force =     0.00000000   -0.00000000   -0.00772752
     The Hubbard contrib.    to forces
     atom    1 type  1   force =     0.00000000    0.00000000    0.00000000
     atom    2 type  1   force =     0.00000000    0.00000000    0.00000000
     atom    3 type  1   force =     0.00000000    0.00000000    0.00000000
     atom    4 type  1   force =     0.00000000    0.00000000    0.00000000
     atom    5 type  1   force =     0.00000000    0.00000000    0.00000000
     atom    6 type  1   force =     0.00000000    0.00000000    0.00000000
     atom    7 type  1   force =     0.00000000    0.00000000    0.00000000
     atom    8 type  1   force =     0.00000000    0.00000000    0.00000000
     atom    9 type  2   force =     0.00000000    0.00000000    0.00000000
     atom   10 type  2   force =     0.00000000    0.00000000    0.00000000
     The SCF correction term to forces
     atom    1 type  1   force =     0.00000000   -0.00000000   -0.00000154
     atom    2 type  1   force =    -0.00000000    0.00000000   -0.00003137
     atom    3 type  1   force =    -0.00000000    0.00000000   -0.00001187
     atom    4 type  1   force =    -0.00000000    0.00000000   -0.00001708
     atom    5 type  1   force =    -0.00000000    0.00000000    0.00004034
     atom    6 type  1   force =     0.00000000   -0.00000000   -0.00001901
     atom    7 type  1   force =    -0.00000000    0.00000000   -0.00002706
     atom    8 type  1   force =     0.00000000   -0.00000000    0.00000931
     atom    9 type  2   force =     0.00000000   -0.00000000   -0.00002733
     atom   10 type  2   force =    -0.00000000    0.00000000    0.00005149

     Total force =     0.192551     Total SCF correction =     0.000087


     Computing stress (Cartesian axis) and pressure

          total   stress  (Ry/bohr**3)                   (kbar)     P=      479.52
   0.00306657   0.00000000   0.00000000          451.11        0.00        0.00
   0.00000000   0.00306657  -0.00000000            0.00      451.11       -0.00
   0.00000000   0.00000000   0.00364592            0.00        0.00      536.33

     Energy error            =      6.7E-02 Ry
     Gradient error          =      9.8E-02 Ry/Bohr
     Cell gradient error     =      4.9E+01 kbar

     number of scf cycles    =   2
     number of bfgs steps    =   1

     enthalpy           old  =    -128.7236483867 Ry
     enthalpy           new  =    -128.7910431281 Ry

     CASE: enthalpy          _new < enthalpy          _old

     new trust radius        =       0.2352928183 bohr
ibrav =      4
 celldm(1) =      5.86467971
 celldm(3) =      3.74753116
Input lattice vectors:
     0.98806800     0.00000000     0.00000000
    -0.49403400     0.85569199     0.00000000
     0.00000000    -0.00000000     3.70281563
New lattice vectors in INITIAL alat:
     0.98806800     0.00000000     0.00000000
    -0.49403400     0.85569199     0.00000000
     0.00000000     0.00000000     3.70281563
New lattice vectors in NEW alat (for information only):
     1.00000000     0.00000000     0.00000000
    -0.50000000     0.86602540     0.00000000
     0.00000000     0.00000000     3.74753116
Discrepancy in bohr =     0.000000    0.000000    0.000000
     new conv_thr            =       0.0000000010 Ry

     new unit-cell volume =    654.64941 a.u.^3 (    97.00903 Ang^3 )
     density =      1.91199 g/cm^3

CELL_PARAMETERS (alat=  5.93550210)
   0.988068003   0.000000000   0.000000000
  -0.494034001   0.855691991   0.000000000
   0.000000000   0.000000000   3.702815628

ATOMIC_POSITIONS (crystal)
Li           -0.0000000000       -0.0000000000        0.3259849592
Li            0.0000000000        0.0000000000        0.5470033067
Li            0.3333333300        0.6666666700        0.4037215157
Li            0.3333333300        0.6666666700        0.6142137609
Li            0.3333333300        0.6666666700        0.7978911692
Li            0.6666666700        0.3333333300        0.0752729263
Li            0.6666666700        0.3333333300        0.4689857645
Li            0.6666666700        0.3333333300        0.6922714176
Si            0.0000000000        0.0000000000        0.1562210762
Si            0.6666666700        0.3333333300        0.9069821037



     Writing config-only to output data dir ./output/LiSi.save/
     NEW-OLD atomic charge density approx. for the potential
     extrapolated charge   31.44826, renormalised to   32.00000

     total cpu time spent up to now is       26.0 secs

     Self-consistent Calculation

     iteration #  1     ecut=    60.00 Ry     beta= 0.80
     Davidson diagonalization with overlap
     c_bands:  1 eigenvalues not converged
     ethr =  1.00E-06,  avg # of iterations = 14.4

     total cpu time spent up to now is       27.6 secs

     total energy              =    -130.28863585 Ry
     estimated scf accuracy    <       0.80745704 Ry

     iteration #  2     ecut=    60.00 Ry     beta= 0.80
     Davidson diagonalization with overlap
     ethr =  2.52E-03,  avg # of iterations =  7.9

     total cpu time spent up to now is       28.4 secs

     total energy              =    -129.89822519 Ry
     estimated scf accuracy    <      51.42191689 Ry

     iteration #  3     ecut=    60.00 Ry     beta= 0.80
     Davidson diagonalization with overlap
     ethr =  2.52E-03,  avg # of iterations =  7.1

     total cpu time spent up to now is       29.1 secs

     total energy              =    -131.14626429 Ry
     estimated scf accuracy    <       5.33498081 Ry

     iteration #  4     ecut=    60.00 Ry     beta= 0.80
     Davidson diagonalization with overlap
     ethr =  2.52E-03,  avg # of iterations =  1.1

     total cpu time spent up to now is       29.5 secs

     total energy              =    -131.15191014 Ry
     estimated scf accuracy    <       2.81268448 Ry

     iteration #  5     ecut=    60.00 Ry     beta= 0.80
     Davidson diagonalization with overlap
     ethr =  2.52E-03,  avg # of iterations =  1.0

     total cpu time spent up to now is       29.9 secs

     total energy              =    -131.03611382 Ry
     estimated scf accuracy    <       2.14823985 Ry

     iteration #  6     ecut=    60.00 Ry     beta= 0.80
     Davidson diagonalization with overlap
     ethr =  2.52E-03,  avg # of iterations =  1.5

     total cpu time spent up to now is       30.3 secs

     total energy              =    -131.05895062 Ry
     estimated scf accuracy    <       0.24468026 Ry

     iteration #  7     ecut=    60.00 Ry     beta= 0.80
     Davidson diagonalization with overlap
     ethr =  7.65E-04,  avg # of iterations =  2.6

     total cpu time spent up to now is       30.8 secs

     total energy              =    -131.08113186 Ry
     estimated scf accuracy    <       0.01640446 Ry

     iteration #  8     ecut=    60.00 Ry     beta= 0.80
     Davidson diagonalization with overlap
     ethr =  5.13E-05,  avg # of iterations =  6.0

     total cpu time spent up to now is       31.3 secs

     total energy              =    -131.08372121 Ry
     estimated scf accuracy    <       0.01082045 Ry

     iteration #  9     ecut=    60.00 Ry     beta= 0.80
     Davidson diagonalization with overlap
     ethr =  3.38E-05,  avg # of iterations =  1.5

     total cpu time spent up to now is       31.8 secs

     total energy              =    -131.08434800 Ry
     estimated scf accuracy    <       0.00097250 Ry

     iteration # 10     ecut=    60.00 Ry     beta= 0.80
     Davidson diagonalization with overlap
     ethr =  3.04E-06,  avg # of iterations =  5.9

     total cpu time spent up to now is       32.3 secs

     total energy              =    -131.08321311 Ry
     estimated scf accuracy    <       0.01542680 Ry

     iteration # 11     ecut=    60.00 Ry     beta= 0.80
     Davidson diagonalization with overlap
     ethr =  3.04E-06,  avg # of iterations =  4.9

     total cpu time spent up to now is       32.8 secs

     total energy              =    -131.08423282 Ry
     estimated scf accuracy    <       0.00198527 Ry

     iteration # 12     ecut=    60.00 Ry     beta= 0.80
     Davidson diagonalization with overlap
     ethr =  3.04E-06,  avg # of iterations =  1.4

     total cpu time spent up to now is       33.2 secs

     total energy              =    -131.08432042 Ry
     estimated scf accuracy    <       0.00002105 Ry

     iteration # 13     ecut=    60.00 Ry     beta= 0.80
     Davidson diagonalization with overlap
     ethr =  6.58E-08,  avg # of iterations =  3.1

     total cpu time spent up to now is       33.6 secs

     total energy              =    -131.08432486 Ry
     estimated scf accuracy    <       0.00000549 Ry

     iteration # 14     ecut=    60.00 Ry     beta= 0.80
     Davidson diagonalization with overlap
     ethr =  1.72E-08,  avg # of iterations =  1.4

     total cpu time spent up to now is       34.0 secs

     total energy              =    -131.08432494 Ry
     estimated scf accuracy    <       0.00000227 Ry

     iteration # 15     ecut=    60.00 Ry     beta= 0.80
     Davidson diagonalization with overlap
     ethr =  7.09E-09,  avg # of iterations =  1.3

     total cpu time spent up to now is       34.4 secs

     total energy              =    -131.08432497 Ry
     estimated scf accuracy    <       0.00000040 Ry

     iteration # 16     ecut=    60.00 Ry     beta= 0.80
     Davidson diagonalization with overlap
     ethr =  1.25E-09,  avg # of iterations =  3.2

     total cpu time spent up to now is       34.8 secs

     total energy              =    -131.08432501 Ry
     estimated scf accuracy    <          6.5E-09 Ry

     iteration # 17     ecut=    60.00 Ry     beta= 0.80
     Davidson diagonalization with overlap
     ethr =  2.04E-11,  avg # of iterations =  4.4

     total cpu time spent up to now is       35.2 secs

     total energy              =    -131.08432502 Ry
     estimated scf accuracy    <          7.8E-09 Ry

     iteration # 18     ecut=    60.00 Ry     beta= 0.80
     Davidson diagonalization with overlap
     ethr =  2.04E-11,  avg # of iterations =  1.0

     total cpu time spent up to now is       35.6 secs

     End of self-consistent calculation

          k = 0.0000 0.0000 0.0000 (  5243 PWs)   bands (ev):

   -40.4191 -40.2269 -39.7266 -39.6957 -39.5163 -39.3989 -39.3422 -38.9309
    -3.7864  -3.0327   2.1327   3.1825   3.5609   5.9912   6.5160  10.9893
    11.1131  11.1131  11.9674  11.9674

          k = 0.0000 0.0000 0.0900 (  5268 PWs)   bands (ev):

   -40.4191 -40.2272 -39.7269 -39.6961 -39.5165 -39.3990 -39.3426 -38.9312
    -3.7864  -3.0327   2.1417   2.9717   4.0725   5.0385   7.5560   9.9460
    11.1133  11.1133  11.9716  11.9716

          k = 0.0000 0.1948 0.0000 (  5227 PWs)   bands (ev):

   -40.3710 -40.1898 -39.7193 -39.7053 -39.5121 -39.4048 -39.3657 -38.9691
    -3.3247  -2.5564   2.4366   3.3833   3.7897   6.1560   6.6422   8.2963
     9.0281   9.7481  10.1075  10.8084

          k = 0.0000 0.1948 0.0900 (  5228 PWs)   bands (ev):

   -40.3711 -40.1900 -39.7190 -39.7054 -39.5121 -39.4048 -39.3658 -38.9691
    -3.3246  -2.5564   2.4509   3.1739   4.2741   5.2675   7.5242   8.3067
     9.0521   9.7652   9.7790  10.6819

          k = 0.0000 0.3895 0.0000 (  5183 PWs)   bands (ev):

   -40.2637 -40.1061 -39.7481 -39.6915 -39.5035 -39.4410 -39.3860 -39.0572
    -1.9836  -1.2024   3.1508   3.8894   4.0764   5.1670   5.3062   6.1932
     7.0311   7.7074   8.3719   9.4388

          k = 0.0000 0.3895 0.0900 (  5195 PWs)   bands (ev):

   -40.2639 -40.1063 -39.7484 -39.6917 -39.5037 -39.4412 -39.3858 -39.0574
    -1.9836  -1.2024   3.1736   3.6764   4.4322   4.9178   5.3631   6.3565
     6.7269   7.8567   8.3972   9.2327

          k = 0.0000-0.5843 0.0000 (  5212 PWs)   bands (ev):

   -40.2006 -40.0572 -39.7780 -39.6801 -39.4999 -39.4761 -39.3777 -39.1127
    -0.4332  -0.0363   2.0650   2.6299   4.6123   4.7629   5.3169   5.6794
     6.4814   6.8093   7.8870   8.8300

          k = 0.0000-0.5843 0.0900 (  5214 PWs)   bands (ev):

   -40.2007 -40.0571 -39.7780 -39.6802 -39.4999 -39.4761 -39.3776 -39.1129
    -0.4332  -0.0364   2.0651   2.6298   4.6155   4.7730   5.2252   5.8367
     6.3084   6.9551   7.9147   8.7194

          k = 0.1687 0.2922 0.0000 (  5221 PWs)   bands (ev):

   -40.2930 -40.1290 -39.7368 -39.6972 -39.5059 -39.4263 -39.3867 -39.0342
    -2.4179  -1.6318   3.0169   3.8077   4.1846   6.1440   6.4464   6.5340
     6.8511   7.6529   8.2892   8.5853

          k = 0.1687 0.2922 0.0900 (  5213 PWs)   bands (ev):

   -40.2931 -40.1289 -39.7367 -39.6972 -39.5059 -39.4263 -39.3865 -39.0341
    -2.4179  -1.6318   3.0472   3.5756   4.6601   5.4964   6.3805   6.5971
     7.4025   7.6521   8.1630   8.5174

          k = 0.1687 0.4869 0.0000 (  5216 PWs)   bands (ev):

   -40.2030 -40.0582 -39.7750 -39.6800 -39.4999 -39.4728 -39.3767 -39.1169
    -0.7534  -0.0659   2.8618   3.6231   4.3908   4.7441   5.3558   5.8381
     6.3004   6.5830   7.0123   7.4113

          k = 0.1687 0.4869 0.0900 (  5210 PWs)   bands (ev):

   -40.2029 -40.0581 -39.7749 -39.6799 -39.4998 -39.4727 -39.3766 -39.1168
    -0.7533  -0.0659   2.8618   3.6279   4.3568   4.8033   5.2521   5.9996
     6.2358   6.6878   6.9358   7.2552

          k = 0.3374 0.5843 0.0000 (  5205 PWs)   bands (ev):

   -40.1705 -40.0324 -39.7900 -39.6727 -39.4979 -39.4898 -39.3630 -39.1568
     0.4335   0.7441   2.7514   3.3075   3.9153   4.4695   5.6203   5.7492
     5.8871   5.9560   6.1697   7.0260

          k = 0.3374 0.5843 0.0900 (  5196 PWs)   bands (ev):

   -40.1704 -40.0324 -39.7899 -39.6725 -39.4978 -39.4897 -39.3630 -39.1567
     0.4335   0.7441   2.7515   3.3076   3.9153   4.4687   5.5875   5.7527
     5.9321   5.9602   6.1623   7.0316

          k = 0.0000-0.1948 0.0900 (  5228 PWs)   bands (ev):

   -40.3710 -40.1900 -39.7192 -39.7053 -39.5121 -39.4049 -39.3658 -38.9689
    -3.3246  -2.5564   2.4524   3.1652   4.3126   5.2065   7.6578   8.3065
     8.9312   9.6111   9.7611  10.7101

          k = 0.0000-0.3895 0.0900 (  5195 PWs)   bands (ev):

   -40.2639 -40.1063 -39.7483 -39.6918 -39.5037 -39.4410 -39.3860 -39.0574
    -1.9836  -1.2024   3.1739   3.6983   4.2902   5.1771   5.4902   5.7871
     7.0378   7.9843   8.3954   9.2435

          k =-0.1687-0.4869 0.0900 (  5210 PWs)   bands (ev):

   -40.2029 -40.0581 -39.7749 -39.6799 -39.4998 -39.4727 -39.3766 -39.1168
    -0.7533  -0.0659   2.8612   3.6349   4.3903   4.6555   5.5283   5.7658
     6.4000   6.5183   6.9976   7.2718

     the Fermi energy is     6.4786 ev

!    total energy              =    -131.08432501 Ry
     estimated scf accuracy    <          6.8E-10 Ry
     smearing contrib. (-TS)   =      -0.00188092 Ry
     internal energy E=F+TS    =    -131.08244409 Ry

     The total energy is F=E-TS. E is the sum of the following terms:
     one-electron contribution =     -66.03478770 Ry
     hartree contribution      =      32.83942225 Ry
     xc contribution           =     -34.28050168 Ry
     ewald contribution        =     -63.60657696 Ry

     convergence has been achieved in  18 iterations

     Forces acting on atoms (cartesian axes, Ry/au):

     atom    1 type  1   force =     0.00000000   -0.00000000    0.01419776
     atom    2 type  1   force =     0.00000000    0.00000000    0.01040567
     atom    3 type  1   force =     0.00000000    0.00000000   -0.05791662
     atom    4 type  1   force =     0.00000000    0.00000000    0.00173763
     atom    5 type  1   force =     0.00000000   -0.00000000   -0.01871769
     atom    6 type  1   force =     0.00000000    0.00000000   -0.00303610
     atom    7 type  1   force =     0.00000000    0.00000000    0.00369885
     atom    8 type  1   force =     0.00000000    0.00000000    0.05605943
     atom    9 type  2   force =     0.00000000    0.00000000    0.01520716
     atom   10 type  2   force =     0.00000000    0.00000000   -0.02163609
     The non-local contrib.  to forces
     atom    1 type  1   force =     0.00000000    0.00000000   -0.03829868
     atom    2 type  1   force =     0.00000000    0.00000000    0.04987935
     atom    3 type  1   force =     0.00000000    0.00000000   -0.13683663
     atom    4 type  1   force =     0.00000000    0.00000000    0.10234616
     atom    5 type  1   force =     0.00000000    0.00000000   -0.07799436
     atom    6 type  1   force =     0.00000000    0.00000000    0.04573095
     atom    7 type  1   force =     0.00000000    0.00000000   -0.05979144
     atom    8 type  1   force =     0.00000000   -0.00000000    0.04459571
     atom    9 type  2   force =     0.00000000   -0.00000000    0.02675103
     atom   10 type  2   force =     0.00000000    0.00000000   -0.00743387
     The ionic contribution  to forces
     atom    1 type  1   force =    -0.00000001    0.00000001   -3.35512363
     atom    2 type  1   force =    -0.00000000    0.00000000    0.37792154
     atom    3 type  1   force =     0.00000005   -0.00000003   -3.10051600
     atom    4 type  1   force =     0.00000005   -0.00000003    1.67362441
     atom    5 type  1   force =     0.00000004   -0.00000002    2.79603835
     atom    6 type  1   force =    -0.00000002    0.00000001   -0.64895148
     atom    7 type  1   force =    -0.00000006    0.00000003   -1.58389197
     atom    8 type  1   force =    -0.00000005    0.00000003    2.77943756
     atom    9 type  2   force =     0.00000002   -0.00000001   -1.45994622
     atom   10 type  2   force =    -0.00000002    0.00000001    2.52140745
     The local contribution  to forces
     atom    1 type  1   force =     0.00000000   -0.00000000    3.40758884
     atom    2 type  1   force =     0.00000000   -0.00000000   -0.41742309
     atom    3 type  1   force =     0.00000056   -0.00000032    3.17939965
     atom    4 type  1   force =     0.00000056   -0.00000032   -1.77424496
     atom    5 type  1   force =     0.00000057   -0.00000033   -2.73674406
     atom    6 type  1   force =    -0.00000058    0.00000033    0.60017606
     atom    7 type  1   force =    -0.00000056    0.00000032    1.64734545
     atom    8 type  1   force =    -0.00000057    0.00000033   -2.76796918
     atom    9 type  2   force =    -0.00000000    0.00000000    1.44998986
     atom   10 type  2   force =    -0.00000001    0.00000001   -2.53525909
     The core correction contribution to forces
     atom    1 type  1   force =     0.00000000    0.00000000    0.00000000
     atom    2 type  1   force =     0.00000000    0.00000000    0.00000000
     atom    3 type  1   force =     0.00000000    0.00000000    0.00000000
     atom    4 type  1   force =     0.00000000    0.00000000    0.00000000
     atom    5 type  1   force =     0.00000000    0.00000000    0.00000000
     atom    6 type  1   force =     0.00000000    0.00000000    0.00000000
     atom    7 type  1   force =     0.00000000    0.00000000    0.00000000
     atom    8 type  1   force =     0.00000000    0.00000000    0.00000000
     atom    9 type  2   force =     0.00000000    0.00000000   -0.00160659
     atom   10 type  2   force =     0.00000000   -0.00000000   -0.00032649
     The Hubbard contrib.    to forces
     atom    1 type  1   force =     0.00000000    0.00000000    0.00000000
     atom    2 type  1   force =     0.00000000    0.00000000    0.00000000
     atom    3 type  1   force =     0.00000000    0.00000000    0.00000000
     atom    4 type  1   force =     0.00000000    0.00000000    0.00000000
     atom    5 type  1   force =     0.00000000    0.00000000    0.00000000
     atom    6 type  1   force =     0.00000000    0.00000000    0.00000000
     atom    7 type  1   force =     0.00000000    0.00000000    0.00000000
     atom    8 type  1   force =     0.00000000    0.00000000    0.00000000
     atom    9 type  2   force =     0.00000000    0.00000000    0.00000000
     atom   10 type  2   force =     0.00000000    0.00000000    0.00000000
     The SCF correction term to forces
     atom    1 type  1   force =    -0.00000000    0.00000000    0.00002121
     atom    2 type  1   force =     0.00000000   -0.00000000    0.00001785
     atom    3 type  1   force =    -0.00000000    0.00000000    0.00002634
     atom    4 type  1   force =    -0.00000000    0.00000000    0.00000199
     atom    5 type  1   force =     0.00000000   -0.00000000   -0.00002764
     atom    6 type  1   force =    -0.00000000    0.00000000   -0.00000165
     atom    7 type  1   force =     0.00000000   -0.00000000    0.00002679
     atom    8 type  1   force =    -0.00000000    0.00000000   -0.00001467
     atom    9 type  2   force =    -0.00000000    0.00000000    0.00000906
     atom   10 type  2   force =     0.00000000   -0.00000000   -0.00003411

     Total force =     0.088783     Total SCF correction =     0.000066


     Computing stress (Cartesian axis) and pressure

          total   stress  (Ry/bohr**3)                   (kbar)     P=      480.76
   0.00266134   0.00000000   0.00000000          391.50        0.00        0.00
   0.00000000   0.00266134   0.00000000            0.00      391.50        0.00
   0.00000000  -0.00000000   0.00448166            0.00       -0.00      659.28

     Energy error            =      6.8E-02 Ry
     Gradient error          =      5.8E-02 Ry/Bohr
     Cell gradient error     =      1.6E+02 kbar

     number of scf cycles    =   3
     number of bfgs steps    =   2

     enthalpy           old  =    -128.7910431281 Ry
     enthalpy           new  =    -128.8592168980 Ry

     CASE: enthalpy          _new < enthalpy          _old

     new trust radius        =       0.2479748461 bohr
ibrav =      4
 celldm(1) =      5.65698761
 celldm(3) =      4.06663647
Input lattice vectors:
     0.95307651    -0.00000000     0.00000000
    -0.47653825     0.82538847    -0.00000000
     0.00000000     0.00000000     3.87581568
New lattice vectors in INITIAL alat:
     0.95307651     0.00000000     0.00000000
    -0.47653825     0.82538847     0.00000000
     0.00000000     0.00000000     3.87581568
New lattice vectors in NEW alat (for information only):
     1.00000000     0.00000000     0.00000000
    -0.50000000     0.86602540     0.00000000
     0.00000000     0.00000000     4.06663647
Discrepancy in bohr =     0.000000    0.000000    0.000000
     new conv_thr            =       0.0000000006 Ry

     new unit-cell volume =    637.56089 a.u.^3 (    94.47678 Ang^3 )
     density =      1.96324 g/cm^3

CELL_PARAMETERS (alat=  5.93550210)
   0.953076507   0.000000000   0.000000000
  -0.476538254   0.825388467   0.000000000
   0.000000000   0.000000000   3.875815679

ATOMIC_POSITIONS (crystal)
Li           -0.0000000000       -0.0000000000        0.3187217406
Li            0.0000000000        0.0000000000        0.5506898528
Li            0.3333333300        0.6666666700        0.3924386848
Li            0.3333333300        0.6666666700        0.6180874661
Li            0.3333333300        0.6666666700        0.7881420110
Li            0.6666666700        0.3333333300        0.0662345623
Li            0.6666666700        0.3333333300        0.4691453904
Li            0.6666666700        0.3333333300        0.7022708331
Si            0.0000000000        0.0000000000        0.1649787676
Si            0.6666666700        0.3333333300        0.9178386913



     Writing config-only to output data dir ./output/LiSi.save/
     NEW-OLD atomic charge density approx. for the potential
     extrapolated charge   31.14332, renormalised to   32.00000

     total cpu time spent up to now is       37.7 secs

     Self-consistent Calculation

     iteration #  1     ecut=    60.00 Ry     beta= 0.80
     Davidson diagonalization with overlap
     c_bands:  1 eigenvalues not converged
     ethr =  1.00E-06,  avg # of iterations = 15.6

     total cpu time spent up to now is       39.3 secs

     total energy              =    -129.73580116 Ry
     estimated scf accuracy    <       1.36333017 Ry

     iteration #  2     ecut=    60.00 Ry     beta= 0.80
     Davidson diagonalization with overlap
     ethr =  4.26E-03,  avg # of iterations =  7.4

     total cpu time spent up to now is       40.0 secs

     total energy              =    -129.91204620 Ry
     estimated scf accuracy    <      67.57389348 Ry

     iteration #  3     ecut=    60.00 Ry     beta= 0.80
     Davidson diagonalization with overlap
     ethr =  4.26E-03,  avg # of iterations =  6.5

     total cpu time spent up to now is       40.7 secs

     total energy              =    -131.27625569 Ry
     estimated scf accuracy    <      11.73085235 Ry

     iteration #  4     ecut=    60.00 Ry     beta= 0.80
     Davidson diagonalization with overlap
     ethr =  4.26E-03,  avg # of iterations =  1.6

     total cpu time spent up to now is       41.1 secs

     total energy              =    -131.28207549 Ry
     estimated scf accuracy    <       6.52705579 Ry

     iteration #  5     ecut=    60.00 Ry     beta= 0.80
     Davidson diagonalization with overlap
     ethr =  4.26E-03,  avg # of iterations =  1.6

     total cpu time spent up to now is       41.4 secs

     total energy              =    -131.00242183 Ry
     estimated scf accuracy    <       5.78665295 Ry

     iteration #  6     ecut=    60.00 Ry     beta= 0.80
     Davidson diagonalization with overlap
     ethr =  4.26E-03,  avg # of iterations =  2.1

     total cpu time spent up to now is       41.9 secs

     total energy              =    -131.07631815 Ry
     estimated scf accuracy    <       1.07156591 Ry

     iteration #  7     ecut=    60.00 Ry     beta= 0.80
     Davidson diagonalization with overlap
     ethr =  3.35E-03,  avg # of iterations =  1.1

     total cpu time spent up to now is       42.3 secs

     total energy              =    -131.05963791 Ry
     estimated scf accuracy    <       0.33573989 Ry

     iteration #  8     ecut=    60.00 Ry     beta= 0.80
     Davidson diagonalization with overlap
     ethr =  1.05E-03,  avg # of iterations =  2.4

     total cpu time spent up to now is       42.7 secs

     total energy              =    -131.08210078 Ry
     estimated scf accuracy    <       0.02612659 Ry

     iteration #  9     ecut=    60.00 Ry     beta= 0.80
     Davidson diagonalization with overlap
     ethr =  8.16E-05,  avg # of iterations =  6.4

     total cpu time spent up to now is       43.2 secs

     total energy              =    -131.08841896 Ry
     estimated scf accuracy    <       0.18580929 Ry

     iteration # 10     ecut=    60.00 Ry     beta= 0.80
     Davidson diagonalization with overlap
     ethr =  8.16E-05,  avg # of iterations =  2.2

     total cpu time spent up to now is       43.6 secs

     total energy              =    -131.08830435 Ry
     estimated scf accuracy    <       0.01215720 Ry

     iteration # 11     ecut=    60.00 Ry     beta= 0.80
     Davidson diagonalization with overlap
     ethr =  3.80E-05,  avg # of iterations =  4.5

     total cpu time spent up to now is       44.0 secs

     total energy              =    -131.08075754 Ry
     estimated scf accuracy    <       0.34083165 Ry

     iteration # 12     ecut=    60.00 Ry     beta= 0.80
     Davidson diagonalization with overlap
     ethr =  3.80E-05,  avg # of iterations =  2.6

     total cpu time spent up to now is       44.4 secs

     total energy              =    -131.09194743 Ry
     estimated scf accuracy    <       0.00094385 Ry

     iteration # 13     ecut=    60.00 Ry     beta= 0.80
     Davidson diagonalization with overlap
     ethr =  2.95E-06,  avg # of iterations =  5.3

     total cpu time spent up to now is       45.0 secs

     total energy              =    -131.09211786 Ry
     estimated scf accuracy    <       0.01187105 Ry

     iteration # 14     ecut=    60.00 Ry     beta= 0.80
     Davidson diagonalization with overlap
     ethr =  2.95E-06,  avg # of iterations =  1.1

     total cpu time spent up to now is       45.3 secs

     total energy              =    -131.09219668 Ry
     estimated scf accuracy    <       0.00459920 Ry

     iteration # 15     ecut=    60.00 Ry     beta= 0.80
     Davidson diagonalization with overlap
     ethr =  2.95E-06,  avg # of iterations =  1.0

     total cpu time spent up to now is       45.7 secs

     total energy              =    -131.09191480 Ry
     estimated scf accuracy    <       0.00487020 Ry

     iteration # 16     ecut=    60.00 Ry     beta= 0.80
     Davidson diagonalization with overlap
     ethr =  2.95E-06,  avg # of iterations =  1.6

     total cpu time spent up to now is       46.0 secs

     total energy              =    -131.09190454 Ry
     estimated scf accuracy    <       0.00071859 Ry

     iteration # 17     ecut=    60.00 Ry     beta= 0.80
     Davidson diagonalization with overlap
     ethr =  2.25E-06,  avg # of iterations =  1.8

     total cpu time spent up to now is       46.4 secs

     total energy              =    -131.09195394 Ry
     estimated scf accuracy    <       0.00004854 Ry

     iteration # 18     ecut=    60.00 Ry     beta= 0.80
     Davidson diagonalization with overlap
     ethr =  1.52E-07,  avg # of iterations =  2.7

     total cpu time spent up to now is       46.7 secs

     total energy              =    -131.09195963 Ry
     estimated scf accuracy    <       0.00000312 Ry

     iteration # 19     ecut=    60.00 Ry     beta= 0.80
     Davidson diagonalization with overlap
     ethr =  9.75E-09,  avg # of iterations =  2.2

     total cpu time spent up to now is       47.1 secs

     total energy              =    -131.09195982 Ry
     estimated scf accuracy    <       0.00000151 Ry

     iteration # 20     ecut=    60.00 Ry     beta= 0.80
     Davidson diagonalization with overlap
     ethr =  4.73E-09,  avg # of iterations =  1.5

     total cpu time spent up to now is       47.4 secs

     total energy              =    -131.09195987 Ry
     estimated scf accuracy    <       0.00000018 Ry

     iteration # 21     ecut=    60.00 Ry     beta= 0.80
     Davidson diagonalization with overlap
     ethr =  5.51E-10,  avg # of iterations =  2.2

     total cpu time spent up to now is       47.8 secs

     total energy              =    -131.09195989 Ry
     estimated scf accuracy    <          8.3E-09 Ry

     iteration # 22     ecut=    60.00 Ry     beta= 0.80
     Davidson diagonalization with overlap
     ethr =  2.59E-11,  avg # of iterations =  3.9

     total cpu time spent up to now is       48.3 secs

     total energy              =    -131.09195989 Ry
     estimated scf accuracy    <          3.1E-09 Ry

     iteration # 23     ecut=    60.00 Ry     beta= 0.80
     Davidson diagonalization with overlap
     ethr =  9.61E-12,  avg # of iterations =  1.2

     total cpu time spent up to now is       48.6 secs

     End of self-consistent calculation

          k = 0.0000 0.0000 0.0000 (  5243 PWs)   bands (ev):

   -40.1717 -40.0911 -39.6919 -39.4634 -39.2929 -39.2880 -39.1174 -38.7202
    -3.9348  -3.4020   2.3544   3.3414   3.6111   5.2951   6.5866  10.4679
    12.1684  12.5356  12.5356  13.3971

          k = 0.0000 0.0000 0.0860 (  5268 PWs)   bands (ev):

   -40.1724 -40.0911 -39.6924 -39.4635 -39.2931 -39.2881 -39.1176 -38.7201
    -3.9348  -3.4020   2.3590   3.1630   4.0322   4.7667   7.1151   9.7042
    12.5355  12.5355  13.4016  13.4016

          k = 0.0000 0.2019 0.0000 (  5227 PWs)   bands (ev):

   -40.1160 -40.0428 -39.6702 -39.4812 -39.3172 -39.2825 -39.1336 -38.7631
    -3.4127  -2.8501   2.6862   3.5652   3.8571   5.5878   6.6814   9.1608
     9.7404  10.5123  10.9792  11.8008

          k = 0.0000 0.2019 0.0860 (  5228 PWs)   bands (ev):

   -40.1170 -40.0426 -39.6703 -39.4811 -39.3169 -39.2826 -39.1340 -38.7629
    -3.4127  -2.8501   2.6941   3.3880   4.2568   5.0613   7.1774   9.1852
     9.6200  10.0459  10.9900  11.9792

          k = 0.0000 0.4039 0.0000 (  5183 PWs)   bands (ev):

   -39.9891 -39.9229 -39.6233 -39.5374 -39.3888 -39.2711 -39.1482 -38.8653
    -1.8790  -1.2405   3.4473   4.1596   4.3475   5.4263   5.6410   6.1910
     6.9487   8.2678   9.4804  10.0350

          k = 0.0000 0.4039 0.0860 (  5195 PWs)   bands (ev):

   -39.9893 -39.9231 -39.6234 -39.5377 -39.3894 -39.2714 -39.1481 -38.8660
    -1.8791  -1.2405   3.4556   3.9955   4.6697   5.1881   5.6619   6.1806
     6.9843   8.3588   9.4962   9.9665

          k = 0.0000-0.6058 0.0000 (  5212 PWs)   bands (ev):

   -39.9077 -39.8404 -39.5963 -39.5878 -39.4510 -39.2661 -39.1370 -38.9354
     0.0271   0.4885   1.9305   2.5171   4.7114   5.1155   5.6641   6.1992
     6.5818   7.0475   8.9029   8.9571

          k = 0.0000-0.6058 0.0860 (  5214 PWs)   bands (ev):

   -39.9077 -39.8402 -39.5959 -39.5875 -39.4508 -39.2659 -39.1368 -38.9351
     0.0271   0.4885   1.9309   2.5162   4.7293   5.0872   5.6526   6.2539
     6.5698   7.0310   8.8669   8.9745

          k = 0.1749 0.3029 0.0000 (  5221 PWs)   bands (ev):

   -40.0242 -39.9572 -39.6355 -39.5194 -39.3662 -39.2740 -39.1477 -38.8375
    -2.3810  -1.7644   3.3081   4.0456   4.3091   6.1006   6.7404   6.9852
     7.3716   8.1657   8.9133   9.1839

          k = 0.1749 0.3029 0.0860 (  5213 PWs)   bands (ev):

   -40.0245 -39.9574 -39.6356 -39.5194 -39.3666 -39.2742 -39.1475 -38.8378
    -2.3810  -1.7644   3.3268   3.8407   4.7283   5.5063   6.9600   7.2866
     7.4080   8.1789   8.6473   9.1928

          k = 0.1749 0.5048 0.0000 (  5216 PWs)   bands (ev):

   -39.9101 -39.8423 -39.5951 -39.5849 -39.4486 -39.2660 -39.1337 -38.9393
    -0.4280   0.2308   3.0515   3.8714   4.7085   5.0441   5.5957   6.2399
     6.6684   6.9328   7.3400   7.7469

          k = 0.1749 0.5048 0.0860 (  5210 PWs)   bands (ev):

   -39.9100 -39.8423 -39.5950 -39.5849 -39.4486 -39.2659 -39.1337 -38.9391
    -0.4280   0.2308   3.0515   3.8687   4.6944   5.1282   5.4672   6.3859
     6.6755   6.8252   7.4266   7.6045

          k = 0.3497 0.6058 0.0000 (  5205 PWs)   bands (ev):

   -39.8610 -39.7917 -39.6190 -39.5734 -39.4948 -39.2633 -39.1049 -38.9980
     1.0916   1.5365   2.9473   3.6720   3.7447   4.4034   5.9057   6.1425
     6.2963   6.4733   6.7240   7.1211

          k = 0.3497 0.6058 0.0860 (  5196 PWs)   bands (ev):

   -39.8611 -39.7919 -39.6191 -39.5734 -39.4948 -39.2633 -39.1049 -38.9980
     1.0916   1.5365   2.9473   3.6719   3.7447   4.4034   5.8878   6.1421
     6.3284   6.4740   6.7252   7.1203

          k = 0.0000-0.2019 0.0860 (  5228 PWs)   bands (ev):

   -40.1168 -40.0427 -39.6707 -39.4811 -39.3169 -39.2826 -39.1339 -38.7627
    -3.4127  -2.8501   2.6956   3.3772   4.2986   5.0077   7.2469   9.1608
     9.4036  10.2059  10.9875  12.0189

          k = 0.0000-0.4039 0.0860 (  5195 PWs)   bands (ev):

   -39.9894 -39.9232 -39.6231 -39.5377 -39.3895 -39.2714 -39.1483 -38.8658
    -1.8791  -1.2405   3.4653   3.9626   4.6669   5.3531   5.7074   5.8292
     7.2598   8.2666   9.4952   9.8384

          k =-0.1749-0.5048 0.0860 (  5210 PWs)   bands (ev):

   -39.9100 -39.8423 -39.5951 -39.5849 -39.4485 -39.2659 -39.1336 -38.9393
    -0.4280   0.2308   3.0519   3.8730   4.6825   5.0355   5.7667   6.0507
     6.6959   6.9844   7.3678   7.6247

     the Fermi energy is     6.8228 ev

!    total energy              =    -131.09195989 Ry
     estimated scf accuracy    <          1.7E-10 Ry
     smearing contrib. (-TS)   =      -0.00244098 Ry
     internal energy E=F+TS    =    -131.08951891 Ry

     The total energy is F=E-TS. E is the sum of the following terms:
     one-electron contribution =     -63.29896705 Ry
     hartree contribution      =      31.71679853 Ry
     xc contribution           =     -34.30995579 Ry
     ewald contribution        =     -65.19739460 Ry

     convergence has been achieved in  23 iterations

     Forces acting on atoms (cartesian axes, Ry/au):

     atom    1 type  1   force =     0.00000000    0.00000000    0.09541036
     atom    2 type  1   force =     0.00000000    0.00000000   -0.00694224
     atom    3 type  1   force =     0.00000000    0.00000000   -0.03008989
     atom    4 type  1   force =     0.00000000    0.00000000   -0.02014770
     atom    5 type  1   force =     0.00000000    0.00000000    0.04806819
     atom    6 type  1   force =     0.00000000   -0.00000000    0.09317785
     atom    7 type  1   force =     0.00000000    0.00000000    0.00765563
     atom    8 type  1   force =     0.00000000    0.00000000    0.03783465
     atom    9 type  2   force =     0.00000000   -0.00000000   -0.04354741
     atom   10 type  2   force =     0.00000000    0.00000000   -0.18141943
     The non-local contrib.  to forces
     atom    1 type  1   force =     0.00000000    0.00000000    0.01792533
     atom    2 type  1   force =     0.00000000   -0.00000000    0.03340387
     atom    3 type  1   force =     0.00000000    0.00000000   -0.11967573
     atom    4 type  1   force =     0.00000000    0.00000000    0.07503546
     atom    5 type  1   force =     0.00000000   -0.00000000   -0.10075791
     atom    6 type  1   force =     0.00000000    0.00000000    0.00946471
     atom    7 type  1   force =     0.00000000   -0.00000000   -0.03468503
     atom    8 type  1   force =     0.00000000    0.00000000    0.06521996
     atom    9 type  2   force =     0.00000000    0.00000000   -0.01312454
     atom   10 type  2   force =     0.00000000    0.00000000   -0.13748046
     The ionic contribution  to forces
     atom    1 type  1   force =    -0.00000001    0.00000001   -2.99726534
     atom    2 type  1   force =    -0.00000000    0.00000000    0.19826549
     atom    3 type  1   force =     0.00000005   -0.00000003   -2.75949768
     atom    4 type  1   force =     0.00000005   -0.00000003    1.42651457
     atom    5 type  1   force =     0.00000003   -0.00000002    3.33113630
     atom    6 type  1   force =    -0.00000001    0.00000001   -0.38321010
     atom    7 type  1   force =    -0.00000005    0.00000003   -1.38868243
     atom    8 type  1   force =    -0.00000005    0.00000003    2.72969296
     atom    9 type  2   force =     0.00000001   -0.00000001   -1.93114357
     atom   10 type  2   force =    -0.00000001    0.00000001    1.77418980
     The local contribution  to forces
     atom    1 type  1   force =     0.00000000   -0.00000000    3.07475301
     atom    2 type  1   force =    -0.00000000   -0.00000000   -0.23859530
     atom    3 type  1   force =     0.00000054   -0.00000031    2.84908943
     atom    4 type  1   force =     0.00000054   -0.00000031   -1.52167417
     atom    5 type  1   force =     0.00000055   -0.00000032   -3.18228444
     atom    6 type  1   force =    -0.00000056    0.00000032    0.46693207
     atom    7 type  1   force =    -0.00000054    0.00000031    1.43103344
     atom    8 type  1   force =    -0.00000055    0.00000032   -2.75705163
     atom    9 type  2   force =     0.00000000    0.00000000    1.89983218
     atom   10 type  2   force =    -0.00000002    0.00000001   -1.82579677
     The core correction contribution to forces
     atom    1 type  1   force =     0.00000000    0.00000000    0.00000000
     atom    2 type  1   force =     0.00000000    0.00000000    0.00000000
     atom    3 type  1   force =     0.00000000    0.00000000    0.00000000
     atom    4 type  1   force =     0.00000000    0.00000000    0.00000000
     atom    5 type  1   force =     0.00000000    0.00000000    0.00000000
     atom    6 type  1   force =     0.00000000    0.00000000    0.00000000
     atom    7 type  1   force =     0.00000000    0.00000000    0.00000000
     atom    8 type  1   force =     0.00000000    0.00000000    0.00000000
     atom    9 type  2   force =     0.00000000    0.00000000    0.00088587
     atom   10 type  2   force =     0.00000000   -0.00000000    0.00769565
     The Hubbard contrib.    to forces
     atom    1 type  1   force =     0.00000000    0.00000000    0.00000000
     atom    2 type  1   force =     0.00000000    0.00000000    0.00000000
     atom    3 type  1   force =     0.00000000    0.00000000    0.00000000
     atom    4 type  1   force =     0.00000000    0.00000000    0.00000000
     atom    5 type  1   force =     0.00000000    0.00000000    0.00000000
     atom    6 type  1   force =     0.00000000    0.00000000    0.00000000
     atom    7 type  1   force =     0.00000000    0.00000000    0.00000000
     atom    8 type  1   force =     0.00000000    0.00000000    0.00000000
     atom    9 type  2   force =     0.00000000    0.00000000    0.00000000
     atom   10 type  2   force =     0.00000000    0.00000000    0.00000000
     The SCF correction term to forces
     atom    1 type  1   force =    -0.00000000    0.00000000    0.00001187
     atom    2 type  1   force =     0.00000000   -0.00000000   -0.00000178
     atom    3 type  1   force =    -0.00000000    0.00000000    0.00000861
     atom    4 type  1   force =    -0.00000000    0.00000000   -0.00000903
     atom    5 type  1   force =    -0.00000000    0.00000000   -0.00001124
     atom    6 type  1   force =     0.00000000   -0.00000000    0.00000569
     atom    7 type  1   force =     0.00000000   -0.00000000    0.00000416
     atom    8 type  1   force =     0.00000000   -0.00000000   -0.00001213
     atom    9 type  2   force =    -0.00000000    0.00000000    0.00001717
     atom   10 type  2   force =     0.00000000   -0.00000000   -0.00001313

     Total force =     0.240322     Total SCF correction =     0.000033


     Computing stress (Cartesian axis) and pressure

          total   stress  (Ry/bohr**3)                   (kbar)     P=      478.11
[...]
     c_bands:  1 eigenvalues not converged
     ethr =  1.00E-02,  avg # of iterations = 15.8

     total cpu time spent up to now is      195.7 secs

     total energy              =     -87.42948024 Ry
     estimated scf accuracy    <     830.36340999 Ry

     iteration #  3     ecut=    60.00 Ry     beta= 0.80
     Davidson diagonalization with overlap
     ethr =  1.00E-02,  avg # of iterations =  8.1

     total cpu time spent up to now is      196.6 secs

     total energy              =    -130.31388146 Ry
     estimated scf accuracy    <      48.19080165 Ry

     iteration #  4     ecut=    60.00 Ry     beta= 0.80
     Davidson diagonalization with overlap
     ethr =  1.00E-02,  avg # of iterations =  4.5

     total cpu time spent up to now is      197.1 secs

     total energy              =    -130.13592323 Ry
     estimated scf accuracy    <      60.79783203 Ry

     iteration #  5     ecut=    60.00 Ry     beta= 0.80
     Davidson diagonalization with overlap
     ethr =  1.00E-02,  avg # of iterations =  3.2

     total cpu time spent up to now is      197.5 secs

     total energy              =    -131.08649862 Ry
     estimated scf accuracy    <      16.77653750 Ry

     iteration #  6     ecut=    60.00 Ry     beta= 0.80
     Davidson diagonalization with overlap
     ethr =  1.00E-02,  avg # of iterations =  1.8

     total cpu time spent up to now is      197.8 secs

     total energy              =    -131.11908857 Ry
     estimated scf accuracy    <       2.95994942 Ry

     iteration #  7     ecut=    60.00 Ry     beta= 0.80
     Davidson diagonalization with overlap
     ethr =  9.25E-03,  avg # of iterations =  1.7

     total cpu time spent up to now is      198.1 secs

     total energy              =    -131.21013274 Ry
     estimated scf accuracy    <       0.33284195 Ry

     iteration #  8     ecut=    60.00 Ry     beta= 0.80
     Davidson diagonalization with overlap
     ethr =  1.04E-03,  avg # of iterations =  3.1

     total cpu time spent up to now is      198.5 secs

     total energy              =    -131.22368839 Ry
     estimated scf accuracy    <       0.27403699 Ry

     iteration #  9     ecut=    60.00 Ry     beta= 0.80
     Davidson diagonalization with overlap
     ethr =  8.56E-04,  avg # of iterations =  1.0

     total cpu time spent up to now is      198.8 secs

     total energy              =    -131.21083404 Ry
     estimated scf accuracy    <       0.23739255 Ry

     iteration # 10     ecut=    60.00 Ry     beta= 0.80
     Davidson diagonalization with overlap
     ethr =  7.42E-04,  avg # of iterations =  1.8

     total cpu time spent up to now is      199.1 secs

     total energy              =    -131.21255012 Ry
     estimated scf accuracy    <       0.05171664 Ry

     iteration # 11     ecut=    60.00 Ry     beta= 0.80
     Davidson diagonalization with overlap
     ethr =  1.62E-04,  avg # of iterations =  2.6

     total cpu time spent up to now is      199.5 secs

     total energy              =    -131.21269609 Ry
     estimated scf accuracy    <       0.01698499 Ry

     iteration # 12     ecut=    60.00 Ry     beta= 0.80
     Davidson diagonalization with overlap
     ethr =  5.31E-05,  avg # of iterations =  3.2

     total cpu time spent up to now is      199.8 secs

     total energy              =    -131.21176897 Ry
     estimated scf accuracy    <       0.00957535 Ry

     iteration # 13     ecut=    60.00 Ry     beta= 0.80
     Davidson diagonalization with overlap
     ethr =  2.99E-05,  avg # of iterations =  2.1

     total cpu time spent up to now is      200.1 secs

     total energy              =    -131.21226602 Ry
     estimated scf accuracy    <       0.00003644 Ry

     iteration # 14     ecut=    60.00 Ry     beta= 0.80
     Davidson diagonalization with overlap
     ethr =  1.14E-07,  avg # of iterations =  7.2

     total cpu time spent up to now is      200.6 secs

     total energy              =    -131.21224782 Ry
     estimated scf accuracy    <       0.00169423 Ry

     iteration # 15     ecut=    60.00 Ry     beta= 0.80
     Davidson diagonalization with overlap
     ethr =  1.14E-07,  avg # of iterations =  2.8

     total cpu time spent up to now is      201.0 secs

     total energy              =    -131.21228834 Ry
     estimated scf accuracy    <       0.00008323 Ry

     iteration # 16     ecut=    60.00 Ry     beta= 0.80
     Davidson diagonalization with overlap
     ethr =  1.14E-07,  avg # of iterations =  2.0

     total cpu time spent up to now is      201.3 secs

     total energy              =    -131.21229543 Ry
     estimated scf accuracy    <       0.00003830 Ry

     iteration # 17     ecut=    60.00 Ry     beta= 0.80
     Davidson diagonalization with overlap
     ethr =  1.14E-07,  avg # of iterations =  1.5

     total cpu time spent up to now is      201.6 secs

     total energy              =    -131.21229738 Ry
     estimated scf accuracy    <       0.00000311 Ry

     iteration # 18     ecut=    60.00 Ry     beta= 0.80
     Davidson diagonalization with overlap
     ethr =  9.72E-09,  avg # of iterations =  1.7

     total cpu time spent up to now is      202.0 secs

     total energy              =    -131.21229750 Ry
     estimated scf accuracy    <       0.00000171 Ry

     iteration # 19     ecut=    60.00 Ry     beta= 0.80
     Davidson diagonalization with overlap
     ethr =  5.34E-09,  avg # of iterations =  1.0

     total cpu time spent up to now is      202.2 secs

     total energy              =    -131.21229757 Ry
     estimated scf accuracy    <       0.00000002 Ry

     iteration # 20     ecut=    60.00 Ry     beta= 0.80
     Davidson diagonalization with overlap
     ethr =  7.44E-11,  avg # of iterations =  3.6

     total cpu time spent up to now is      202.6 secs

     total energy              =    -131.21229758 Ry
     estimated scf accuracy    <          5.5E-09 Ry

     iteration # 21     ecut=    60.00 Ry     beta= 0.80
     Davidson diagonalization with overlap
     ethr =  1.72E-11,  avg # of iterations =  1.6

     total cpu time spent up to now is      202.9 secs

     total energy              =    -131.21229758 Ry
     estimated scf accuracy    <          4.9E-10 Ry

     iteration # 22     ecut=    60.00 Ry     beta= 0.80
     Davidson diagonalization with overlap
     ethr =  1.52E-12,  avg # of iterations =  2.8

     total cpu time spent up to now is      203.3 secs

     total energy              =    -131.21229758 Ry
     estimated scf accuracy    <          3.9E-10 Ry

     iteration # 23     ecut=    60.00 Ry     beta= 0.80
     Davidson diagonalization with overlap
     ethr =  1.22E-12,  avg # of iterations =  1.4

     total cpu time spent up to now is      203.6 secs

     End of self-consistent calculation

          k = 0.0000 0.0000 0.0000 (  4333 PWs)   bands (ev):

   -38.9009 -38.7685 -38.5322 -38.1283 -37.9125 -37.7309 -37.5340 -37.5010
    -4.7527  -4.5216   2.5986   3.4182   4.4536   5.1492   6.3136   8.5140
    10.1055  13.4115  13.7061  17.4840

          k = 0.0000 0.0000 0.0719 (  4298 PWs)   bands (ev):

   -38.9002 -38.7672 -38.5312 -38.1278 -37.9130 -37.7304 -37.5338 -37.5004
    -4.7527  -4.5215   2.5988   3.4182   4.4752   5.0893   6.4206   8.2699
    10.6251  12.1985  15.0850  16.7248

          k = 0.0000 0.2360 0.0000 (  4335 PWs)   bands (ev):

   -38.8008 -38.6862 -38.4729 -38.1075 -37.9278 -37.7694 -37.5930 -37.4773
    -3.9795  -3.7351   3.1374   3.9966   4.6770   5.4107   6.5258   8.7304
    10.2320  13.0349  13.3572  14.6820

          k = 0.0000 0.2360 0.0719 (  4339 PWs)   bands (ev):

   -38.8008 -38.6862 -38.4731 -38.1076 -37.9277 -37.7698 -37.5929 -37.4774
    -3.9795  -3.7351   3.1371   3.9945   4.7080   5.3316   6.6493   8.4724
    10.7347  12.1796  13.7153  14.7586

          k = 0.0000 0.4720 0.0000 (  4368 PWs)   bands (ev):

   -38.5568 -38.4871 -38.3361 -38.0778 -37.9783 -37.8746 -37.7512 -37.4307
    -1.6915  -1.3985   4.5609   5.2682   5.5619   6.3324   7.1288   7.5384
     7.7561   9.3981  10.7568  12.6340

          k = 0.0000 0.4720 0.0719 (  4363 PWs)   bands (ev):

   -38.5568 -38.4868 -38.3363 -38.0776 -37.9784 -37.8746 -37.7509 -37.4307
    -1.6914  -1.3985   4.5557   5.3420   5.4832   6.3186   7.1218   7.5809
     7.8238   9.1685  11.1018  12.2783

          k = 0.0000-0.7080 0.0000 (  4400 PWs)   bands (ev):

   -38.3778 -38.3362 -38.2413 -38.0978 -38.0326 -37.9531 -37.8759 -37.4076
     1.7665   2.1193   2.3286   2.6436   5.8468   6.5293   6.9850   7.8358
     7.9809   8.6411   9.6947  11.0593

          k = 0.0000-0.7080 0.0719 (  4390 PWs)   bands (ev):

   -38.3775 -38.3361 -38.2413 -38.0977 -38.0325 -37.9529 -37.8756 -37.4074
     1.7665   2.1192   2.3286   2.6436   5.8623   6.4541   7.1086   7.6786
     8.0808   8.6331   9.7034  11.0234

          k = 0.2044 0.3540 0.0000 (  4370 PWs)   bands (ev):

   -38.6273 -38.5443 -38.3744 -38.0822 -37.9618 -37.8431 -37.7042 -37.4426
    -2.4478  -2.1727   4.1755   5.0365   5.2121   6.0568   6.9765   9.0718
    10.0747  10.8825  11.1233  11.4291

          k = 0.2044 0.3540 0.0719 (  4376 PWs)   bands (ev):

   -38.6271 -38.5444 -38.3747 -38.0824 -37.9615 -37.8434 -37.7044 -37.4427
    -2.4478  -2.1727   4.1747   4.9858   5.3409   5.8812   7.1774   8.7733
    10.3523  10.8772  11.0626  11.4755

          k = 0.2044 0.5900 0.0000 (  4404 PWs)   bands (ev):

   -38.3842 -38.3421 -38.2391 -38.0915 -38.0241 -37.9511 -37.8823 -37.4076
     0.5536   0.9005   4.7438   5.3087   6.1968   6.5288   7.0390   7.3774
     8.1049   9.1140   9.7510   9.8399

          k = 0.2044 0.5900 0.0719 (  4402 PWs)   bands (ev):

   -38.3842 -38.3419 -38.2390 -38.0914 -38.0242 -37.9510 -37.8823 -37.4076
     0.5536   0.9005   4.7430   5.3092   6.2223   6.5423   6.8665   7.6274
     7.9747   9.2472   9.5381   9.8248

          k = 0.4088 0.7080 0.0000 (  4446 PWs)   bands (ev):

   -38.2293 -38.2053 -38.1992 -38.1129 -38.0851 -38.0277 -37.9827 -37.3963
     3.9779   4.1628   4.3353   4.6191   4.6762   4.9266   7.8122   8.1646
     8.2783   8.3788   8.7379   9.0332

          k = 0.4088 0.7080 0.0719 (  4431 PWs)   bands (ev):

   -38.2290 -38.2051 -38.1990 -38.1126 -38.0849 -38.0275 -37.9825 -37.3961
     3.9780   4.1628   4.3352   4.6193   4.6762   4.9262   7.8427   8.1558
     8.2260   8.3776   8.7744   9.0044

          k = 0.0000-0.2360 0.0719 (  4339 PWs)   bands (ev):

   -38.8008 -38.6862 -38.4731 -38.1077 -37.9281 -37.7694 -37.5928 -37.4774
    -3.9795  -3.7351   3.1371   3.9931   4.7164   5.3175   6.6650   8.4508
    10.7719  12.1619  13.6993  14.6124

          k = 0.0000-0.4720 0.0719 (  4363 PWs)   bands (ev):

   -38.5566 -38.4868 -38.3362 -38.0780 -37.9785 -37.8748 -37.7505 -37.4307
    -1.6914  -1.3985   4.5590   5.2285   5.7461   6.0586   7.3366   7.5716
     7.7549   9.0888  11.2860  12.0713

          k =-0.2044-0.5900 0.0719 (  4402 PWs)   bands (ev):

   -38.3842 -38.3419 -38.2390 -38.0913 -38.0242 -37.9512 -37.8823 -37.4076
     0.5536   0.9005   4.7438   5.3061   6.1956   6.6092   6.9223   7.3381
     8.2782   9.0725   9.5833   9.8281

     the Fermi energy is     8.1093 ev

!    total energy              =    -131.21229758 Ry
     estimated scf accuracy    <          5.8E-12 Ry
     smearing contrib. (-TS)   =       0.00029105 Ry
     internal energy E=F+TS    =    -131.21258863 Ry

     The total energy is F=E-TS. E is the sum of the following terms:
     one-electron contribution =     -55.67728911 Ry
     hartree contribution      =      29.52535269 Ry
     xc contribution           =     -34.71806246 Ry
     ewald contribution        =     -70.34258974 Ry

     convergence has been achieved in  23 iterations

     Forces acting on atoms (cartesian axes, Ry/au):

     atom    1 type  1   force =     0.00000000   -0.00000000    0.00049375
     atom    2 type  1   force =     0.00000000    0.00000000    0.00020800
     atom    3 type  1   force =     0.00000000   -0.00000000    0.00053708
     atom    4 type  1   force =     0.00000000   -0.00000000    0.00517335
     atom    5 type  1   force =     0.00000000    0.00000000   -0.00159772
     atom    6 type  1   force =     0.00000000   -0.00000000   -0.00168096
     atom    7 type  1   force =     0.00000000    0.00000000    0.00316772
     atom    8 type  1   force =     0.00000000   -0.00000000   -0.00281972
     atom    9 type  2   force =     0.00000000    0.00000000   -0.00181453
     atom   10 type  2   force =     0.00000000    0.00000000   -0.00166697
     The non-local contrib.  to forces
     atom    1 type  1   force =     0.00000000    0.00000000    0.03642725
     atom    2 type  1   force =     0.00000000    0.00000000    0.03955433
     atom    3 type  1   force =     0.00000000    0.00000000   -0.02306497
     atom    4 type  1   force =     0.00000000    0.00000000   -0.03094053
     atom    5 type  1   force =     0.00000000    0.00000000   -0.10791977
     atom    6 type  1   force =     0.00000000   -0.00000000   -0.02744666
     atom    7 type  1   force =     0.00000000   -0.00000000   -0.01972962
     atom    8 type  1   force =     0.00000000    0.00000000    0.08086295
     atom    9 type  2   force =     0.00000000   -0.00000000    0.02536107
     atom   10 type  2   force =     0.00000000    0.00000000    0.01316236
     The ionic contribution  to forces
     atom    1 type  1   force =    -0.00000001    0.00000000   -3.54833967
     atom    2 type  1   force =    -0.00000000    0.00000000   -0.43303719
     atom    3 type  1   force =     0.00000003   -0.00000001   -3.01386575
     atom    4 type  1   force =     0.00000002   -0.00000001    1.02161506
     atom    5 type  1   force =     0.00000003   -0.00000001    3.14788946
     atom    6 type  1   force =    -0.00000000    0.00000000   -0.02379311
     atom    7 type  1   force =    -0.00000003    0.00000001   -1.59874101
     atom    8 type  1   force =    -0.00000003    0.00000002    1.90979787
     atom    9 type  2   force =     0.00000000   -0.00000000   -1.42185734
     atom   10 type  2   force =    -0.00000001    0.00000000    3.96033168
     The local contribution  to forces
     atom    1 type  1   force =    -0.00000000   -0.00000000    3.51240888
     atom    2 type  1   force =    -0.00000000   -0.00000000    0.39369900
     atom    3 type  1   force =     0.00000046   -0.00000027    3.03747196
     atom    4 type  1   force =     0.00000046   -0.00000027   -0.98549444
     atom    5 type  1   force =     0.00000046   -0.00000027   -3.04156131
     atom    6 type  1   force =    -0.00000047    0.00000027    0.04956535
     atom    7 type  1   force =    -0.00000046    0.00000027    1.62164573
     atom    8 type  1   force =    -0.00000046    0.00000027   -1.99347489
     atom    9 type  2   force =    -0.00000000    0.00000000    1.39668115
     atom   10 type  2   force =     0.00000000   -0.00000000   -3.97331621
     The core correction contribution to forces
     atom    1 type  1   force =     0.00000000    0.00000000    0.00000000
     atom    2 type  1   force =     0.00000000    0.00000000    0.00000000
     atom    3 type  1   force =     0.00000000    0.00000000    0.00000000
     atom    4 type  1   force =     0.00000000    0.00000000    0.00000000
     atom    5 type  1   force =     0.00000000    0.00000000    0.00000000
     atom    6 type  1   force =     0.00000000    0.00000000    0.00000000
     atom    7 type  1   force =     0.00000000    0.00000000    0.00000000
     atom    8 type  1   force =     0.00000000    0.00000000    0.00000000
     atom    9 type  2   force =    -0.00000000    0.00000000   -0.00199085
     atom   10 type  2   force =     0.00000000   -0.00000000   -0.00184014
     The Hubbard contrib.    to forces
     atom    1 type  1   force =     0.00000000    0.00000000    0.00000000
     atom    2 type  1   force =     0.00000000    0.00000000    0.00000000
     atom    3 type  1   force =     0.00000000    0.00000000    0.00000000
     atom    4 type  1   force =     0.00000000    0.00000000    0.00000000
     atom    5 type  1   force =     0.00000000    0.00000000    0.00000000
     atom    6 type  1   force =     0.00000000    0.00000000    0.00000000
     atom    7 type  1   force =     0.00000000    0.00000000    0.00000000
     atom    8 type  1   force =     0.00000000    0.00000000    0.00000000
     atom    9 type  2   force =     0.00000000    0.00000000    0.00000000
     atom   10 type  2   force =     0.00000000    0.00000000    0.00000000
     The SCF correction term to forces
     atom    1 type  1   force =     0.00000000   -0.00000000    0.00000334
     atom    2 type  1   force =     0.00000000   -0.00000000   -0.00000208
     atom    3 type  1   force =    -0.00000000    0.00000000    0.00000189
     atom    4 type  1   force =    -0.00000000    0.00000000   -0.00000068
     atom    5 type  1   force =    -0.00000000    0.00000000   -0.00000006
     atom    6 type  1   force =     0.00000000   -0.00000000   -0.00000050
     atom    7 type  1   force =     0.00000000   -0.00000000   -0.00000132
     atom    8 type  1   force =     0.00000000   -0.00000000    0.00000040
     atom    9 type  2   force =    -0.00000000    0.00000000   -0.00000251
     atom   10 type  2   force =     0.00000000   -0.00000000    0.00000138

     Total force =     0.007535     Total SCF correction =     0.000005


     Computing stress (Cartesian axis) and pressure

          total   stress  (Ry/bohr**3)                   (kbar)     P=      594.19
   0.00335645   0.00000000   0.00000000          493.75        0.00        0.00
   0.00000000   0.00335645   0.00000000            0.00      493.75        0.00
   0.00000000  -0.00000000   0.00540486            0.00       -0.00      795.08


     Writing all to output data dir ./output/LiSi.save/

     init_run     :      1.26s CPU      2.04s WALL (       2 calls)
     electrons    :    152.92s CPU    164.57s WALL (      19 calls)
     update_pot   :      7.83s CPU      8.23s WALL (      17 calls)
     forces       :      5.39s CPU      5.83s WALL (      19 calls)
     stress       :     21.95s CPU     23.29s WALL (      19 calls)

     Called by init_run:
     wfcinit      :      0.29s CPU      0.31s WALL (       2 calls)
     potinit      :      0.39s CPU      0.88s WALL (       2 calls)
     hinit0       :      0.55s CPU      0.74s WALL (       2 calls)

     Called by electrons:
     c_bands      :    131.80s CPU    139.15s WALL (     344 calls)
     sum_band     :     16.64s CPU     17.89s WALL (     344 calls)
     v_of_rho     :      4.37s CPU      7.58s WALL (     363 calls)
     mix_rho      :      0.44s CPU      0.64s WALL (     344 calls)

     Called by c_bands:
     init_us_2    :      2.95s CPU      3.34s WALL (   12376 calls)
     init_us_2:cp :      2.92s CPU      3.32s WALL (   12376 calls)
     cegterg      :    123.29s CPU    128.00s WALL (    5849 calls)

     Called by *egterg:
     cdiaghg      :     11.40s CPU     11.92s WALL (   25309 calls)
     h_psi        :     95.32s CPU     98.99s WALL (   25632 calls)
     g_psi        :      0.47s CPU      0.49s WALL (   19749 calls)

     Called by h_psi:
     h_psi:calbec :     10.77s CPU     11.17s WALL (   25632 calls)
     vloc_psi     :     75.00s CPU     77.98s WALL (   25632 calls)
     add_vuspsi   :      9.14s CPU      9.41s WALL (   25632 calls)

     General routines
     calbec       :     11.87s CPU     12.31s WALL (   27247 calls)
     fft          :      3.65s CPU      7.86s WALL (    4103 calls)
     ffts         :      0.19s CPU      0.37s WALL (     344 calls)
     fftw         :     78.04s CPU     81.11s WALL (  744646 calls)

     Parallel routines

     PWSCF        :   3m 9.85s CPU   3m25.10s WALL


   This run was terminated on:  23: 8:12  21Jan2025            

=------------------------------------------------------------------------------=
   JOB DONE.
=------------------------------------------------------------------------------=
