
     Program PWSCF v.7.3.1 starts on 19Feb2025 at 13:25:22 

     This program is part of the open-source Quantum ESPRESSO suite
     for quantum simulation of materials; please cite
         "P. Giannozzi et al., J. Phys.:Condens. Matter 21 395502 (2009);
         "P. Giannozzi et al., J. Phys.:Condens. Matter 29 465901 (2017);
         "P. Giannozzi et al., J. Chem. Phys. 152 154105 (2020);
          URL http://www.quantum-espresso.org", 
     in publications or presentations arising from this work. More details at
     http://www.quantum-espresso.org/quote

     Parallel version (MPI & OpenMP), running on      64 processor cores
     Number of MPI processes:                64
     Threads/MPI process:                     1

     MPI processes distributed on     1 nodes
     492550 MiB available memory on the printing compute node when the environment starts

     Waiting for input...
     Reading input from standard input

     Current dimensions of program PWSCF are:
     Max number of different atomic species (ntypx) = 10
     Max number of k-points (npk) =  40000
     Max angular momentum in pseudopotentials (lmaxx) =  4

     R & G space division:  proc/nbgrp/npool/nimage =      64
     Subspace diagonalization in iterative solution of the eigenvalue problem:
     a serial algorithm will be used


     Parallelization info
     --------------------
     sticks:   dense  smooth     PW     G-vecs:    dense   smooth      PW
     Min          55      55     18                  753      753     149
     Max          56      56     19                  755      755     151
     Sum        3577    3577   1211                48285    48285    9605

     Using Slab Decomposition



     bravais-lattice index     =            5
     lattice parameter (alat)  =      36.6842  a.u.
     unit-cell volume          =     610.5020 (a.u.)^3
     number of atoms/cell      =           10
     number of atomic types    =            2
     number of electrons       =        32.00
     number of Kohn-Sham states=           20
     kinetic-energy cutoff     =      70.0000  Ry
     charge density cutoff     =     280.0000  Ry
     scf convergence threshold =      1.0E-08
     mixing beta               =       0.8000
     number of iterations used =            8  plain     mixing
     energy convergence thresh.=      5.0E-04
     force convergence thresh. =      1.0E-03
     press convergence thresh. =      1.0E+00
     Exchange-correlation= PBE
                           (   1   4   3   4   0   0   0)
     nstep                     =           50


     celldm(1)=  36.684162  celldm(2)=   0.000000  celldm(3)=   0.000000
     celldm(4)=   0.992843  celldm(5)=   0.000000  celldm(6)=   0.000000

     crystal axes: (cart. coord. in units of alat)
               a(1) = (   0.059820  -0.034537   0.997611 )  
               a(2) = (   0.000000   0.069075   0.997611 )  
               a(3) = (  -0.059820  -0.034537   0.997611 )  

     reciprocal axes: (cart. coord. in units 2 pi/alat)
               b(1) = (  8.358347 -4.825694  0.334131 )  
               b(2) = (  0.000000  9.651388  0.334131 )  
               b(3) = ( -8.358347 -4.825694  0.334131 )  


     PseudoPot. # 1 for Li read from file:
     ../pseudo/Li_ONCV_PBE_sr.upf
     MD5 check sum: 50ff420e78310ffa21704f3361e624a4
     Pseudo is Norm-conserving, Zval =  3.0
     Generated using ONCVPSP code by D. R. Hamann
     Using radial grid of 1944 points,  4 beta functions with: 
                l(1) =   0
                l(2) =   0
                l(3) =   1
                l(4) =   1

     PseudoPot. # 2 for Si read from file:
     ../pseudo/Si_ONCV_PBE_sr.upf
     MD5 check sum: e543d271109d17c80368dfa7c482276d
     Pseudo is Norm-conserving + core correction, Zval =  4.0
     Generated using ONCVPSP code by D. R. Hamann
     Using radial grid of 1510 points,  6 beta functions with: 
                l(1) =   0
                l(2) =   0
                l(3) =   1
                l(4) =   1
                l(5) =   2
                l(6) =   2

     atomic species   valence    mass     pseudopotential
     Li                3.00     6.94100     Li( 1.00)
     Si                4.00    28.08550     Si( 1.00)

     12 Sym. Ops., with inversion, found



   Cartesian axes

     site n.     atom                  positions (alat units)
         1        Li     tau(   1) = (   0.0000000  -0.0000000   0.0646731  )
         2        Li     tau(   2) = (  -0.0000000  -0.0000000   2.9281613  )
         3        Li     tau(   3) = (   0.0000000  -0.0000000   0.7058720  )
         4        Li     tau(   4) = (   0.0000000  -0.0000000   2.2869625  )
         5        Li     tau(   5) = (   0.0000000  -0.0000000   1.1077548  )
         6        Li     tau(   6) = (   0.0000000  -0.0000000   1.8850797  )
         7        Li     tau(   7) = (  -0.0000000  -0.0000000   1.2446830  )
         8        Li     tau(   8) = (   0.0000000  -0.0000000   1.7481515  )
         9        Si     tau(   9) = (   0.0000000  -0.0000000   0.5836805  )
        10        Si     tau(  10) = (  -0.0000000  -0.0000000   2.4091539  )

     number of k points=    44  Marzari-Vanderbilt smearing, width (Ry)=  0.0200
                       cart. coord. in units 2pi/alat
        k(    1) = (   0.0000000   0.0000000   0.0000000), wk =   0.0058309
        k(    2) = (  -1.1940496  -0.6893849   0.0477331), wk =   0.0349854
        k(    3) = (  -2.3880992  -1.3787697   0.0954661), wk =   0.0349854
        k(    4) = (  -3.5821488  -2.0681546   0.1431992), wk =   0.0349854
        k(    5) = (  -1.1940496   0.6893849   0.0954661), wk =   0.0349854
        k(    6) = (  -2.3880992  -0.0000000   0.1431992), wk =   0.0699708
        k(    7) = (  -3.5821488  -0.6893849   0.1909322), wk =   0.0699708
        k(    8) = (   3.5821488   3.4469243  -0.0954661), wk =   0.0699708
        k(    9) = (   2.3880992   2.7575394  -0.0477331), wk =   0.0699708
        k(   10) = (   1.1940496   2.0681546   0.0000000), wk =   0.0349854
        k(   11) = (  -2.3880992   1.3787697   0.1909322), wk =   0.0349854
        k(   12) = (  -3.5821488   0.6893849   0.2386653), wk =   0.0699708
        k(   13) = (   3.5821488   4.8256940  -0.0477331), wk =   0.0699708
        k(   14) = (   2.3880992   4.1363091   0.0000000), wk =   0.0349854
        k(   15) = (  -3.5821488   2.0681546   0.2863984), wk =   0.0349854
        k(   16) = (   3.5821488   6.2044637   0.0000000), wk =   0.0349854
        k(   17) = (  -0.0000000   0.0000000   0.1431992), wk =   0.0116618
        k(   18) = (  -1.1940496  -0.6893849   0.1909322), wk =   0.0349854
        k(   19) = (  -2.3880992  -1.3787697   0.2386653), wk =   0.0349854
        k(   20) = (   4.7761984   2.7575394  -0.0477331), wk =   0.0349854
        k(   21) = (   3.5821488   2.0681546   0.0000000), wk =   0.0349854
        k(   22) = (   2.3880992   1.3787697   0.0477331), wk =   0.0349854
        k(   23) = (  -1.1940496   0.6893849   0.2386653), wk =   0.0349854
        k(   24) = (  -2.3880992  -0.0000000   0.2863984), wk =   0.0699708
        k(   25) = (   4.7761984   4.1363091   0.0000000), wk =   0.0699708
        k(   26) = (   3.5821488   3.4469243   0.0477331), wk =   0.0699708
        k(   27) = (   2.3880992   2.7575394   0.0954661), wk =   0.0699708
        k(   28) = (  -2.3880992   1.3787697   0.3341314), wk =   0.0349854
        k(   29) = (   4.7761984   5.5150788   0.0477331), wk =   0.0699708
        k(   30) = (   3.5821488   4.8256940   0.0954661), wk =   0.0699708
        k(   31) = (   2.3880992   4.1363091   0.1431992), wk =   0.0699708
        k(   32) = (   4.7761984  -2.7575394  -0.2386653), wk =   0.0349854
        k(   33) = (   3.5821488  -3.4469243  -0.1909322), wk =   0.0699708
        k(   34) = (   3.5821488  -2.0681546  -0.1431992), wk =   0.0349854
        k(   35) = (  -0.0000000   0.0000000   0.2863984), wk =   0.0116618
        k(   36) = (  -1.1940496  -0.6893849   0.3341314), wk =   0.0349854
        k(   37) = (   5.9702479   3.4469243   0.0477331), wk =   0.0349854
        k(   38) = (   4.7761984   2.7575394   0.0954661), wk =   0.0349854
        k(   39) = (  -1.1940496   0.6893849   0.3818645), wk =   0.0349854
        k(   40) = (   5.9702479   4.8256940   0.0954661), wk =   0.0699708
        k(   41) = (   4.7761984   4.1363091   0.1431992), wk =   0.0699708
        k(   42) = (   5.9702479  -3.4469243  -0.1909322), wk =   0.0349854
        k(   43) = (   0.0000000  -0.0000000   0.4295975), wk =   0.0116618
        k(   44) = (   7.1642975   4.1363091   0.1431992), wk =   0.0349854

     Dense  grid:    48285 G-vectors     FFT dimensions: ( 200, 200, 200)

     Estimated max dynamical RAM per process >      23.73 MB

     Estimated total dynamical RAM >       1.48 GB

     Initial potential from superposition of free atoms

     starting charge      31.9623, renormalised to      32.0000
     Starting wfcs are   24 randomized atomic wfcs

     total cpu time spent up to now is        6.4 secs

     per-process dynamical memory:    68.1 Mb

     Self-consistent Calculation

     iteration #  1     ecut=    70.00 Ry     beta= 0.80
     Davidson diagonalization with overlap
     ethr =  1.00E-02,  avg # of iterations =  6.9

     total cpu time spent up to now is       19.4 secs

     total energy              =    -106.66033364 Ry
     estimated scf accuracy    <      26.42575005 Ry

     iteration #  2     ecut=    70.00 Ry     beta= 0.80
     Davidson diagonalization with overlap
     c_bands:  2 eigenvalues not converged
     c_bands:  1 eigenvalues not converged
     c_bands:  1 eigenvalues not converged
     c_bands:  1 eigenvalues not converged
     c_bands:  1 eigenvalues not converged
     c_bands:  1 eigenvalues not converged
     c_bands:  4 eigenvalues not converged
     c_bands:  5 eigenvalues not converged
     c_bands:  1 eigenvalues not converged
     c_bands:  3 eigenvalues not converged
     c_bands:  1 eigenvalues not converged
     c_bands:  1 eigenvalues not converged
     c_bands:  1 eigenvalues not converged
     c_bands:  1 eigenvalues not converged
     c_bands:  1 eigenvalues not converged
     c_bands:  4 eigenvalues not converged
     c_bands:  2 eigenvalues not converged
     c_bands:  2 eigenvalues not converged
     c_bands:  3 eigenvalues not converged
     c_bands:  1 eigenvalues not converged
     c_bands:  2 eigenvalues not converged
     c_bands:  5 eigenvalues not converged
     ethr =  1.00E-02,  avg # of iterations = 20.1

     total cpu time spent up to now is       62.0 secs

     total energy              =     -57.86683955 Ry
     estimated scf accuracy    <    1991.78947626 Ry

     iteration #  3     ecut=    70.00 Ry     beta= 0.80
     Davidson diagonalization with overlap
     ethr =  1.00E-02,  avg # of iterations = 10.9

     total cpu time spent up to now is       88.8 secs

     total energy              =    -131.88495787 Ry
     estimated scf accuracy    <      88.77298882 Ry

     iteration #  4     ecut=    70.00 Ry     beta= 0.80
     Davidson diagonalization with overlap
     ethr =  1.00E-02,  avg # of iterations =  3.2

     total cpu time spent up to now is       97.9 secs

     total energy              =    -130.14289800 Ry
     estimated scf accuracy    <      76.00327855 Ry

     iteration #  5     ecut=    70.00 Ry     beta= 0.80
     Davidson diagonalization with overlap
     ethr =  1.00E-02,  avg # of iterations =  5.0

     total cpu time spent up to now is      107.9 secs

     total energy              =    -129.77085532 Ry
     estimated scf accuracy    <      11.65140748 Ry

     iteration #  6     ecut=    70.00 Ry     beta= 0.80
     Davidson diagonalization with overlap
     ethr =  1.00E-02,  avg # of iterations =  2.8

     total cpu time spent up to now is      116.5 secs

     total energy              =    -130.35229769 Ry
     estimated scf accuracy    <       6.05887406 Ry

     iteration #  7     ecut=    70.00 Ry     beta= 0.80
     Davidson diagonalization with overlap
     ethr =  1.00E-02,  avg # of iterations =  1.0

     total cpu time spent up to now is      124.1 secs

     total energy              =    -130.51101351 Ry
     estimated scf accuracy    <       1.59867282 Ry

     iteration #  8     ecut=    70.00 Ry     beta= 0.80
     Davidson diagonalization with overlap
     ethr =  5.00E-03,  avg # of iterations =  1.4

     total cpu time spent up to now is      132.0 secs

     total energy              =    -130.53592679 Ry
     estimated scf accuracy    <       1.66164206 Ry

     iteration #  9     ecut=    70.00 Ry     beta= 0.80
     Davidson diagonalization with overlap
     ethr =  5.00E-03,  avg # of iterations =  1.0

     total cpu time spent up to now is      139.4 secs

     total energy              =    -130.56125450 Ry
     estimated scf accuracy    <       0.58109964 Ry

     iteration # 10     ecut=    70.00 Ry     beta= 0.80
     Davidson diagonalization with overlap
     ethr =  1.82E-03,  avg # of iterations =  1.0

     total cpu time spent up to now is      147.0 secs

     total energy              =    -130.57198849 Ry
     estimated scf accuracy    <       0.16422188 Ry

     iteration # 11     ecut=    70.00 Ry     beta= 0.80
     Davidson diagonalization with overlap
     ethr =  5.13E-04,  avg # of iterations =  1.1

     total cpu time spent up to now is      154.4 secs

     total energy              =    -130.57479265 Ry
     estimated scf accuracy    <       0.01240249 Ry

     iteration # 12     ecut=    70.00 Ry     beta= 0.80
     Davidson diagonalization with overlap
     ethr =  3.88E-05,  avg # of iterations =  3.1

     total cpu time spent up to now is      162.5 secs

     total energy              =    -130.57483026 Ry
     estimated scf accuracy    <       0.00104715 Ry

     iteration # 13     ecut=    70.00 Ry     beta= 0.80
     Davidson diagonalization with overlap
     ethr =  3.27E-06,  avg # of iterations =  3.8

     total cpu time spent up to now is      170.8 secs

     total energy              =    -130.57487754 Ry
     estimated scf accuracy    <       0.00151627 Ry

     iteration # 14     ecut=    70.00 Ry     beta= 0.80
     Davidson diagonalization with overlap
     ethr =  3.27E-06,  avg # of iterations =  1.0

     total cpu time spent up to now is      178.3 secs

     total energy              =    -130.57489546 Ry
     estimated scf accuracy    <       0.00000572 Ry

     iteration # 15     ecut=    70.00 Ry     beta= 0.80
     Davidson diagonalization with overlap
     ethr =  1.79E-08,  avg # of iterations =  3.3

     total cpu time spent up to now is      186.9 secs

     total energy              =    -130.57489655 Ry
     estimated scf accuracy    <       0.00000673 Ry

     iteration # 16     ecut=    70.00 Ry     beta= 0.80
     Davidson diagonalization with overlap
     ethr =  1.79E-08,  avg # of iterations =  1.0

     total cpu time spent up to now is      194.5 secs

     total energy              =    -130.57489668 Ry
     estimated scf accuracy    <       0.00000055 Ry

     iteration # 17     ecut=    70.00 Ry     beta= 0.80
     Davidson diagonalization with overlap
     ethr =  1.73E-09,  avg # of iterations =  1.3

     total cpu time spent up to now is      202.2 secs

     total energy              =    -130.57489670 Ry
     estimated scf accuracy    <       0.00000003 Ry

     iteration # 18     ecut=    70.00 Ry     beta= 0.80
     Davidson diagonalization with overlap
     ethr =  1.01E-10,  avg # of iterations =  2.8

     total cpu time spent up to now is      210.7 secs

     End of self-consistent calculation

          k = 0.0000 0.0000 0.0000 (  6013 PWs)   bands (ev):

   -41.5371 -41.5370 -41.4587 -41.4466 -39.2086 -39.2078 -39.1973 -39.1844
    -7.5430  -7.0224   0.1452   2.0691   3.5477   3.6599   3.6797   6.7767
     7.3703   8.5345   8.6250  10.9958

          k =-1.1940-0.6894 0.0477 (  5989 PWs)   bands (ev):

   -41.4042 -41.4042 -41.3283 -41.3166 -39.2785 -39.2780 -39.2646 -39.2521
    -6.8203  -6.3036   0.8192   2.6823   3.9366   4.1072   4.1870   6.9820
     7.3338   8.5585   8.8957  11.1331

          k =-2.3881-1.3788 0.0955 (  6044 PWs)   bands (ev):

   -41.0564 -41.0563 -40.9872 -40.9767 -39.4847 -39.4845 -39.4625 -39.4511
    -4.6801  -4.1783   2.8046   4.3734   4.8632   5.2059   5.6494   7.0435
     7.8112   8.7313   9.5687   9.9576

          k =-3.5821-2.0682 0.1432 (  6075 PWs)   bands (ev):

   -40.6634 -40.6634 -40.6028 -40.5934 -39.7633 -39.7632 -39.7307 -39.7202
    -1.2456  -0.7960   3.8434   4.2667   5.4405   5.5956   5.9369   6.4023
     7.2442   8.1908   9.2803  10.0920

          k =-1.1940 0.6894 0.0955 (  5981 PWs)   bands (ev):

   -41.4042 -41.4042 -41.3283 -41.3166 -39.2785 -39.2780 -39.2646 -39.2521
    -6.8203  -6.3036   0.8192   2.6823   3.9365   4.1081   4.1864   6.9888
     7.3217   8.5883   8.8696  11.1321

          k =-2.3881-0.0000 0.1432 (  6020 PWs)   bands (ev):

   -41.1625 -41.1625 -41.0912 -41.0803 -39.4179 -39.4177 -39.3983 -39.3866
    -5.3886  -4.8812   2.1532   3.8575   4.6170   4.9206   5.1497   7.1799
     7.4873   8.8098   9.4869  11.3576

          k =-3.5821-0.6894 0.1909 (  6044 PWs)   bands (ev):

   -40.7724 -40.7724 -40.7094 -40.6996 -39.6795 -39.6794 -39.6498 -39.6391
    -2.5868  -2.1062   4.6718   5.5034   5.8233   6.0744   6.8161   7.1381
     7.3072   7.4463   8.7317   9.5533

          k = 3.5821 3.4469-0.0955 (  6042 PWs)   bands (ev):

   -40.5005 -40.5005 -40.4437 -40.4348 -39.8938 -39.8938 -39.8569 -39.8466
     0.8844   1.0531   2.5924   2.8800   6.0486   6.2735   6.5069   6.9701
     8.9337   9.2884   9.9110  10.1589

          k = 2.3881 2.7575-0.0477 (  6050 PWs)   bands (ev):

   -40.7724 -40.7724 -40.7094 -40.6996 -39.6795 -39.6794 -39.6498 -39.6392
    -2.5868  -2.1062   4.6718   5.5118   5.7816   6.1380   6.7651   7.0435
     7.4105   7.5122   8.5832   9.7467

          k = 1.1940 2.0682 0.0000 (  6022 PWs)   bands (ev):

   -41.1625 -41.1625 -41.0912 -41.0803 -39.4179 -39.4177 -39.3983 -39.3866
    -5.3886  -4.8812   2.1532   3.8575   4.6159   4.9259   5.1445   7.2888
     7.3451   9.0454   9.2311  11.5806

          k =-2.3881 1.3788 0.1909 (  6022 PWs)   bands (ev):

   -41.0564 -41.0563 -40.9872 -40.9767 -39.4847 -39.4845 -39.4624 -39.4510
    -4.6801  -4.1783   2.8046   4.3746   4.8464   5.2596   5.5908   7.2416
     7.4992   9.1956   9.3008   9.8383

          k =-3.5821 0.6894 0.2387 (  6054 PWs)   bands (ev):

   -40.7724 -40.7724 -40.7094 -40.6996 -39.6795 -39.6795 -39.6499 -39.6392
    -2.5868  -2.1062   4.6714   5.5827   5.6426   6.3274   6.6087   6.9720
     7.3764   7.8046   8.3356  10.0522

          k = 3.5821 4.8257-0.0477 (  6056 PWs)   bands (ev):

   -40.4047 -40.4046 -40.3501 -40.3415 -39.9750 -39.9750 -39.9357 -39.9253
     0.7481   1.1627   4.9008   5.0600   6.6931   6.8006   7.0316   7.2679
     7.3674   7.5188   8.6823   9.6650

          k = 2.3881 4.1363 0.0000 (  6050 PWs)   bands (ev):

   -40.4047 -40.4046 -40.3501 -40.3415 -39.9750 -39.9750 -39.9357 -39.9253
     0.7481   1.1627   4.9008   5.0600   6.6721   6.8883   6.9400   7.2636
     7.4055   7.5184   8.6484   9.8037

          k =-3.5821 2.0682 0.2864 (  6067 PWs)   bands (ev):

   -40.6634 -40.6634 -40.6028 -40.5934 -39.7632 -39.7632 -39.7307 -39.7202
    -1.2456  -0.7960   3.8434   4.2667   5.4475   5.5869   5.9272   6.4363
     7.1840   8.3002   9.1311  10.1551

          k = 3.5821 6.2045 0.0000 (  6040 PWs)   bands (ev):

   -40.5005 -40.5005 -40.4438 -40.4348 -39.8938 -39.8937 -39.8569 -39.8466
     0.8844   1.0531   2.5924   2.8800   6.0555   6.2512   6.5305   6.9609
     8.9154   9.3682   9.7756  10.1888

          k =-0.0000 0.0000 0.1432 (  6016 PWs)   bands (ev):

   -41.5371 -41.5370 -41.4587 -41.4466 -39.2087 -39.2078 -39.1973 -39.1844
    -7.5430  -7.0224   0.1452   2.0691   3.5477   3.6599   3.6797   6.7698
     7.4047   8.2995   8.8852  10.7468

          k =-1.1940-0.6894 0.1909 (  5983 PWs)   bands (ev):

   -41.4042 -41.4042 -41.3283 -41.3166 -39.2785 -39.2780 -39.2646 -39.2521
    -6.8203  -6.3036   0.8192   2.6823   3.9369   4.1060   4.1882   6.9408
     7.4435   8.2718   9.2242  10.7659

          k =-2.3881-1.3788 0.2387 (  6036 PWs)   bands (ev):

   -41.0564 -41.0563 -40.9872 -40.9767 -39.4847 -39.4845 -39.4625 -39.4510
    -4.6801  -4.1783   2.8046   4.3738   4.8610   5.2068   5.6543   7.0022
     7.9592   8.5282   9.6310   9.9696

          k = 4.7762 2.7575-0.0477 (  6073 PWs)   bands (ev):

   -40.6634 -40.6634 -40.6028 -40.5934 -39.7633 -39.7632 -39.7307 -39.7202
    -1.2456  -0.7960   3.8434   4.2667   5.4224   5.6662   5.8412   6.4889
     7.1584   8.2956   9.1437  10.2420

          k = 3.5821 2.0682 0.0000 (  6078 PWs)   bands (ev):

   -40.6634 -40.6634 -40.6028 -40.5934 -39.7633 -39.7632 -39.7307 -39.7202
    -1.2456  -0.7960   3.8434   4.2667   5.4703   5.5389   6.0075   6.3363
     7.2903   8.1459   9.3435  10.0013

          k = 2.3881 1.3788 0.0477 (  6040 PWs)   bands (ev):

   -41.0564 -41.0563 -40.9872 -40.9767 -39.4847 -39.4845 -39.4625 -39.4510
    -4.6801  -4.1783   2.8046   4.3738   4.8564   5.2284   5.6224   7.1385
     7.6309   8.9977   9.4370   9.8929

          k =-1.1940 0.6894 0.2387 (  5979 PWs)   bands (ev):

   -41.4042 -41.4042 -41.3283 -41.3166 -39.2785 -39.2780 -39.2646 -39.2521
    -6.8203  -6.3036   0.8192   2.6823   3.9365   4.1077   4.1867   6.9516
     7.4168   8.3044   9.2024  10.7682

          k =-2.3881-0.0000 0.2864 (  6014 PWs)   bands (ev):

   -41.1625 -41.1625 -41.0912 -41.0803 -39.4179 -39.4177 -39.3983 -39.3866
    -5.3886  -4.8812   2.1532   3.8575   4.6197   4.9094   5.1608   7.0867
     7.6772   8.5280   9.8319  10.9882

          k = 4.7762 4.1363 0.0000 (  6053 PWs)   bands (ev):

   -40.7724 -40.7724 -40.7094 -40.6996 -39.6795 -39.6795 -39.6499 -39.6392
    -2.5868  -2.1062   4.6717   5.5134   5.7889   6.1075   6.8208   7.1291
     7.2471   7.5030   8.7510   9.5112

          k = 3.5821 3.4469 0.0477 (  6035 PWs)   bands (ev):

   -40.5005 -40.5005 -40.4437 -40.4347 -39.8938 -39.8937 -39.8569 -39.8466
     0.8844   1.0531   2.5924   2.8800   6.0509   6.2653   6.5156   6.9669
     8.9267   9.3146   9.8610  10.1732

          k = 2.3881 2.7575 0.0955 (  6054 PWs)   bands (ev):

   -40.7724 -40.7724 -40.7094 -40.6996 -39.6795 -39.6795 -39.6498 -39.6392
    -2.5868  -2.1062   4.6716   5.5384   5.7111   6.2446   6.6762   6.9918
     7.3936   7.6983   8.4165   9.9744

          k =-2.3881 1.3788 0.3341 (  6030 PWs)   bands (ev):

   -41.0564 -41.0563 -40.9872 -40.9767 -39.4847 -39.4845 -39.4624 -39.4510
    -4.6801  -4.1783   2.8046   4.3754   4.8407   5.2748   5.5794   7.2035
     7.5668   8.9668   9.5140   9.8260

          k = 4.7762 5.5151 0.0477 (  6052 PWs)   bands (ev):

   -40.7724 -40.7724 -40.7094 -40.6996 -39.6795 -39.6795 -39.6499 -39.6392
    -2.5868  -2.1062   4.6714   5.5845   5.6432   6.2959   6.6601   6.9738
     7.3549   7.7454   8.4325   9.8684

          k = 3.5821 4.8257 0.0955 (  6052 PWs)   bands (ev):

   -40.4047 -40.4046 -40.3501 -40.3415 -39.9750 -39.9750 -39.9357 -39.9253
     0.7481   1.1627   4.9008   5.0600   6.7181   6.7574   7.0665   7.2739
     7.3399   7.5189   8.7023   9.6079

          k = 2.3881 4.1363 0.1432 (  6049 PWs)   bands (ev):

   -40.4047 -40.4046 -40.3501 -40.3414 -39.9750 -39.9750 -39.9357 -39.9253
     0.7481   1.1627   4.9008   5.0600   6.6774   6.8506   6.9795   7.2646
     7.3947   7.5185   8.6585   9.7522

          k = 4.7762-2.7575-0.2387 (  6061 PWs)   bands (ev):

   -40.6634 -40.6634 -40.6028 -40.5934 -39.7633 -39.7632 -39.7307 -39.7202
    -1.2456  -0.7960   3.8434   4.2667   5.4262   5.6603   5.8365   6.5186
     7.1093   8.3974   9.0178  10.2710

          k = 3.5821-3.4469-0.1909 (  6043 PWs)   bands (ev):

   -40.5005 -40.5005 -40.4438 -40.4348 -39.8938 -39.8937 -39.8569 -39.8466
     0.8844   1.0531   2.5924   2.8800   6.0540   6.2555   6.5260   6.9628
     8.9187   9.3504   9.8021  10.1849

          k = 3.5821-2.0682-0.1432 (  6071 PWs)   bands (ev):

   -40.6634 -40.6634 -40.6028 -40.5934 -39.7632 -39.7632 -39.7307 -39.7202
    -1.2456  -0.7960   3.8434   4.2667   5.4776   5.5310   6.0005   6.3526
     7.2624   8.1923   9.2725  10.0409

          k =-0.0000 0.0000 0.2864 (  6005 PWs)   bands (ev):

   -41.5371 -41.5370 -41.4587 -41.4466 -39.2087 -39.2078 -39.1973 -39.1844
    -7.5430  -7.0224   0.1452   2.0691   3.5477   3.6598   3.6798   6.7556
     7.5011   8.0521   9.2064  10.3620

          k =-1.1940-0.6894 0.3341 (  5988 PWs)   bands (ev):

   -41.4042 -41.4042 -41.3283 -41.3166 -39.2785 -39.2780 -39.2646 -39.2521
    -6.8203  -6.3036   0.8192   2.6823   3.9370   4.1051   4.1890   6.9069
     7.6072   8.0122   9.5667  10.3716

          k = 5.9702 3.4469 0.0477 (  6039 PWs)   bands (ev):

   -41.0564 -41.0563 -40.9872 -40.9767 -39.4847 -39.4845 -39.4625 -39.4510
    -4.6801  -4.1783   2.8046   4.3747   4.8517   5.2297   5.6335   7.0229
     7.9326   8.5320   9.6543   9.9353

          k = 4.7762 2.7575 0.0955 (  6065 PWs)   bands (ev):

   -40.6634 -40.6634 -40.6028 -40.5934 -39.7632 -39.7632 -39.7307 -39.7202
    -1.2456  -0.7960   3.8434   4.2667   5.4176   5.7441   5.7496   6.5419
     7.0959   8.3939   9.0249  10.3249

          k =-1.1940 0.6894 0.3819 (  5982 PWs)   bands (ev):

   -41.4042 -41.4042 -41.3283 -41.3166 -39.2785 -39.2780 -39.2646 -39.2521
    -6.8203  -6.3036   0.8192   2.6823   3.9367   4.1065   4.1878   6.9136
     7.5750   8.0463   9.5502  10.3781

          k = 5.9702 4.8257 0.0955 (  6018 PWs)   bands (ev):

   -41.1625 -41.1625 -41.0912 -41.0803 -39.4179 -39.4177 -39.3984 -39.3866
    -5.3886  -4.8812   2.1532   3.8574   4.6219   4.9010   5.1692   7.0382
     7.8585   8.3002  10.1821  10.6188

          k = 4.7762 4.1363 0.1432 (  6047 PWs)   bands (ev):

   -40.7724 -40.7724 -40.7094 -40.6996 -39.6795 -39.6795 -39.6499 -39.6392
    -2.5868  -2.1062   4.6715   5.5409   5.7156   6.1990   6.7660   7.0129
     7.3185   7.6126   8.6127   9.6515

          k = 5.9702-3.4469-0.1909 (  6030 PWs)   bands (ev):

   -41.0564 -41.0563 -40.9872 -40.9767 -39.4847 -39.4845 -39.4625 -39.4510
    -4.6801  -4.1783   2.8046   4.3754   4.8429   5.2599   5.6000   7.0980
     7.7538   8.7230   9.6355   9.8706

          k = 0.0000-0.0000 0.4296 (  6017 PWs)   bands (ev):

   -41.5371 -41.5370 -41.4587 -41.4466 -39.2087 -39.2077 -39.1972 -39.1844
    -7.5430  -7.0224   0.1452   2.0691   3.5477   3.6597   3.6799   6.7451
     7.6460   7.8343   9.5287  10.0010

          k = 7.1643 4.1363 0.1432 (  5981 PWs)   bands (ev):

   -41.4042 -41.4042 -41.3283 -41.3166 -39.2785 -39.2780 -39.2646 -39.2521
    -6.8203  -6.3036   0.8192   2.6823   3.9369   4.1054   4.1888   6.8969
     7.7572   7.8319   9.8229  10.0931

     the Fermi energy is     7.2350 ev

!    total energy              =    -130.57489670 Ry
     estimated scf accuracy    <          7.6E-09 Ry
     smearing contrib. (-TS)   =      -0.00085053 Ry
     internal energy E=F+TS    =    -130.57404616 Ry

     The total energy is F=E-TS. E is the sum of the following terms:
     one-electron contribution =     -71.33434933 Ry
     hartree contribution      =      35.49229001 Ry
     xc contribution           =     -34.63516973 Ry
     ewald contribution        =     -60.09681711 Ry

     convergence has been achieved in  18 iterations

     Forces acting on atoms (cartesian axes, Ry/au):

     atom    1 type  1   force =    -0.00000000   -0.00000000   -0.18961527
     atom    2 type  1   force =     0.00000000    0.00000000    0.18961527
     atom    3 type  1   force =    -0.00000000    0.00000000   -0.15884842
     atom    4 type  1   force =     0.00000000   -0.00000000    0.15884842
     atom    5 type  1   force =     0.00000000   -0.00000000    0.19151332
     atom    6 type  1   force =    -0.00000000   -0.00000000   -0.19151332
     atom    7 type  1   force =    -0.00000000    0.00000000   -0.19309156
     atom    8 type  1   force =     0.00000000   -0.00000000    0.19309156
     atom    9 type  2   force =    -0.00000000    0.00000000   -0.02447424
     atom   10 type  2   force =    -0.00000000    0.00000000    0.02447424

     Total force =     0.521052     Total SCF correction =     0.000235


     Computing stress (Cartesian axis) and pressure

          total   stress  (Ry/bohr**3)                   (kbar)     P=      571.15
   0.00514667  -0.00000000   0.00000000          757.10       -0.00        0.00
   0.00000000   0.00514667   0.00000000            0.00      757.10        0.00
   0.00000000   0.00000000   0.00135455            0.00        0.00      199.26


     BFGS Geometry Optimization
     Energy error            =      0.0E+00 Ry
     Gradient error          =      1.9E-01 Ry/Bohr
     Cell gradient error     =      3.0E+02 kbar

     number of scf cycles    =   1
     number of bfgs steps    =   0

     enthalpy           new  =    -128.4998426700 Ry

     new trust radius        =       0.2525666178 bohr
ibrav =      5
 celldm(1) =     34.82666742
 celldm(4) =      0.99135015
Input lattice vectors:
     0.06243420    -0.03604640     0.94662397
     0.00000000     0.07209281     0.94662397
    -0.06243420    -0.03604640     0.94662397
New lattice vectors in INITIAL alat:
     0.06243420    -0.03604640     0.94662397
     0.00000000     0.07209281     0.94662397
    -0.06243420    -0.03604640     0.94662397
New lattice vectors in NEW alat (for information only):
     0.06576416    -0.03796895     0.99711255
     0.00000000     0.07593791     0.99711255
    -0.06576416    -0.03796895     0.99711255
Discrepancy in bohr =     0.000000    0.000000    0.000000
     new conv_thr            =       0.0000000100 Ry

     new unit-cell volume =    631.02863 a.u.^3 (    93.50880 Ang^3 )
     density =      1.98356 g/cm^3

CELL_PARAMETERS (alat= 36.68416188)
   0.062434202  -0.036046404   0.946623974
   0.000000000   0.072092807   0.946623974
  -0.062434202  -0.036046404   0.946623974

ATOMIC_POSITIONS (crystal)
Li               0.0198822518        0.0198822518        0.0198822518
Li               0.9801177482        0.9801177482        0.9801177482
Li               0.2344071563        0.2344071563        0.2344071563
Li               0.7655928437        0.7655928437        0.7655928437
Li               0.3718800363        0.3718800363        0.3718800363
Li               0.6281199637        0.6281199637        0.6281199637
Li               0.4141289285        0.4141289285        0.4141289285
Li               0.5858710715        0.5858710715        0.5858710715
Si               0.1948030805        0.1948030805        0.1948030805
Si               0.8051969195        0.8051969195        0.8051969195



     Writing config-only to output data dir ./output/LiSi.save/ :
     XML data file
     NEW-OLD atomic charge density approx. for the potential

     total cpu time spent up to now is      211.8 secs

     per-process dynamical memory:    69.3 Mb

     Self-consistent Calculation

     iteration #  1     ecut=    70.00 Ry     beta= 0.80
     Davidson diagonalization with overlap
     ethr =  1.00E-06,  avg # of iterations = 11.8

     total cpu time spent up to now is      236.6 secs

     total energy              =    -130.93928808 Ry
     estimated scf accuracy    <       0.09978091 Ry

     iteration #  2     ecut=    70.00 Ry     beta= 0.80
     Davidson diagonalization with overlap
     ethr =  3.12E-04,  avg # of iterations =  7.0

     total cpu time spent up to now is      248.1 secs

     total energy              =    -130.22165248 Ry
     estimated scf accuracy    <      28.39739003 Ry

     iteration #  3     ecut=    70.00 Ry     beta= 0.80
     Davidson diagonalization with overlap
     ethr =  3.12E-04,  avg # of iterations =  6.3

     total cpu time spent up to now is      259.9 secs

     total energy              =    -130.86553237 Ry
     estimated scf accuracy    <       2.37309933 Ry

     iteration #  4     ecut=    70.00 Ry     beta= 0.80
     Davidson diagonalization with overlap
     ethr =  3.12E-04,  avg # of iterations =  3.3

     total cpu time spent up to now is      269.1 secs

     total energy              =    -130.96256742 Ry
     estimated scf accuracy    <       0.53557541 Ry

     iteration #  5     ecut=    70.00 Ry     beta= 0.80
     Davidson diagonalization with overlap
     ethr =  3.12E-04,  avg # of iterations =  1.9

     total cpu time spent up to now is      277.3 secs

     total energy              =    -130.99426666 Ry
     estimated scf accuracy    <       0.01185078 Ry

     iteration #  6     ecut=    70.00 Ry     beta= 0.80
     Davidson diagonalization with overlap
     ethr =  3.70E-05,  avg # of iterations =  2.7

     total cpu time spent up to now is      285.5 secs

     total energy              =    -130.99516180 Ry
     estimated scf accuracy    <       0.00265853 Ry

     iteration #  7     ecut=    70.00 Ry     beta= 0.80
     Davidson diagonalization with overlap
     ethr =  8.31E-06,  avg # of iterations =  2.4

     total cpu time spent up to now is      293.3 secs

     total energy              =    -130.99536417 Ry
     estimated scf accuracy    <       0.00020891 Ry

     iteration #  8     ecut=    70.00 Ry     beta= 0.80
     Davidson diagonalization with overlap
     ethr =  6.53E-07,  avg # of iterations =  2.9

     total cpu time spent up to now is      301.6 secs

     total energy              =    -130.99538003 Ry
     estimated scf accuracy    <       0.00005533 Ry

     iteration #  9     ecut=    70.00 Ry     beta= 0.80
     Davidson diagonalization with overlap
     ethr =  1.73E-07,  avg # of iterations =  1.3

     total cpu time spent up to now is      309.2 secs

     total energy              =    -130.99538316 Ry
     estimated scf accuracy    <       0.00000772 Ry

     iteration # 10     ecut=    70.00 Ry     beta= 0.80
     Davidson diagonalization with overlap
     ethr =  2.41E-08,  avg # of iterations =  1.9

     total cpu time spent up to now is      316.9 secs

     total energy              =    -130.99538362 Ry
     estimated scf accuracy    <       0.00000089 Ry

     iteration # 11     ecut=    70.00 Ry     beta= 0.80
     Davidson diagonalization with overlap
     ethr =  2.77E-09,  avg # of iterations =  2.3

     total cpu time spent up to now is      324.8 secs

     total energy              =    -130.99538366 Ry
     estimated scf accuracy    <       0.00000005 Ry

     iteration # 12     ecut=    70.00 Ry     beta= 0.80
     Davidson diagonalization with overlap
     ethr =  1.52E-10,  avg # of iterations =  3.5

     total cpu time spent up to now is      333.4 secs

     End of self-consistent calculation

          k = 0.0000 0.0000 0.0000 (  6013 PWs)   bands (ev):

   -40.8292 -40.8289 -40.7009 -40.6629 -39.3542 -39.3516 -39.3120 -39.2702
    -6.8069  -6.0530   0.4782   2.8427   3.0886   3.3157   3.5242   6.6096
     6.6609   8.3599   8.8243  11.2589

          k =-1.1441-0.6605 0.0503 (  5989 PWs)   bands (ev):

   -40.7404 -40.7403 -40.6154 -40.5781 -39.3938 -39.3917 -39.3485 -39.3074
    -6.1419  -5.3935   1.0810   3.3142   3.4019   3.7179   3.9516   6.6476
     6.8599   8.5251   9.1531  11.5862

          k =-2.2881-1.3210 0.1006 (  6044 PWs)   bands (ev):

   -40.5108 -40.5106 -40.3943 -40.3596 -39.5141 -39.5128 -39.4594 -39.4198
    -4.1660  -3.4374   2.8440   4.1805   4.5184   4.7988   5.3191   6.8322
     7.6123   8.8927   9.1788   9.7410

          k =-3.4322-1.9816 0.1509 (  6075 PWs)   bands (ev):

   -40.2564 -40.2562 -40.1501 -40.1187 -39.6804 -39.6795 -39.6143 -39.5752
    -0.9546  -0.2840   3.6150   4.2241   5.0500   5.2639   5.7757   6.1173
     7.2578   7.7404   9.0825   9.6705

          k =-1.1441 0.6605 0.1006 (  5981 PWs)   bands (ev):

   -40.7404 -40.7402 -40.6154 -40.5781 -39.3938 -39.3917 -39.3485 -39.3074
    -6.1419  -5.3935   1.0810   3.3168   3.3975   3.7220   3.9493   6.6431
     6.8674   8.5040   9.1791  11.5604

          k =-2.2881 0.0000 0.1509 (  6020 PWs)   bands (ev):

   -40.5803 -40.5802 -40.4612 -40.4257 -39.4749 -39.4733 -39.4231 -39.3831
    -4.8213  -4.0854   2.2688   3.9698   4.1366   4.5491   4.7975   6.8248
     7.3145   8.8895   9.8523  11.7955

          k =-3.4322-0.6605 0.2012 (  6044 PWs)   bands (ev):

   -40.3260 -40.3258 -40.2170 -40.1843 -39.6303 -39.6293 -39.5673 -39.5281
    -2.2211  -1.5179   4.4771   4.9629   5.5086   5.6958   6.5490   6.7907
     7.1842   7.4116   8.7062   9.5890

          k = 3.4322 3.3026-0.1006 (  6042 PWs)   bands (ev):

   -40.1527 -40.1525 -40.0505 -40.0211 -39.7589 -39.7579 -39.6887 -39.6485
     1.2243   1.4405   2.4413   2.8212   5.6567   6.0237   6.3713   7.0370
     8.4054   8.5027   9.4080   9.6108

          k = 2.2881 2.6421-0.0503 (  6050 PWs)   bands (ev):

   -40.3260 -40.3258 -40.2170 -40.1844 -39.6303 -39.6293 -39.5672 -39.5281
    -2.2211  -1.5179   4.4757   4.9819   5.3986   5.8540   6.4805   6.6726
     7.2637   7.5491   8.4857   9.8262

          k = 1.1441 1.9816 0.0000 (  6022 PWs)   bands (ev):

   -40.5803 -40.5802 -40.4612 -40.4257 -39.4749 -39.4733 -39.4231 -39.3831
    -4.8213  -4.0854   2.2688   3.9806   4.1125   4.6039   4.7510   6.9147
     7.1919   9.0431   9.6844  11.9285

          k =-2.2881 1.3210 0.2012 (  6022 PWs)   bands (ev):

   -40.5108 -40.5106 -40.3943 -40.3596 -39.5141 -39.5128 -39.4594 -39.4197
    -4.1660  -3.4374   2.8440   4.2131   4.4088   5.0444   5.1182   7.0147
     7.3913   8.9457   9.3379   9.6769

          k =-3.4322 0.6605 0.2515 (  6054 PWs)   bands (ev):

   -40.3260 -40.3258 -40.2169 -40.1844 -39.6303 -39.6293 -39.5673 -39.5281
    -2.2211  -1.5179   4.4724   5.0347   5.2724   6.1348   6.2415   6.6344
     7.2288   7.8525   8.2143  10.0204

          k = 3.4322 4.6237-0.0503 (  6056 PWs)   bands (ev):

   -40.0926 -40.0925 -39.9922 -39.9653 -39.8077 -39.8063 -39.7362 -39.6941
     0.9284   1.5594   4.9756   5.1900   6.2729   6.4014   6.4848   6.8370
     6.9964   7.3288   8.3522   9.1497

          k = 2.2881 3.9631 0.0000 (  6050 PWs)   bands (ev):

   -40.0926 -40.0925 -39.9923 -39.9653 -39.8077 -39.8064 -39.7362 -39.6941
     0.9284   1.5594   4.9756   5.1901   6.2432   6.4295   6.5783   6.6840
     6.9975   7.4519   8.1939   9.5089

          k =-3.4322 1.9816 0.3018 (  6067 PWs)   bands (ev):

   -40.2564 -40.2562 -40.1501 -40.1187 -39.6804 -39.6794 -39.6143 -39.5751
    -0.9546  -0.2840   3.6151   4.2234   5.0517   5.2962   5.6401   6.3499
     6.9218   8.1554   8.7440   9.6955

          k = 3.4322 5.9447 0.0000 (  6040 PWs)   bands (ev):

   -40.1527 -40.1526 -40.0505 -40.0211 -39.7589 -39.7579 -39.6887 -39.6485
     1.2243   1.4405   2.4413   2.8212   5.6660   5.9857   6.4250   7.0024
     8.2946   8.8971   8.9242   9.7885

          k = 0.0000 0.0000 0.1509 (  6016 PWs)   bands (ev):

   -40.8292 -40.8289 -40.7009 -40.6629 -39.3542 -39.3516 -39.3120 -39.2702
    -6.8069  -6.0530   0.4782   2.8422   3.0917   3.3094   3.5283   6.4961
     6.8116   8.1804   9.0164  11.1301

          k =-1.1441-0.6605 0.2012 (  5983 PWs)   bands (ev):

   -40.7404 -40.7402 -40.6154 -40.5781 -39.3938 -39.3917 -39.3485 -39.3074
    -6.1419  -5.3935   1.0810   3.3025   3.4263   3.6894   3.9694   6.5322
     7.0452   8.2739   9.4250  11.3418

          k =-2.2881-1.3210 0.2515 (  6036 PWs)   bands (ev):

   -40.5108 -40.5106 -40.3943 -40.3596 -39.5141 -39.5128 -39.4594 -39.4197
    -4.1660  -3.4374   2.8440   4.1726   4.6048   4.6830   5.3797   6.7288
     7.8014   8.7187   9.1581   9.6836

          k = 4.5762 2.6421-0.0503 (  6073 PWs)   bands (ev):

   -40.2564 -40.2562 -40.1501 -40.1186 -39.6804 -39.6794 -39.6143 -39.5751
    -0.9546  -0.2840   3.6150   4.2240   5.0345   5.3312   5.6318   6.2840
     7.0520   7.9552   8.8889   9.8946

          k = 3.4322 1.9816 0.0000 (  6078 PWs)   bands (ev):

   -40.2564 -40.2562 -40.1502 -40.1187 -39.6804 -39.6795 -39.6143 -39.5751
    -0.9546  -0.2840   3.6150   4.2240   5.0675   5.2258   5.8721   6.0262
     7.3007   7.7076   9.1666   9.5048

          k = 2.2881 1.3210 0.0503 (  6040 PWs)   bands (ev):

   -40.5108 -40.5106 -40.3943 -40.3596 -39.5141 -39.5129 -39.4594 -39.4198
    -4.1660  -3.4374   2.8440   4.1978   4.4474   4.9287   5.2190   6.9735
     7.4265   8.9709   9.2703   9.7943

          k =-1.1441 0.6605 0.2515 (  5979 PWs)   bands (ev):

   -40.7404 -40.7402 -40.6154 -40.5781 -39.3938 -39.3917 -39.3485 -39.3074
    -6.1419  -5.3935   1.0810   3.3067   3.4175   3.6982   3.9650   6.5289
     7.0574   8.2442   9.4677  11.2912

          k =-2.2881-0.0000 0.3018 (  6014 PWs)   bands (ev):

   -40.5804 -40.5802 -40.4612 -40.4257 -39.4748 -39.4734 -39.4231 -39.3831
    -4.8213  -4.0854   2.2688   3.9520   4.1940   4.4553   4.8635   6.7062
     7.5269   8.6219  10.1614  11.5089

          k = 4.5762 3.9631 0.0000 (  6053 PWs)   bands (ev):

   -40.3260 -40.3258 -40.2170 -40.1844 -39.6303 -39.6293 -39.5673 -39.5281
    -2.2211  -1.5179   4.4767   4.9647   5.5198   5.6725   6.5581   6.9111
     7.0204   7.4318   8.8085   9.4674

          k = 3.4322 3.3026 0.0503 (  6035 PWs)   bands (ev):

   -40.1527 -40.1525 -40.0504 -40.0211 -39.7589 -39.7579 -39.6887 -39.6485
     1.2243   1.4405   2.4413   2.8212   5.6599   6.0094   6.3910   7.0250
     8.3437   8.6169   9.2496   9.7134

          k = 2.2881 2.6421 0.1006 (  6054 PWs)   bands (ev):

   -40.3260 -40.3258 -40.2170 -40.1844 -39.6303 -39.6293 -39.5672 -39.5281
    -2.2211  -1.5179   4.4736   5.0139   5.3104   6.0313   6.3297   6.6368
     7.2554   7.7728   8.2636  10.0321

          k =-2.2881 1.3210 0.3521 (  6030 PWs)   bands (ev):

   -40.5108 -40.5106 -40.3943 -40.3596 -39.5141 -39.5128 -39.4594 -39.4197
    -4.1660  -3.4374   2.8440   4.2096   4.4209   4.9603   5.2063   6.8926
     7.5652   8.8475   9.2876   9.6064

          k = 4.5762 5.2842 0.0503 (  6052 PWs)   bands (ev):

   -40.3260 -40.3258 -40.2169 -40.1844 -39.6303 -39.6293 -39.5673 -39.5281
    -2.2211  -1.5179   4.4729   5.0182   5.3108   5.9736   6.4162   6.6574
     7.1843   7.6913   8.4322   9.8137

          k = 3.4322 4.6237 0.1006 (  6052 PWs)   bands (ev):

   -40.0926 -40.0926 -39.9922 -39.9653 -39.8077 -39.8063 -39.7361 -39.6940
     0.9284   1.5594   4.9756   5.1900   6.3084   6.3562   6.4680   6.9161
     6.9934   7.2508   8.4597   9.0035

          k = 2.2881 3.9631 0.1509 (  6049 PWs)   bands (ev):

   -40.0926 -40.0925 -39.9922 -39.9653 -39.8077 -39.8064 -39.7362 -39.6941
     0.9284   1.5594   4.9756   5.1901   6.2507   6.4246   6.5333   6.7427
     6.9973   7.4142   8.2410   9.3485

          k = 4.5762-2.6421-0.2515 (  6061 PWs)   bands (ev):

   -40.2563 -40.2562 -40.1501 -40.1186 -39.6804 -39.6794 -39.6143 -39.5751
    -0.9546  -0.2840   3.6150   4.2234   5.0362   5.3867   5.5219   6.5204
     6.7527   8.3968   8.4890   9.8303

          k = 3.4322-3.3026-0.2012 (  6043 PWs)   bands (ev):

   -40.1527 -40.1526 -40.0504 -40.0211 -39.7589 -39.7579 -39.6887 -39.6485
     1.2243   1.4405   2.4413   2.8212   5.6641   5.9928   6.4147   7.0096
     8.3067   8.7546   9.0783   9.7720

          k = 3.4322-1.9816-0.1509 (  6071 PWs)   bands (ev):

   -40.2564 -40.2562 -40.1501 -40.1187 -39.6804 -39.6794 -39.6143 -39.5751
    -0.9546  -0.2840   3.6151   4.2236   5.0679   5.2367   5.7692   6.1625
     7.1274   7.9074   9.0001   9.5632

          k = 0.0000 0.0000 0.3018 (  6005 PWs)   bands (ev):

   -40.8292 -40.8289 -40.7009 -40.6628 -39.3542 -39.3516 -39.3120 -39.2702
    -6.8069  -6.0530   0.4782   2.8411   3.0993   3.2954   3.5368   6.4026
     7.0133   7.8966   9.3294  10.8499

          k =-1.1441-0.6605 0.3521 (  5988 PWs)   bands (ev):

   -40.7405 -40.7402 -40.6154 -40.5781 -39.3938 -39.3917 -39.3485 -39.3074
    -6.1419  -5.3935   1.0810   3.2934   3.4529   3.6571   3.9867   6.4534
     7.2548   7.9987   9.7328  11.0258

          k = 5.7203 3.3026 0.0503 (  6039 PWs)   bands (ev):

   -40.5107 -40.5106 -40.3943 -40.3596 -39.5141 -39.5129 -39.4594 -39.4197
    -4.1660  -3.4374   2.8440   4.1770   4.5645   4.7228   5.3787   6.7060
     7.8841   8.6162   9.1740   9.6445

          k = 4.5762 2.6421 0.1006 (  6065 PWs)   bands (ev):

   -40.2564 -40.2562 -40.1501 -40.1186 -39.6804 -39.6794 -39.6143 -39.5751
    -0.9546  -0.2840   3.6150   4.2237   5.0296   5.4179   5.5004   6.4578
     6.8378   8.2065   8.6615   9.9461

          k =-1.1441 0.6605 0.4024 (  5982 PWs)   bands (ev):

   -40.7405 -40.7402 -40.6154 -40.5781 -39.3938 -39.3917 -39.3485 -39.3074
    -6.1419  -5.3935   1.0810   3.2959   3.4455   3.6648   3.9837   6.4518
     7.2685   7.9753   9.7706  10.9818

          k = 5.7203 4.6237 0.1006 (  6018 PWs)   bands (ev):

   -40.5804 -40.5802 -40.4612 -40.4257 -39.4749 -39.4734 -39.4231 -39.3831
    -4.8213  -4.0854   2.2688   3.9411   4.2689   4.3611   4.9036   6.6377
     7.7128   8.4028  10.4383  11.2359

          k = 4.5762 3.9631 0.1509 (  6047 PWs)   bands (ev):

   -40.3260 -40.3258 -40.2169 -40.1843 -39.6303 -39.6293 -39.5673 -39.5281
    -2.2211  -1.5179   4.4748   4.9863   5.4038   5.8131   6.5314   6.7608
     7.1052   7.5298   8.6744   9.5856

          k = 5.7203-3.3026-0.2012 (  6030 PWs)   bands (ev):

   -40.5107 -40.5106 -40.3942 -40.3596 -39.5141 -39.5129 -39.4594 -39.4197
    -4.1660  -3.4374   2.8440   4.1920   4.4789   4.8380   5.3140   6.7690
     7.7714   8.6982   9.2144   9.6162

          k = 0.0000-0.0000 0.4527 (  6017 PWs)   bands (ev):

   -40.8293 -40.8289 -40.7009 -40.6629 -39.3542 -39.3516 -39.3120 -39.2702
    -6.8069  -6.0530   0.4782   2.8403   3.1058   3.2841   3.5432   6.3545
     7.2125   7.6497   9.5849  10.5969

          k = 6.8644 3.9631 0.1509 (  5981 PWs)   bands (ev):

   -40.7405 -40.7402 -40.6154 -40.5781 -39.3938 -39.3917 -39.3485 -39.3074
    -6.1419  -5.3935   1.0810   3.2909   3.4624   3.6453   3.9925   6.4257
     7.3893   7.8371   9.9082  10.8414

     the Fermi energy is     6.9590 ev

!    total energy              =    -130.99538367 Ry
     estimated scf accuracy    <          1.0E-09 Ry
     smearing contrib. (-TS)   =       0.00079243 Ry
     internal energy E=F+TS    =    -130.99617610 Ry

     The total energy is F=E-TS. E is the sum of the following terms:
     one-electron contribution =     -63.53010919 Ry
     hartree contribution      =      31.59512225 Ry
     xc contribution           =     -34.43638468 Ry
     ewald contribution        =     -64.62480448 Ry

     convergence has been achieved in  12 iterations

     Forces acting on atoms (cartesian axes, Ry/au):

     atom    1 type  1   force =     0.00000000   -0.00000000   -0.15131306
     atom    2 type  1   force =    -0.00000000    0.00000000    0.15131306
     atom    3 type  1   force =     0.00000000    0.00000000   -0.09882582
     atom    4 type  1   force =    -0.00000000    0.00000000    0.09882582
     atom    5 type  1   force =     0.00000000    0.00000000    0.15812034
     atom    6 type  1   force =    -0.00000000   -0.00000000   -0.15812034
     atom    7 type  1   force =    -0.00000000   -0.00000000   -0.15399341
     atom    8 type  1   force =     0.00000000   -0.00000000    0.15399341
     atom    9 type  2   force =     0.00000000    0.00000000   -0.06205458
     atom   10 type  2   force =     0.00000000    0.00000000    0.06205458

     Total force =     0.412866     Total SCF correction =     0.000071


     Computing stress (Cartesian axis) and pressure

          total   stress  (Ry/bohr**3)                   (kbar)     P=      481.67
   0.00382093   0.00000000   0.00000000          562.08        0.00        0.00
  -0.00000000   0.00382093   0.00000000           -0.00      562.08        0.00
   0.00000000   0.00000000   0.00218115            0.00        0.00      320.86

     Energy error            =      3.5E-01 Ry
     Gradient error          =      1.6E-01 Ry/Bohr
     Cell gradient error     =      1.8E+02 kbar

     number of scf cycles    =   2
     number of bfgs steps    =   1

     enthalpy           old  =    -128.4998426700 Ry
     enthalpy           new  =    -128.8505609536 Ry

     CASE: enthalpy          _new < enthalpy          _old

     new trust radius        =       0.2976689759 bohr
ibrav =      5
 celldm(1) =     32.78024590
 celldm(4) =      0.98980241
Input lattice vectors:
     0.06380686    -0.03683891     0.89053771
     0.00000000     0.07367782     0.89053771
    -0.06380686    -0.03683891     0.89053771
New lattice vectors in INITIAL alat:
     0.06380686    -0.03683891     0.89053771
     0.00000000     0.07367782     0.89053771
    -0.06380686    -0.03683891     0.89053771
New lattice vectors in NEW alat (for information only):
     0.07140585    -0.04122619     0.99659501
     0.00000000     0.08245237     0.99659501
    -0.07140585    -0.04122619     0.99659501
Discrepancy in bohr =     0.000000    0.000000    0.000000
     new conv_thr            =       0.0000000100 Ry

     new unit-cell volume =    620.03120 a.u.^3 (    91.87914 Ang^3 )
     density =      2.01874 g/cm^3

CELL_PARAMETERS (alat= 36.68416188)
   0.063806864  -0.036838910   0.890537706
   0.000000000   0.073677820   0.890537706
  -0.063806864  -0.036838910   0.890537706

ATOMIC_POSITIONS (crystal)
Li               0.0177199337        0.0177199337        0.0177199337
Li               0.9822800663        0.9822800663        0.9822800663
Li               0.2329344148        0.2329344148        0.2329344148
Li               0.7670655852        0.7670655852        0.7670655852
Li               0.3741281732        0.3741281732        0.3741281732
Li               0.6258718268        0.6258718268        0.6258718268
Li               0.4119281044        0.4119281044        0.4119281044
Li               0.5880718956        0.5880718956        0.5880718956
Si               0.1940083709        0.1940083709        0.1940083709
Si               0.8059916291        0.8059916291        0.8059916291



     Writing config-only to output data dir ./output/LiSi.save/ :
     XML data file
     NEW-OLD atomic charge density approx. for the potential

     total cpu time spent up to now is      334.4 secs

     per-process dynamical memory:    69.3 Mb

     Self-consistent Calculation

     iteration #  1     ecut=    70.00 Ry     beta= 0.80
     Davidson diagonalization with overlap
     c_bands:  1 eigenvalues not converged
     ethr =  1.00E-06,  avg # of iterations = 12.7

     total cpu time spent up to now is      359.3 secs

     total energy              =    -131.06457324 Ry
     estimated scf accuracy    <       0.14907253 Ry

     iteration #  2     ecut=    70.00 Ry     beta= 0.80
     Davidson diagonalization with overlap
     ethr =  4.66E-04,  avg # of iterations =  7.0

     total cpu time spent up to now is      372.3 secs

     total energy              =    -129.51063443 Ry
     estimated scf accuracy    <      68.07328224 Ry

     iteration #  3     ecut=    70.00 Ry     beta= 0.80
     Davidson diagonalization with overlap
     ethr =  4.66E-04,  avg # of iterations =  7.4

     total cpu time spent up to now is      386.1 secs

     total energy              =    -131.15475249 Ry
     estimated scf accuracy    <       0.10701671 Ry

     iteration #  4     ecut=    70.00 Ry     beta= 0.80
     Davidson diagonalization with overlap
     ethr =  3.34E-04,  avg # of iterations =  2.3

     total cpu time spent up to now is      394.7 secs

     total energy              =    -131.16339759 Ry
     estimated scf accuracy    <       0.24230223 Ry

     iteration #  5     ecut=    70.00 Ry     beta= 0.80
     Davidson diagonalization with overlap
     ethr =  3.34E-04,  avg # of iterations =  1.7

     total cpu time spent up to now is      402.5 secs

     total energy              =    -131.18097134 Ry
     estimated scf accuracy    <       0.00786317 Ry

     iteration #  6     ecut=    70.00 Ry     beta= 0.80
     Davidson diagonalization with overlap
     ethr =  2.46E-05,  avg # of iterations =  2.7

     total cpu time spent up to now is      410.6 secs

     total energy              =    -131.18158063 Ry
     estimated scf accuracy    <       0.00101215 Ry

     iteration #  7     ecut=    70.00 Ry     beta= 0.80
     Davidson diagonalization with overlap
     ethr =  3.16E-06,  avg # of iterations =  3.4

     total cpu time spent up to now is      418.8 secs

     total energy              =    -131.18163976 Ry
     estimated scf accuracy    <       0.00008681 Ry

     iteration #  8     ecut=    70.00 Ry     beta= 0.80
     Davidson diagonalization with overlap
     ethr =  2.71E-07,  avg # of iterations =  1.8

     total cpu time spent up to now is      426.5 secs

     total energy              =    -131.18164587 Ry
     estimated scf accuracy    <       0.00000619 Ry

     iteration #  9     ecut=    70.00 Ry     beta= 0.80
     Davidson diagonalization with overlap
     ethr =  1.93E-08,  avg # of iterations =  2.7

     total cpu time spent up to now is      434.9 secs

     total energy              =    -131.18164709 Ry
     estimated scf accuracy    <       0.00000355 Ry

     iteration # 10     ecut=    70.00 Ry     beta= 0.80
     Davidson diagonalization with overlap
     ethr =  1.11E-08,  avg # of iterations =  1.0

     total cpu time spent up to now is      442.5 secs

     total energy              =    -131.18164719 Ry
     estimated scf accuracy    <       0.00000021 Ry

     iteration # 11     ecut=    70.00 Ry     beta= 0.80
     Davidson diagonalization with overlap
     ethr =  6.46E-10,  avg # of iterations =  2.6

     total cpu time spent up to now is      450.7 secs

     End of self-consistent calculation

          k = 0.0000 0.0000 0.0000 (  6013 PWs)   bands (ev):

   -40.0549 -40.0471 -39.9371 -39.7930 -39.1180 -39.0467 -38.9929 -38.9062
    -6.5136  -5.3235   0.7370   3.2267   3.4323   4.0207   4.0231   6.5692
     6.8858   8.6481   9.4466  12.2199

          k =-1.1194-0.6463 0.0535 (  5989 PWs)   bands (ev):

   -39.9900 -39.9820 -39.8776 -39.7351 -39.1341 -39.0673 -39.0134 -38.9246
    -5.8771  -4.6962   1.3008   3.4667   3.7213   4.3268   4.4890   6.7543
     7.1364   8.9412   9.8397  12.5190

          k =-2.2389-1.2926 0.1069 (  6044 PWs)   bands (ev):

   -39.8244 -39.8162 -39.7280 -39.5902 -39.1912 -39.1340 -39.0774 -38.9842
    -3.9835  -2.8340   2.9501   4.1576   4.5740   5.1458   5.8384   7.2599
     8.0056   8.7911   9.5668  10.0356

          k =-3.3583-1.9389 0.1604 (  6075 PWs)   bands (ev):

   -39.6458 -39.6373 -39.5730 -39.4435 -39.2816 -39.2251 -39.1637 -39.0699
    -0.8888   0.1781   3.4453   4.3909   5.0353   5.3396   5.9603   6.1810
     7.7731   7.9403   9.4858   9.9717

          k =-1.1194 0.6463 0.1069 (  5981 PWs)   bands (ev):

   -39.9900 -39.9820 -39.8776 -39.7351 -39.1341 -39.0673 -39.0133 -38.9246
    -5.8771  -4.6962   1.3008   3.4669   3.7208   4.3255   4.4912   6.7371
     7.1613   8.9119   9.8683  12.5038

          k =-2.2389 0.0000 0.1604 (  6020 PWs)   bands (ev):

   -39.8741 -39.8660 -39.7725 -39.6334 -39.1716 -39.1119 -39.0564 -38.9643
    -4.6120  -3.4512   2.4118   3.9571   4.2925   4.9318   5.3782   7.1307
     7.7494   9.4493  10.6295  11.9794

          k =-3.3583-0.6463 0.2139 (  6044 PWs)   bands (ev):

   -39.6940 -39.6854 -39.6134 -39.4806 -39.2531 -39.1986 -39.1379 -39.0435
    -2.1142  -1.0028   4.4875   4.9061   5.4922   5.9034   6.4500   7.0673
     7.3495   7.9641   9.2649  10.1860

          k = 3.3583 3.2316-0.1069 (  6042 PWs)   bands (ev):

   -39.5741 -39.5659 -39.5167 -39.4001 -39.3279 -39.2562 -39.2000 -39.1099
     1.3410   1.5520   2.5471   3.0119   5.6630   6.1326   6.5865   7.4796
     8.0867   8.5286   9.6858   9.8562

          k = 2.2389 2.5853-0.0535 (  6050 PWs)   bands (ev):

   -39.6940 -39.6854 -39.6134 -39.4806 -39.2531 -39.1986 -39.1379 -39.0435
    -2.1142  -1.0028   4.4833   4.9335   5.4026   6.0344   6.4423   6.9081
     7.3662   8.1874   8.9974  10.3499

          k = 1.1194 1.9389 0.0000 (  6022 PWs)   bands (ev):

   -39.8740 -39.8660 -39.7725 -39.6333 -39.1716 -39.1119 -39.0564 -38.9644
    -4.6120  -3.4512   2.4118   3.9627   4.2748   4.9850   5.3222   7.2600
     7.5917   9.5723  10.5160  11.9892

          k =-2.2389 1.2926 0.2139 (  6022 PWs)   bands (ev):

   -39.8244 -39.8161 -39.7280 -39.5902 -39.1912 -39.1340 -39.0773 -38.9842
    -3.9835  -2.8340   2.9499   4.1771   4.5140   5.2675   5.7180   7.4076
     7.8726   8.8074   9.5076  10.1497

          k =-3.3583 0.6463 0.2674 (  6054 PWs)   bands (ev):

   -39.6940 -39.6854 -39.6134 -39.4806 -39.2532 -39.1987 -39.1380 -39.0435
    -2.1142  -1.0028   4.4776   4.9788   5.3110   6.1664   6.4365   6.7872
     7.3513   8.4026   8.8015  10.3582

          k = 3.3583 4.5242-0.0535 (  6056 PWs)   bands (ev):

   -39.5326 -39.5251 -39.4882 -39.3921 -39.3588 -39.2623 -39.2198 -39.1344
     0.9357   1.9486   4.9604   5.2052   6.2063   6.2484   6.4535   6.9445
     7.1447   7.6221   8.5574   9.3984

          k = 2.2389 3.8779 0.0000 (  6050 PWs)   bands (ev):

   -39.5327 -39.5251 -39.4883 -39.3921 -39.3587 -39.2623 -39.2198 -39.1344
     0.9357   1.9486   4.9604   5.2054   6.1746   6.2486   6.5798   6.7980
     7.0953   8.0469   8.0765   9.9844

          k =-3.3583 1.9389 0.3208 (  6067 PWs)   bands (ev):

   -39.6458 -39.6373 -39.5730 -39.4435 -39.2815 -39.2250 -39.1637 -39.0699
    -0.8888   0.1781   3.4454   4.3875   5.0508   5.3881   5.7019   6.5723
     7.1812   8.6281   9.1284   9.8780

          k = 3.3583 5.8168 0.0000 (  6040 PWs)   bands (ev):

   -39.5741 -39.5659 -39.5166 -39.4002 -39.3280 -39.2562 -39.2000 -39.1099
     1.3410   1.5520   2.5471   3.0119   5.6769   6.0743   6.6806   7.4082
     7.9855   8.9629   9.0877   9.8563

          k = 0.0000 0.0000 0.1604 (  6016 PWs)   bands (ev):

   -40.0550 -40.0471 -39.9372 -39.7930 -39.1180 -39.0467 -38.9929 -38.9062
    -6.5136  -5.3235   0.7370   3.2215   3.4471   3.9286   4.1093   6.4833
     7.0091   8.5232   9.5553  12.1707

          k =-1.1194-0.6463 0.2139 (  5983 PWs)   bands (ev):

   -39.9900 -39.9820 -39.8776 -39.7351 -39.1341 -39.0673 -39.0134 -38.9246
    -5.8771  -4.6962   1.3008   3.4581   3.7498   4.2363   4.5714   6.6182
     7.3363   8.7418  10.0119  12.4243

          k =-2.2389-1.2926 0.2674 (  6036 PWs)   bands (ev):

   -39.8244 -39.8161 -39.7280 -39.5902 -39.1912 -39.1340 -39.0773 -38.9842
    -3.9835  -2.8340   2.9502   4.1468   4.6254   5.0526   5.9484   7.0794
     8.2027   8.8441   9.4730   9.8341

          k = 4.4778 2.5853-0.0535 (  6073 PWs)   bands (ev):

   -39.6458 -39.6373 -39.5730 -39.4434 -39.2816 -39.2250 -39.1637 -39.0699
    -0.8888   0.1781   3.4453   4.3908   5.0238   5.3997   5.7866   6.3569
     7.5287   8.1799   9.3472  10.2432

          k = 3.3583 1.9389 0.0000 (  6078 PWs)   bands (ev):

   -39.6458 -39.6373 -39.5731 -39.4435 -39.2816 -39.2251 -39.1637 -39.0699
    -0.8888   0.1781   3.4454   4.3898   5.0524   5.3091   5.9868   6.1801
     7.6246   8.1107   9.5923   9.7071

          k = 2.2389 1.2926 0.0535 (  6040 PWs)   bands (ev):

   -39.8244 -39.8162 -39.7280 -39.5902 -39.1912 -39.1340 -39.0774 -38.9842
    -3.9835  -2.8340   2.9500   4.1715   4.5276   5.2452   5.7323   7.4517
     7.8118   8.7845   9.5606  10.2421

          k =-1.1194 0.6463 0.2674 (  5979 PWs)   bands (ev):

   -39.9900 -39.9820 -39.8776 -39.7351 -39.1341 -39.0673 -39.0133 -38.9246
    -5.8771  -4.6962   1.3008   3.4586   3.7487   4.2352   4.5744   6.5981
     7.3785   8.6861  10.0627  12.3897

          k =-2.2389 0.0000 0.3208 (  6014 PWs)   bands (ev):

   -39.8741 -39.8660 -39.7726 -39.6334 -39.1716 -39.1119 -39.0564 -38.9643
    -4.6120  -3.4512   2.4119   3.9457   4.3356   4.8357   5.4787   6.9556
     8.0091   9.1959  10.8484  11.9506

          k = 4.4778 3.8779 0.0000 (  6053 PWs)   bands (ev):

   -39.6941 -39.6854 -39.6134 -39.4806 -39.2531 -39.1987 -39.1380 -39.0435
    -2.1142  -1.0028   4.4881   4.9009   5.5259   5.8525   6.4537   7.2040
     7.2709   7.8704   9.4451  10.0195

          k = 3.3583 3.2316 0.0535 (  6035 PWs)   bands (ev):

   -39.5741 -39.5659 -39.5166 -39.4001 -39.3280 -39.2562 -39.2000 -39.1099
     1.3410   1.5520   2.5471   3.0119   5.6677   6.1104   6.6204   7.4559
     8.0405   8.6439   9.4671   9.8564

          k = 2.2389 2.5853 0.1069 (  6054 PWs)   bands (ev):

   -39.6940 -39.6854 -39.6134 -39.4806 -39.2531 -39.1986 -39.1379 -39.0435
    -2.1142  -1.0028   4.4790   4.9677   5.3281   6.1551   6.4309   6.7893
     7.3627   8.4485   8.7320  10.4003

          k =-2.2389 1.2926 0.3743 (  6030 PWs)   bands (ev):

   -39.8244 -39.8161 -39.7280 -39.5902 -39.1912 -39.1340 -39.0773 -38.9842
    -3.9835  -2.8340   2.9499   4.1688   4.5416   5.1893   5.8157   7.2141
     8.0904   8.8695   9.3923   9.9576

          k = 4.4778 5.1705 0.0535 (  6052 PWs)   bands (ev):

   -39.6941 -39.6854 -39.6135 -39.4806 -39.2531 -39.1986 -39.1380 -39.0435
    -2.1142  -1.0028   4.4801   4.9539   5.3648   6.0622   6.4504   6.9165
     7.3310   8.1591   9.0929  10.2365

          k = 3.3583 4.5242 0.1069 (  6052 PWs)   bands (ev):

   -39.5326 -39.5251 -39.4882 -39.3919 -39.3588 -39.2623 -39.2197 -39.1344
     0.9357   1.9486   4.9604   5.2051   6.2344   6.2474   6.3949   6.9911
     7.2473   7.4366   8.8094   9.1338

          k = 2.2389 3.8779 0.1604 (  6049 PWs)   bands (ev):

   -39.5327 -39.5251 -39.4882 -39.3921 -39.3587 -39.2623 -39.2198 -39.1344
     0.9357   1.9486   4.9604   5.2054   6.1830   6.2486   6.5321   6.8543
     7.1039   7.8331   8.3044   9.6717

          k = 4.4778-2.5853-0.2674 (  6061 PWs)   bands (ev):

   -39.6457 -39.6373 -39.5730 -39.4435 -39.2816 -39.2249 -39.1637 -39.0699
    -0.8888   0.1781   3.4454   4.3881   5.0353   5.4931   5.5826   6.6535
     7.1178   8.6789   9.0328  10.0350

          k = 3.3583-3.2316-0.2139 (  6043 PWs)   bands (ev):

   -39.5741 -39.5659 -39.5166 -39.4002 -39.3280 -39.2562 -39.2000 -39.1099
     1.3410   1.5520   2.5471   3.0119   5.6740   6.0850   6.6620   7.4236
     7.9999   8.8144   9.2497   9.8564

          k = 3.3583-1.9389-0.1604 (  6071 PWs)   bands (ev):

   -39.6458 -39.6373 -39.5730 -39.4435 -39.2815 -39.2250 -39.1637 -39.0699
    -0.8888   0.1781   3.4454   4.3883   5.0599   5.3232   5.8388   6.3792
     7.3846   8.3844   9.3913   9.7466

          k = 0.0000 0.0000 0.3208 (  6005 PWs)   bands (ev):

   -40.0550 -40.0471 -39.9371 -39.7930 -39.1180 -39.0466 -38.9929 -38.9062
    -6.5136  -5.3235   0.7370   3.2115   3.4830   3.8427   4.1786   6.3667
     7.2339   8.2719   9.7505  12.0587

          k =-1.1194-0.6463 0.3743 (  5988 PWs)   bands (ev):

   -39.9900 -39.9820 -39.8776 -39.7351 -39.1341 -39.0673 -39.0133 -38.9246
    -5.8771  -4.6962   1.3008   3.4489   3.7895   4.1543   4.6387   6.5031
     7.5779   8.4766  10.2104  12.2879

          k = 5.5972 3.2316 0.0535 (  6039 PWs)   bands (ev):

   -39.8244 -39.8161 -39.7279 -39.5902 -39.1912 -39.1340 -39.0773 -38.9841
    -3.9835  -2.8340   2.9502   4.1457   4.6373   5.0275   5.9925   6.9981
     8.3003   8.9745   9.2494   9.7937

          k = 4.4778 2.5853 0.1069 (  6065 PWs)   bands (ev):

   -39.6458 -39.6373 -39.5730 -39.4434 -39.2815 -39.2249 -39.1637 -39.0699
    -0.8888   0.1781   3.4453   4.3895   5.0242   5.4813   5.6283   6.5358
     7.2804   8.4494   9.1852  10.2237

          k =-1.1194 0.6463 0.4278 (  5982 PWs)   bands (ev):

   -39.9900 -39.9820 -39.8776 -39.7351 -39.1341 -39.0673 -39.0133 -38.9246
    -5.8771  -4.6962   1.3008   3.4493   3.7886   4.1540   4.6407   6.4918
     7.6189   8.4266  10.2469  12.2590

          k = 5.5972 4.5242 0.1069 (  6018 PWs)   bands (ev):

   -39.8741 -39.8660 -39.7726 -39.6334 -39.1716 -39.1119 -39.0564 -38.9643
    -4.6120  -3.4512   2.4119   3.9375   4.3762   4.7647   5.5496   6.8477
     8.2318   8.9667  11.0149  11.9139

          k = 4.4778 3.8779 0.1604 (  6047 PWs)   bands (ev):

   -39.6941 -39.6854 -39.6134 -39.4806 -39.2531 -39.1986 -39.1380 -39.0435
    -2.1142  -1.0028   4.4848   4.9200   5.4563   5.9331   6.4545   7.1014
     7.2915   7.9581   9.3566  10.0693

          k = 5.5972-3.2316-0.2139 (  6030 PWs)   bands (ev):

   -39.8243 -39.8161 -39.7279 -39.5902 -39.1912 -39.1340 -39.0773 -38.9841
    -3.9835  -2.8340   2.9501   4.1548   4.5950   5.0887   5.9345   7.0549
     8.2570   8.9958   9.2114   9.8384

          k = 0.0000-0.0000 0.4813 (  6017 PWs)   bands (ev):

   -40.0550 -40.0471 -39.9371 -39.7930 -39.1181 -39.0468 -38.9930 -38.9062
    -6.5136  -5.3235   0.7370   3.2045   3.5174   3.7839   4.2174   6.2993
     7.4436   8.0407   9.8861  11.9658

          k = 6.7167 3.8779 0.1604 (  5981 PWs)   bands (ev):

   -39.9900 -39.9820 -39.8776 -39.7351 -39.1341 -39.0673 -39.0133 -38.9246
    -5.8771  -4.6962   1.3008   3.4453   3.8100   4.1191   4.6647   6.4569
     7.7351   8.3054  10.3088  12.2117

     the Fermi energy is     7.2371 ev

!    total energy              =    -131.18164722 Ry
     estimated scf accuracy    <          1.4E-09 Ry
     smearing contrib. (-TS)   =      -0.00145497 Ry
     internal energy E=F+TS    =    -131.18019225 Ry

     The total energy is F=E-TS. E is the sum of the following terms:
     one-electron contribution =     -56.90014129 Ry
     hartree contribution      =      28.69445038 Ry
     xc contribution           =     -34.41745299 Ry
     ewald contribution        =     -68.55704836 Ry

     convergence has been achieved in  11 iterations

     Forces acting on atoms (cartesian axes, Ry/au):

     atom    1 type  1   force =     0.00000000   -0.00000000   -0.08374171
     atom    2 type  1   force =     0.00000000    0.00000000    0.08374171
     atom    3 type  1   force =    -0.00000000    0.00000000   -0.01761147
     atom    4 type  1   force =    -0.00000000    0.00000000    0.01761147
     atom    5 type  1   force =     0.00000000   -0.00000000    0.09873874
     atom    6 type  1   force =     0.00000000   -0.00000000   -0.09873874
     atom    7 type  1   force =    -0.00000000    0.00000000   -0.10138914
     atom    8 type  1   force =    -0.00000000   -0.00000000    0.10138914
     atom    9 type  2   force =    -0.00000000    0.00000000   -0.11731245
     atom   10 type  2   force =    -0.00000000    0.00000000    0.11731245

     Total force =     0.286755     Total SCF correction =     0.000086


     Computing stress (Cartesian axis) and pressure

          total   stress  (Ry/bohr**3)                   (kbar)     P=      464.43
   0.00297880   0.00000000  -0.00000000          438.20        0.00       -0.00
   0.00000000   0.00297880   0.00000000            0.00      438.20        0.00
  -0.00000000   0.00000000   0.00351375           -0.00        0.00      516.89

     Energy error            =      2.2E-01 Ry
     Gradient error          =      1.2E-01 Ry/Bohr
     Cell gradient error     =      6.2E+01 kbar

     number of scf cycles    =   3
     number of bfgs steps    =   2

     enthalpy           old  =    -128.8505609536 Ry
     enthalpy           new  =    -129.0742040086 Ry

     CASE: enthalpy          _new < enthalpy          _old

     new trust radius        =       0.2567437900 bohr
ibrav =      5
 celldm(1) =     31.79484471
 celldm(4) =      0.98908641
Input lattice vectors:
     0.06402460    -0.03696462     0.86355982
     0.00000000     0.07392924     0.86355982
    -0.06402460    -0.03696462     0.86355982
New lattice vectors in INITIAL alat:
     0.06402460    -0.03696462     0.86355982
     0.00000000     0.07392924     0.86355982
    -0.06402460    -0.03696462     0.86355982
New lattice vectors in NEW alat (for information only):
     0.07387011    -0.04264893     0.99635550
     0.00000000     0.08529786     0.99635550
    -0.07387011    -0.04264893     0.99635550
Discrepancy in bohr =     0.000000    0.000000    0.000000
     new conv_thr            =       0.0000000100 Ry

     new unit-cell volume =    605.35845 a.u.^3 (    89.70487 Ang^3 )
     density =      2.06768 g/cm^3

CELL_PARAMETERS (alat= 36.68416188)
   0.064024600  -0.036964620   0.863559822
   0.000000000   0.073929240   0.863559822
  -0.064024600  -0.036964620   0.863559822

ATOMIC_POSITIONS (crystal)
Li               0.0153688065        0.0153688065        0.0153688065
Li               0.9846311935        0.9846311935        0.9846311935
Li               0.2317961541        0.2317961541        0.2317961541
Li               0.7682038459        0.7682038459        0.7682038459
Li               0.3767192556        0.3767192556        0.3767192556
Li               0.6232807444        0.6232807444        0.6232807444
Li               0.4093084272        0.4093084272        0.4093084272
Li               0.5906915728        0.5906915728        0.5906915728
Si               0.1920677305        0.1920677305        0.1920677305
Si               0.8079322695        0.8079322695        0.8079322695



     Writing config-only to output data dir ./output/LiSi.save/ :
     XML data file
     NEW-OLD atomic charge density approx. for the potential

     total cpu time spent up to now is      451.7 secs

     per-process dynamical memory:    69.3 Mb

     Self-consistent Calculation

     iteration #  1     ecut=    70.00 Ry     beta= 0.80
     Davidson diagonalization with overlap
     ethr =  1.00E-06,  avg # of iterations = 12.0

     total cpu time spent up to now is      476.5 secs

     total energy              =    -131.08689811 Ry
     estimated scf accuracy    <       0.19340367 Ry

     iteration #  2     ecut=    70.00 Ry     beta= 0.80
     Davidson diagonalization with overlap
     ethr =  6.04E-04,  avg # of iterations =  7.5

     total cpu time spent up to now is      489.6 secs

     total energy              =    -129.45710484 Ry
     estimated scf accuracy    <      71.41069023 Ry

     iteration #  3     ecut=    70.00 Ry     beta= 0.80
     Davidson diagonalization with overlap
     ethr =  6.04E-04,  avg # of iterations =  7.3

     total cpu time spent up to now is      503.2 secs

     total energy              =    -131.18954959 Ry
     estimated scf accuracy    <       0.49923950 Ry

     iteration #  4     ecut=    70.00 Ry     beta= 0.80
     Davidson diagonalization with overlap
     ethr =  6.04E-04,  avg # of iterations =  2.3

     total cpu time spent up to now is      511.9 secs

     total energy              =    -131.24185901 Ry
     estimated scf accuracy    <       0.04654276 Ry

     iteration #  5     ecut=    70.00 Ry     beta= 0.80
     Davidson diagonalization with overlap
     ethr =  1.45E-04,  avg # of iterations =  2.1

     total cpu time spent up to now is      519.9 secs

     total energy              =    -131.24895847 Ry
     estimated scf accuracy    <       0.00741063 Ry

     iteration #  6     ecut=    70.00 Ry     beta= 0.80
     Davidson diagonalization with overlap
     ethr =  2.32E-05,  avg # of iterations =  2.6

     total cpu time spent up to now is      528.1 secs

     total energy              =    -131.24958987 Ry
     estimated scf accuracy    <       0.00027319 Ry

     iteration #  7     ecut=    70.00 Ry     beta= 0.80
     Davidson diagonalization with overlap
     ethr =  8.54E-07,  avg # of iterations =  4.1

     total cpu time spent up to now is      537.2 secs

     total energy              =    -131.24962772 Ry
     estimated scf accuracy    <       0.00001707 Ry

     iteration #  8     ecut=    70.00 Ry     beta= 0.80
     Davidson diagonalization with overlap
     ethr =  5.33E-08,  avg # of iterations =  2.5

     total cpu time spent up to now is      545.5 secs

     total energy              =    -131.24963009 Ry
     estimated scf accuracy    <       0.00000974 Ry

     iteration #  9     ecut=    70.00 Ry     beta= 0.80
     Davidson diagonalization with overlap
     ethr =  3.04E-08,  avg # of iterations =  1.4

     total cpu time spent up to now is      553.2 secs

     total energy              =    -131.24963089 Ry
     estimated scf accuracy    <       0.00000124 Ry

     iteration # 10     ecut=    70.00 Ry     beta= 0.80
     Davidson diagonalization with overlap
     ethr =  3.89E-09,  avg # of iterations =  1.5

     total cpu time spent up to now is      561.0 secs

     total energy              =    -131.24963097 Ry
     estimated scf accuracy    <       0.00000003 Ry

     iteration # 11     ecut=    70.00 Ry     beta= 0.80
     Davidson diagonalization with overlap
     ethr =  1.08E-10,  avg # of iterations =  3.6

     total cpu time spent up to now is      570.0 secs

     total energy              =    -131.24963098 Ry
     estimated scf accuracy    <       0.00000002 Ry

     iteration # 12     ecut=    70.00 Ry     beta= 0.80
     Davidson diagonalization with overlap
     ethr =  5.20E-11,  avg # of iterations =  1.0

     total cpu time spent up to now is      577.6 secs

     End of self-consistent calculation

          k = 0.0000 0.0000 0.0000 (  6013 PWs)   bands (ev):

   -39.8052 -39.6345 -39.5466 -39.1575 -39.0328 -38.7518 -38.6417 -38.5471
    -6.8048  -4.8978   0.7585   3.4795   3.8001   4.6616   4.8202   6.5587
     7.0944   8.9130   9.8591  12.9224

          k =-1.1156-0.6441 0.0551 (  5989 PWs)   bands (ev):

   -39.7632 -39.5913 -39.5111 -39.1168 -39.0161 -38.7483 -38.6468 -38.5521
    -6.1712  -4.2767   1.3155   3.6676   4.0208   4.8726   5.2297   6.8838
     7.4062   9.3003  10.3263  13.1767

          k =-2.2313-1.2882 0.1103 (  6044 PWs)   bands (ev):

   -39.6644 -39.4904 -39.4352 -39.0202 -38.9732 -38.7446 -38.6686 -38.5733
    -4.2851  -2.4328   2.9515   4.2665   4.7178   5.4932   6.4092   7.6821
     8.2772   8.6425   9.9296  10.6067

          k =-3.3469-1.9323 0.1654 (  6075 PWs)   bands (ev):

   -39.5777 -39.4036 -39.3808 -38.9316 -38.9225 -38.7411 -38.7024 -38.6069
    -1.1957   0.5385   3.1369   4.6975   5.1175   5.4111   6.0113   6.2696
     8.0178   8.5278   9.8332  10.4019

          k =-1.1156 0.6441 0.1103 (  5981 PWs)   bands (ev):

   -39.7632 -39.5913 -39.5111 -39.1168 -39.0161 -38.7483 -38.6468 -38.5521
    -6.1712  -4.2767   1.3156   3.6671   4.0227   4.8612   5.2448   6.8496
     7.4480   9.2656  10.3550  13.1652

          k =-2.2313 0.0000 0.1654 (  6020 PWs)   bands (ev):

   -39.6927 -39.5190 -39.4556 -39.0483 -38.9864 -38.7452 -38.6609 -38.5657
    -4.9113  -3.0439   2.4158   4.0839   4.4939   5.3150   6.0340   7.4466
     8.1552   9.9166  11.2108  11.7795

          k =-3.3469-0.6441 0.2206 (  6044 PWs)   bands (ev):

   -39.5979 -39.4235 -39.3919 -38.9529 -38.9360 -38.7421 -38.6919 -38.5965
    -2.4212  -0.6207   4.4922   4.9813   5.5528   6.0584   6.2371   7.5101
     7.6882   8.5139   9.6725  10.3652

          k = 3.3469 3.2206-0.1103 (  6042 PWs)   bands (ev):

   -39.5520 -39.3786 -39.3675 -38.9046 -38.9022 -38.7368 -38.7157 -38.6204
     1.1160   1.2533   2.8129   3.3321   5.7652   6.2103   6.7218   7.6491
     7.9123   8.9630   9.6191  10.2165

          k = 2.2313 2.5765-0.0551 (  6050 PWs)   bands (ev):

   -39.5979 -39.4235 -39.3919 -38.9529 -38.9360 -38.7421 -38.6919 -38.5964
    -2.4212  -0.6207   4.4877   5.0119   5.4767   6.1101   6.2777   7.4069
     7.6506   8.7873   9.4200  10.3066

          k = 1.1156 1.9323 0.0000 (  6022 PWs)   bands (ev):

   -39.6927 -39.5190 -39.4556 -39.0482 -38.9864 -38.7452 -38.6609 -38.5657
    -4.9113  -3.0439   2.4158   4.0897   4.4762   5.3648   5.9633   7.6373
     7.9502  10.0269  11.1274  11.7819

          k =-2.2313 1.2882 0.2206 (  6022 PWs)   bands (ev):

   -39.6644 -39.4903 -39.4352 -39.0202 -38.9732 -38.7445 -38.6686 -38.5733
    -4.2851  -2.4328   2.9513   4.2795   4.6827   5.5543   6.3402   7.7437
     8.2203   8.7196   9.8066  10.6372

          k =-3.3469 0.6441 0.2757 (  6054 PWs)   bands (ev):

   -39.5979 -39.4235 -39.3920 -38.9529 -38.9361 -38.7421 -38.6919 -38.5964
    -2.4212  -0.6207   4.4840   5.0417   5.4207   6.1284   6.3195   7.3361
     7.6666   8.8446   9.4057  10.2645

          k = 3.3469 4.5088-0.0551 (  6056 PWs)   bands (ev):

   -39.5406 -39.3677 -39.3621 -38.8931 -38.8924 -38.7345 -38.7228 -38.6277
     0.6283   2.2844   4.7111   4.9701   6.3668   6.4627   6.6005   7.1318
     7.2833   7.7847   8.9712   9.7800

          k = 2.2313 3.8647 0.0000 (  6050 PWs)   bands (ev):

   -39.5406 -39.3677 -39.3621 -38.8932 -38.8924 -38.7345 -38.7228 -38.6278
     0.6283   2.2844   4.7111   4.9701   6.3227   6.4630   6.8059   6.8973
     7.2439   8.0555   8.6473  10.2170

          k =-3.3469 1.9323 0.3309 (  6067 PWs)   bands (ev):

   -39.5776 -39.4036 -39.3808 -38.9317 -38.9224 -38.7410 -38.7024 -38.6069
    -1.1957   0.5385   3.1369   4.6875   5.1440   5.4847   5.7307   6.5780
     7.6396   8.9741   9.7075  10.2720

          k = 3.3469 5.7970 0.0000 (  6040 PWs)   bands (ev):

   -39.5520 -39.3787 -39.3676 -38.9046 -38.9023 -38.7369 -38.7157 -38.6204
     1.1160   1.2533   2.8129   3.3321   5.7833   6.1466   6.8192   7.6062
     7.8333   9.2485   9.5041   9.8427

          k = 0.0000 0.0000 0.1654 (  6016 PWs)   bands (ev):

   -39.8052 -39.6345 -39.5466 -39.1575 -39.0328 -38.7518 -38.6417 -38.5472
    -6.8048  -4.8978   0.7585   3.4744   3.8164   4.5664   4.9262   6.4494
     7.2249   8.8087   9.9346  12.8973

          k =-1.1156-0.6441 0.2206 (  5983 PWs)   bands (ev):

   -39.7632 -39.5913 -39.5111 -39.1168 -39.0161 -38.7483 -38.6468 -38.5521
    -6.1712  -4.2767   1.3156   3.6591   4.0494   4.7706   5.3574   6.6917
     7.6295   9.1269  10.4514  13.1303

          k =-2.2313-1.2882 0.2757 (  6036 PWs)   bands (ev):

   -39.6644 -39.4903 -39.4351 -39.0202 -38.9732 -38.7446 -38.6685 -38.5733
    -4.2851  -2.4328   2.9516   4.2531   4.7659   5.4024   6.5738   7.4203
     8.3261   8.8626   9.9358  10.3076

          k = 4.4626 2.5765-0.0551 (  6073 PWs)   bands (ev):

   -39.5776 -39.4036 -39.3808 -38.9316 -38.9225 -38.7411 -38.7023 -38.6069
    -1.1957   0.5385   3.1369   4.6986   5.1002   5.4651   5.8960   6.3623
     7.9830   8.5358   9.8075  10.6068

          k = 3.3469 1.9323 0.0000 (  6078 PWs)   bands (ev):

   -39.5777 -39.4037 -39.3808 -38.9316 -38.9225 -38.7411 -38.7023 -38.6070
    -1.1957   0.5385   3.1370   4.6929   5.1450   5.3841   5.9673   6.3411
     7.8791   8.7086   9.8288  10.2387

          k = 2.2313 1.2882 0.0551 (  6040 PWs)   bands (ev):

   -39.6644 -39.4904 -39.4352 -39.0202 -38.9732 -38.7446 -38.6686 -38.5733
    -4.2851  -2.4328   2.9513   4.2789   4.6823   5.5651   6.3106   7.8790
     8.1596   8.5896   9.8815  10.7804

          k =-1.1156 0.6441 0.2757 (  5979 PWs)   bands (ev):

   -39.7632 -39.5913 -39.5111 -39.1168 -39.0161 -38.7483 -38.6468 -38.5521
    -6.1712  -4.2767   1.3156   3.6581   4.0539   4.7542   5.3838   6.6436
     7.6999   9.0538  10.5044  13.1037

          k =-2.2313-0.0000 0.3309 (  6014 PWs)   bands (ev):

   -39.6927 -39.5190 -39.4556 -39.0483 -38.9864 -38.7452 -38.6608 -38.5656
    -4.9113  -3.0439   2.4159   4.0718   4.5357   5.2193   6.1908   7.1837
     8.4601   9.6707  11.3727  11.7721

          k = 4.4626 3.8647 0.0000 (  6053 PWs)   bands (ev):

   -39.5980 -39.4236 -39.3920 -38.9529 -38.9361 -38.7421 -38.6919 -38.5964
    -2.4212  -0.6207   4.4941   4.9693   5.5934   6.0197   6.2254   7.5383
     7.7783   8.3307   9.8403  10.4554

          k = 3.3469 3.2206 0.0551 (  6035 PWs)   bands (ev):

   -39.5520 -39.3786 -39.3676 -38.9046 -38.9022 -38.7368 -38.7157 -38.6204
     1.1160   1.2533   2.8129   3.3321   5.7713   6.1864   6.7569   7.6369
     7.8802   9.0439   9.6021  10.0332

          k = 2.2313 2.5765 0.1103 (  6054 PWs)   bands (ev):

   -39.5979 -39.4235 -39.3919 -38.9529 -38.9360 -38.7421 -38.6919 -38.5964
    -2.4212  -0.6207   4.4842   5.0414   5.4196   6.1309   6.3233   7.3260
     7.6511   9.0800   9.1476  10.2765

          k =-2.2313 1.2882 0.3860 (  6030 PWs)   bands (ev):

   -39.6644 -39.4903 -39.4352 -39.0203 -38.9732 -38.7446 -38.6686 -38.5733
    -4.2851  -2.4328   2.9514   4.2676   4.7190   5.4735   6.4824   7.4931
     8.2880   8.9834   9.6911  10.4158

          k = 4.4626 5.1529 0.0551 (  6052 PWs)   bands (ev):

   -39.5979 -39.4235 -39.3919 -38.9529 -38.9361 -38.7421 -38.6919 -38.5964
[...]

     total energy              =    -131.32492347 Ry
     estimated scf accuracy    <       2.45175696 Ry

     iteration #  6     ecut=    70.00 Ry     beta= 0.80
     Davidson diagonalization with overlap
     ethr =  7.66E-03,  avg # of iterations =  1.1

     total cpu time spent up to now is     2951.3 secs

     total energy              =    -131.46294008 Ry
     estimated scf accuracy    <       0.06753138 Ry

     iteration #  7     ecut=    70.00 Ry     beta= 0.80
     Davidson diagonalization with overlap
     ethr =  2.11E-04,  avg # of iterations =  2.4

     total cpu time spent up to now is     2963.0 secs

     total energy              =    -131.46682981 Ry
     estimated scf accuracy    <       0.36726697 Ry

     iteration #  8     ecut=    70.00 Ry     beta= 0.80
     Davidson diagonalization with overlap
     ethr =  2.11E-04,  avg # of iterations =  1.1

     total cpu time spent up to now is     2973.6 secs

     total energy              =    -131.47190245 Ry
     estimated scf accuracy    <       0.02925685 Ry

     iteration #  9     ecut=    70.00 Ry     beta= 0.80
     Davidson diagonalization with overlap
     ethr =  9.14E-05,  avg # of iterations =  1.1

     total cpu time spent up to now is     2984.2 secs

     total energy              =    -131.46676496 Ry
     estimated scf accuracy    <       0.09781984 Ry

     iteration # 10     ecut=    70.00 Ry     beta= 0.80
     Davidson diagonalization with overlap
     ethr =  9.14E-05,  avg # of iterations =  2.0

     total cpu time spent up to now is     2995.2 secs

     total energy              =    -131.47036711 Ry
     estimated scf accuracy    <       0.11140417 Ry

     iteration # 11     ecut=    70.00 Ry     beta= 0.80
     Davidson diagonalization with overlap
     ethr =  9.14E-05,  avg # of iterations =  1.0

     total cpu time spent up to now is     3005.9 secs

     total energy              =    -131.47125331 Ry
     estimated scf accuracy    <       0.01255311 Ry

     iteration # 12     ecut=    70.00 Ry     beta= 0.80
     Davidson diagonalization with overlap
     ethr =  3.92E-05,  avg # of iterations =  1.2

     total cpu time spent up to now is     3016.7 secs

     total energy              =    -131.47054040 Ry
     estimated scf accuracy    <       0.02902798 Ry

     iteration # 13     ecut=    70.00 Ry     beta= 0.80
     Davidson diagonalization with overlap
     ethr =  3.92E-05,  avg # of iterations =  1.0

     total cpu time spent up to now is     3027.3 secs

     total energy              =    -131.47082068 Ry
     estimated scf accuracy    <       0.00093283 Ry

     iteration # 14     ecut=    70.00 Ry     beta= 0.80
     Davidson diagonalization with overlap
     ethr =  2.92E-06,  avg # of iterations =  3.6

     total cpu time spent up to now is     3038.7 secs

     total energy              =    -131.47083632 Ry
     estimated scf accuracy    <       0.00000550 Ry

     iteration # 15     ecut=    70.00 Ry     beta= 0.80
     Davidson diagonalization with overlap
     ethr =  1.72E-08,  avg # of iterations =  3.5

     total cpu time spent up to now is     3050.6 secs

     total energy              =    -131.47083708 Ry
     estimated scf accuracy    <       0.00000057 Ry

     iteration # 16     ecut=    70.00 Ry     beta= 0.80
     Davidson diagonalization with overlap
     ethr =  1.78E-09,  avg # of iterations =  2.0

     total cpu time spent up to now is     3061.6 secs

     total energy              =    -131.47083705 Ry
     estimated scf accuracy    <       0.00000054 Ry

     iteration # 17     ecut=    70.00 Ry     beta= 0.80
     Davidson diagonalization with overlap
     ethr =  1.67E-09,  avg # of iterations =  1.0

     total cpu time spent up to now is     3072.2 secs

     total energy              =    -131.47083707 Ry
     estimated scf accuracy    <          6.5E-09 Ry

     iteration # 18     ecut=    70.00 Ry     beta= 0.80
     Davidson diagonalization with overlap
     ethr =  2.04E-11,  avg # of iterations =  3.7

     total cpu time spent up to now is     3084.4 secs

     total energy              =    -131.47083708 Ry
     estimated scf accuracy    <          8.3E-10 Ry

     iteration # 19     ecut=    70.00 Ry     beta= 0.80
     Davidson diagonalization with overlap
     ethr =  2.59E-12,  avg # of iterations =  2.2

     total cpu time spent up to now is     3096.2 secs

     total energy              =    -131.47083708 Ry
     estimated scf accuracy    <          4.0E-10 Ry

     iteration # 20     ecut=    70.00 Ry     beta= 0.80
     Davidson diagonalization with overlap
     ethr =  1.24E-12,  avg # of iterations =  1.2

     total cpu time spent up to now is     3106.9 secs

     End of self-consistent calculation

          k = 0.0000 0.0000 0.0000 (  6053 PWs)   bands (ev):

   -38.8068 -38.8067 -38.6271 -38.5904 -38.4835 -38.2960 -38.2508 -38.2283
    -9.8150  -6.6463  -1.0251   3.4013   3.5054   3.9792   3.9907   4.7740
     5.0187   5.8014   6.2183  10.2089

          k =-1.2096-0.6984 0.0461 (  6083 PWs)   bands (ev):

   -38.7604 -38.7604 -38.5754 -38.5429 -38.4431 -38.2547 -38.2122 -38.1928
    -9.0726  -5.9180  -0.3450   3.7268   3.8641   4.3485   4.4662   5.3174
     5.5327   6.4495   6.9220  10.6570

          k =-2.4192-1.3967 0.0922 (  6103 PWs)   bands (ev):

   -38.6556 -38.6556 -38.4562 -38.4350 -38.3537 -38.1605 -38.1249 -38.1130
    -6.8705  -3.7720   1.6792   4.7291   4.9416   5.4632   5.8208   6.7218
     7.0220   7.9366   8.6180   8.9612

          k =-3.6288-2.0951 0.1383 (  6106 PWs)   bands (ev):

   -38.5710 -38.5710 -38.3558 -38.3473 -38.2854 -38.0833 -38.0542 -38.0500
    -3.3018  -0.5240   2.0769   4.7214   5.0847   6.1984   6.5279   6.9439
     7.8328   8.3683   9.3439  10.1094

          k =-1.2096 0.6984 0.0922 (  6084 PWs)   bands (ev):

   -38.7604 -38.7604 -38.5754 -38.5429 -38.4431 -38.2547 -38.2122 -38.1927
    -9.0726  -5.9180  -0.3450   3.7255   3.8676   4.3266   4.4920   5.2845
     5.5663   6.4364   6.9285  10.6560

          k =-2.4192 0.0000 0.1383 (  6072 PWs)   bands (ev):

   -38.6848 -38.6848 -38.4899 -38.4651 -38.3782 -38.1868 -38.1492 -38.1350
    -7.6002  -4.4798   1.0089   4.4071   4.6013   5.0926   5.4206   6.2564
     6.6563   7.6614   8.3121  11.1198

          k =-3.6288-0.6984 0.1844 (  6109 PWs)   bands (ev):

   -38.5901 -38.5901 -38.3792 -38.3671 -38.2999 -38.1009 -38.0700 -38.0638
    -4.7083  -1.7005   3.6557   5.2585   5.8218   6.1050   6.5911   7.2744
     7.7442   8.0116   8.7912   9.6881

          k = 3.6288 3.4919-0.0922 (  6088 PWs)   bands (ev):

   -38.5479 -38.5478 -38.3272 -38.3231 -38.2673 -38.0618 -38.0345 -38.0326
    -0.8127  -0.4024   2.3598   3.2323   7.0569   7.2939   7.3950   7.6629
     8.0811   9.1344   9.6149  10.1278

          k = 2.4192 2.7935-0.0461 (  6111 PWs)   bands (ev):

   -38.5901 -38.5901 -38.3792 -38.3671 -38.2999 -38.1009 -38.0700 -38.0638
    -4.7083  -1.7005   3.6557   5.2585   5.8313   6.0749   6.6583   7.1644
     7.7478   8.2137   8.5745   9.8103

          k = 1.2096 2.0951 0.0000 (  6066 PWs)   bands (ev):

   -38.6848 -38.6848 -38.4899 -38.4651 -38.3782 -38.1868 -38.1492 -38.1350
    -7.6002  -4.4798   1.0089   4.4118   4.5880   5.1463   5.3511   6.4234
     6.4861   7.7177   8.2807  11.1242

          k =-2.4192 1.3967 0.1844 (  6099 PWs)   bands (ev):

   -38.6556 -38.6556 -38.4562 -38.4350 -38.3537 -38.1605 -38.1249 -38.1130
    -6.8705  -3.7720   1.6791   4.7304   4.9395   5.4577   5.8413   6.6370
     7.1287   7.8966   8.5696   9.0213

          k =-3.6288 0.6984 0.2306 (  6095 PWs)   bands (ev):

   -38.5901 -38.5901 -38.3792 -38.3671 -38.2999 -38.1009 -38.0700 -38.0638
    -4.7083  -1.7005   3.6557   5.2585   5.8313   6.0768   6.6425   7.2083
     7.7268   8.1059   8.7380   9.6967

          k = 3.6288 4.8886-0.0461 (  6072 PWs)   bands (ev):

   -38.5377 -38.5377 -38.3148 -38.3125 -38.2592 -38.0523 -38.0258 -38.0248
    -1.2188   1.3734   3.3330   4.1928   6.9248   7.0057   7.8915   8.0049
     8.2386   8.7139   9.5938  10.1840

          k = 2.4192 4.1902 0.0000 (  6070 PWs)   bands (ev):

   -38.5377 -38.5377 -38.3148 -38.3125 -38.2592 -38.0523 -38.0258 -38.0247
    -1.2188   1.3734   3.3330   4.1928   6.9246   7.0057   7.8996   8.0447
     8.1440   8.8359   9.4067  10.4234

          k =-3.6288 2.0951 0.2767 (  6111 PWs)   bands (ev):

   -38.5711 -38.5710 -38.3557 -38.3473 -38.2854 -38.0833 -38.0542 -38.0500
    -3.3018  -0.5240   2.0769   4.7214   5.0847   6.2247   6.4511   7.0682
     7.6488   8.5600   9.2504  10.1548

          k = 3.6288 6.2853 0.0000 (  6088 PWs)   bands (ev):

   -38.5479 -38.5478 -38.3272 -38.3231 -38.2673 -38.0618 -38.0345 -38.0326
    -0.8127  -0.4024   2.3598   3.2323   7.1322   7.1335   7.5013   7.7014
     7.9885   9.2699   9.5991   9.8245

          k = 0.0000 0.0000 0.1383 (  6044 PWs)   bands (ev):

   -38.8068 -38.8067 -38.6270 -38.5903 -38.4835 -38.2960 -38.2508 -38.2283
    -9.8150  -6.6463  -1.0251   3.3950   3.5204   3.8883   4.0918   4.7081
     5.0818   5.7740   6.2300  10.2079

          k =-1.2096-0.6984 0.1844 (  6087 PWs)   bands (ev):

   -38.7604 -38.7604 -38.5754 -38.5429 -38.4431 -38.2547 -38.2122 -38.1928
    -9.0726  -5.9180  -0.3450   3.7186   3.8870   4.2606   4.5755   5.1880
     5.6590   6.3921   6.9474  10.6537

          k =-2.4192-1.3967 0.2306 (  6090 PWs)   bands (ev):

   -38.6556 -38.6556 -38.4562 -38.4350 -38.3537 -38.1605 -38.1249 -38.1130
    -6.8705  -3.7720   1.6792   4.7200   4.9730   5.3820   5.9492   6.5253
     7.1896   7.9372   8.4804   9.0674

          k = 4.8385 2.7935-0.0461 (  6104 PWs)   bands (ev):

   -38.5710 -38.5710 -38.3557 -38.3473 -38.2854 -38.0833 -38.0542 -38.0500
    -3.3018  -0.5240   2.0769   4.7214   5.0847   6.1974   6.5361   6.9241
     7.9287   8.2309   9.4806  10.0792

          k = 3.6288 2.0951 0.0000 (  6118 PWs)   bands (ev):

   -38.5711 -38.5710 -38.3558 -38.3473 -38.2854 -38.0833 -38.0542 -38.0500
    -3.3018  -0.5240   2.0769   4.7214   5.0848   6.2076   6.4937   7.0042
     7.7158   8.5383   9.2001  10.1337

          k = 2.4192 1.3967 0.0461 (  6098 PWs)   bands (ev):

   -38.6556 -38.6556 -38.4562 -38.4350 -38.3537 -38.1605 -38.1249 -38.1130
    -6.8705  -3.7720   1.6792   4.7344   4.9274   5.5093   5.7652   6.8133
     6.9470   7.9208   8.6737   8.9225

          k =-1.2096 0.6984 0.2306 (  6083 PWs)   bands (ev):

   -38.7604 -38.7604 -38.5754 -38.5429 -38.4431 -38.2547 -38.2122 -38.1927
    -9.0726  -5.9180  -0.3450   3.7162   3.8953   4.2381   4.6102   5.1429
     5.7047   6.3616   6.9597  10.6514

          k =-2.4192-0.0000 0.2767 (  6080 PWs)   bands (ev):

   -38.6848 -38.6848 -38.4898 -38.4652 -38.3782 -38.1868 -38.1492 -38.1350
    -7.6002  -4.4798   1.0089   4.3978   4.6329   5.0102   5.5535   6.0691
     6.8491   7.5304   8.3710  11.1096

          k = 4.8385 4.1902 0.0000 (  6103 PWs)   bands (ev):

   -38.5901 -38.5901 -38.3792 -38.3671 -38.2999 -38.1009 -38.0700 -38.0638
    -4.7083  -1.7005   3.6557   5.2585   5.8150   6.1324   6.5368   7.4141
     7.6944   7.8682   9.0174   9.4973

          k = 3.6288 3.4919 0.0461 (  6095 PWs)   bands (ev):

   -38.5479 -38.5478 -38.3272 -38.3231 -38.2673 -38.0618 -38.0345 -38.0326
    -0.8127  -0.4024   2.3598   3.2323   7.0698   7.2377   7.4467   7.6727
     8.0506   9.1772   9.6119   9.9827

          k = 2.4192 2.7935 0.0922 (  6099 PWs)   bands (ev):

   -38.5901 -38.5901 -38.3792 -38.3671 -38.2999 -38.1009 -38.0700 -38.0638
    -4.7083  -1.7005   3.6557   5.2585   5.8360   6.0628   6.6848   7.1336
     7.7417   8.2817   8.5212   9.8136

          k =-2.4192 1.3967 0.3228 (  6096 PWs)   bands (ev):

   -38.6556 -38.6556 -38.4562 -38.4350 -38.3537 -38.1605 -38.1249 -38.1130
    -6.8705  -3.7720   1.6791   4.7213   4.9704   5.3785   5.9824   6.4532
     7.2892   7.8723   8.4485   9.1179

          k = 4.8385 5.5870 0.0461 (  6098 PWs)   bands (ev):

   -38.5901 -38.5901 -38.3792 -38.3671 -38.2999 -38.1009 -38.0700 -38.0638
    -4.7083  -1.7005   3.6557   5.2585   5.8218   6.1078   6.5755   7.3462
     7.6889   7.9433   8.9790   9.5116

          k = 3.6288 4.8886 0.0922 (  6072 PWs)   bands (ev):

   -38.5377 -38.5377 -38.3148 -38.3125 -38.2592 -38.0523 -38.0258 -38.0247
    -1.2188   1.3734   3.3330   4.1928   6.9249   7.0057   7.8866   7.9937
     8.2908   8.6462   9.7470  10.0129

          k = 2.4192 4.1902 0.1383 (  6073 PWs)   bands (ev):

   -38.5377 -38.5377 -38.3148 -38.3125 -38.2592 -38.0523 -38.0258 -38.0248
    -1.2188   1.3734   3.3330   4.1928   6.9247   7.0057   7.8972   8.0273
     8.1765   8.7964   9.4620  10.3472

          k = 4.8385-2.7935-0.2306 (  6115 PWs)   bands (ev):

   -38.5711 -38.5710 -38.3558 -38.3473 -38.2854 -38.0833 -38.0542 -38.0500
    -3.3018  -0.5240   2.0769   4.7214   5.0847   6.2172   6.4721   7.0203
     7.7431   8.4136   9.4175  10.1290

          k = 3.6288-3.4919-0.1844 (  6092 PWs)   bands (ev):

   -38.5479 -38.5478 -38.3272 -38.3231 -38.2673 -38.0618 -38.0345 -38.0326
    -0.8127  -0.4024   2.3598   3.2323   7.0953   7.1812   7.4871   7.6905
     8.0090   9.2381   9.6050   9.8693

          k = 3.6288-2.0951-0.1383 (  6114 PWs)   bands (ev):

   -38.5711 -38.5710 -38.3557 -38.3473 -38.2854 -38.0833 -38.0542 -38.0500
    -3.3018  -0.5240   2.0769   4.7214   5.0847   6.2197   6.4608   7.0614
     7.6401   8.6296   9.1437  10.1498

          k = 0.0000 0.0000 0.2767 (  6041 PWs)   bands (ev):

   -38.8068 -38.8067 -38.6270 -38.5903 -38.4835 -38.2960 -38.2508 -38.2283
    -9.8150  -6.6463  -1.0251   3.3841   3.5556   3.8050   4.2069   4.5867
     5.1898   5.7086   6.2533  10.2058

          k =-1.2096-0.6984 0.3228 (  6087 PWs)   bands (ev):

   -38.7604 -38.7603 -38.5754 -38.5429 -38.4431 -38.2547 -38.2122 -38.1927
    -9.0726  -5.9180  -0.3450   3.7093   3.9227   4.1828   4.7041   5.0377
     5.7949   6.2986   6.9795  10.6486

          k = 6.0481 3.4919 0.0461 (  6085 PWs)   bands (ev):

   -38.6556 -38.6556 -38.4562 -38.4350 -38.3537 -38.1605 -38.1249 -38.1130
    -6.8705  -3.7720   1.6792   4.7140   5.0007   5.3253   6.1021   6.3346
     7.3214   7.9114   8.3824   9.1436

          k = 4.8385 2.7935 0.0922 (  6109 PWs)   bands (ev):

   -38.5710 -38.5710 -38.3558 -38.3473 -38.2854 -38.0833 -38.0542 -38.0500
    -3.3018  -0.5240   2.0769   4.7214   5.0847   6.2051   6.5095   6.9584
     7.8735   8.2690   9.5223  10.0773

          k =-1.2096 0.6984 0.3689 (  6078 PWs)   bands (ev):

   -38.7604 -38.7604 -38.5754 -38.5429 -38.4431 -38.2547 -38.2122 -38.1927
    -9.0726  -5.9179  -0.3450   3.7078   3.9311   4.1676   4.7424   4.9936
     5.8317   6.2681   6.9879  10.6468

          k = 6.0481 4.8886 0.0922 (  6077 PWs)   bands (ev):

   -38.6848 -38.6848 -38.4898 -38.4651 -38.3782 -38.1868 -38.1492 -38.1350
    -7.6002  -4.4798   1.0089   4.3914   4.6622   4.9539   5.7026   5.8955
     7.0076   7.3950   8.4108  11.1014

          k = 4.8385 4.1902 0.1383 (  6103 PWs)   bands (ev):

   -38.5901 -38.5901 -38.3792 -38.3671 -38.2999 -38.1009 -38.0700 -38.0638
    -4.7083  -1.7005   3.6557   5.2585   5.8151   6.1340   6.5306   7.4859
     7.6156   7.8580   9.1655   9.3495

          k = 6.0481-3.4919-0.1844 (  6098 PWs)   bands (ev):

   -38.6556 -38.6556 -38.4562 -38.4350 -38.3537 -38.1605 -38.1249 -38.1130
    -6.8705  -3.7720   1.6792   4.7145   4.9995   5.3243   6.1456   6.2781
     7.3673   7.8737   8.3741   9.1626

          k = 0.0000 0.0000 0.4150 (  6023 PWs)   bands (ev):

   -38.8068 -38.8067 -38.6270 -38.5903 -38.4835 -38.2960 -38.2508 -38.2282
    -9.8150  -6.6462  -1.0251   3.3771   3.5922   3.7457   4.3293   4.4571
     5.2735   5.6459   6.2696  10.2041

          k = 7.2577 4.1902 0.1383 (  6087 PWs)   bands (ev):

   -38.7604 -38.7604 -38.5754 -38.5429 -38.4431 -38.2547 -38.2122 -38.1927
    -9.0726  -5.9180  -0.3450   3.7051   3.9467   4.1429   4.8350   4.8969
     5.8771   6.2310   6.9958  10.6455

     the Fermi energy is     7.2868 ev

!    total energy              =    -131.47083708 Ry
     estimated scf accuracy    <          6.8E-12 Ry
     smearing contrib. (-TS)   =       0.00083859 Ry
     internal energy E=F+TS    =    -131.47167567 Ry

     The total energy is F=E-TS. E is the sum of the following terms:
     one-electron contribution =     -47.17725276 Ry
     hartree contribution      =      24.30124114 Ry
     xc contribution           =     -34.64275259 Ry
     ewald contribution        =     -73.95291147 Ry

     convergence has been achieved in  20 iterations

     Forces acting on atoms (cartesian axes, Ry/au):

     atom    1 type  1   force =    -0.00000000    0.00000000    0.00034558
     atom    2 type  1   force =    -0.00000000   -0.00000000   -0.00034558
     atom    3 type  1   force =    -0.00000000    0.00000000    0.00032428
     atom    4 type  1   force =    -0.00000000    0.00000000   -0.00032428
     atom    5 type  1   force =     0.00000000   -0.00000000   -0.00026568
     atom    6 type  1   force =    -0.00000000    0.00000000    0.00026568
     atom    7 type  1   force =    -0.00000000   -0.00000000    0.00032655
     atom    8 type  1   force =     0.00000000   -0.00000000   -0.00032655
     atom    9 type  2   force =     0.00000000    0.00000000   -0.00094981
     atom   10 type  2   force =     0.00000000   -0.00000000    0.00094981

     Total force =     0.001615     Total SCF correction =     0.000006


     Computing stress (Cartesian axis) and pressure

          total   stress  (Ry/bohr**3)                   (kbar)     P=      500.54
   0.00339954   0.00000000  -0.00000000          500.09        0.00       -0.00
   0.00000000   0.00339954   0.00000000            0.00      500.09        0.00
  -0.00000000   0.00000000   0.00340879           -0.00        0.00      501.45


     Writing all to output data dir ./output/LiSi.save/ :
     XML data file, charge density, pseudopotentials, collected wavefunctions

     init_run     :     10.03s CPU     13.64s WALL (       2 calls)
     electrons    :   3018.59s CPU   3072.05s WALL (      23 calls)
     update_pot   :      2.58s CPU      2.83s WALL (      21 calls)
     forces       :      5.66s CPU      6.09s WALL (      23 calls)
     stress       :     10.63s CPU     11.23s WALL (      23 calls)

     Called by init_run:
     wfcinit      :      8.19s CPU      8.30s WALL (       2 calls)
     potinit      :      0.26s CPU      0.30s WALL (       2 calls)
     hinit0       :      1.50s CPU      4.89s WALL (       2 calls)

     Called by electrons:
     c_bands      :   2506.28s CPU   2549.33s WALL (     293 calls)
     sum_band     :    475.07s CPU    480.42s WALL (     293 calls)
     v_of_rho     :     36.70s CPU     38.42s WALL (     316 calls)
     mix_rho      :      1.77s CPU      2.80s WALL (     293 calls)

     Called by c_bands:
     init_us_2    :      2.79s CPU      3.66s WALL (   27896 calls)
     cegterg      :   2499.16s CPU   2533.16s WALL (   12907 calls)

     Called by *egterg:
     cdiaghg      :     33.27s CPU     35.68s WALL (   59927 calls)
     h_psi        :   2450.52s CPU   2479.57s WALL (   60939 calls)
     g_psi        :      0.36s CPU      0.42s WALL (   47944 calls)

     Called by h_psi:
     h_psi:calbec :     23.80s CPU     26.02s WALL (   60939 calls)
     vloc_psi     :   2420.29s CPU   2446.28s WALL (   60939 calls)
     add_vuspsi   :      4.97s CPU      5.36s WALL (   60939 calls)

     General routines
     calbec       :     26.23s CPU     28.39s WALL (   65999 calls)
     fft          :     12.42s CPU     16.15s WALL (    3733 calls)
     ffts         :      0.62s CPU      0.64s WALL (     293 calls)
     fftw         :   2503.33s CPU   2528.00s WALL ( 1735356 calls)

     Parallel routines

     PWSCF        :   3048.59s CPU   3108.59s WALL


   This run was terminated on:  14:17:10  19Feb2025            

=------------------------------------------------------------------------------=
   JOB DONE.
=------------------------------------------------------------------------------=
