
     Program PWSCF v.7.2 starts on 29Dec2024 at 20:41:49 

     This program is part of the open-source Quantum ESPRESSO suite
     for quantum simulation of materials; please cite
         "P. Giannozzi et al., J. Phys.:Condens. Matter 21 395502 (2009);
         "P. Giannozzi et al., J. Phys.:Condens. Matter 29 465901 (2017);
         "P. Giannozzi et al., J. Chem. Phys. 152 154105 (2020);
          URL http://www.quantum-espresso.org", 
     in publications or presentations arising from this work. More details at
     http://www.quantum-espresso.org/quote

     Parallel version (MPI & OpenMP), running on       8 processor cores
     Number of MPI processes:                 8
     Threads/MPI process:                     1

     MPI processes distributed on     1 nodes
     483256 MiB available memory on the printing compute node when the environment starts

     Waiting for input...
     Reading input from standard input

     Current dimensions of program PWSCF are:
     Max number of different atomic species (ntypx) = 10
     Max number of k-points (npk) =  40000
     Max angular momentum in pseudopotentials (lmaxx) =  4

     R & G space division:  proc/nbgrp/npool/nimage =       8
     Subspace diagonalization in iterative solution of the eigenvalue problem:
     a serial algorithm will be used


     Parallelization info
     --------------------
     sticks:   dense  smooth     PW     G-vecs:    dense   smooth      PW
     Min         296     296     89                 9217     9217    1507
     Max         297     297     90                 9219     9219    1508
     Sum        2375    2375    717                73743    73743   12057

     Using Slab Decomposition



     bravais-lattice index     =            7
     lattice parameter (alat)  =       9.1921  a.u.
     unit-cell volume          =     762.1700 (a.u.)^3
     number of atoms/cell      =            5
     number of atomic types    =            2
     number of electrons       =        16.00
     number of Kohn-Sham states=           12
     kinetic-energy cutoff     =      80.0000  Ry
     charge density cutoff     =     320.0000  Ry
     scf convergence threshold =      1.0E-08
     mixing beta               =       0.7000
     number of iterations used =            8  plain     mixing
     energy convergence thresh.=      1.0E-04
     force convergence thresh. =      1.0E-03
     press convergence thresh. =      1.0E+00
     Exchange-correlation= PBE
                           (   1   4   3   4   0   0   0)
     nstep                     =           50


     celldm(1)=   9.192100  celldm(2)=   0.000000  celldm(3)=   1.962627
     celldm(4)=   0.000000  celldm(5)=   0.000000  celldm(6)=   0.000000

     crystal axes: (cart. coord. in units of alat)
               a(1) = (   0.500000  -0.500000   0.981313 )  
               a(2) = (   0.500000   0.500000   0.981313 )  
               a(3) = (  -0.500000  -0.500000   0.981313 )  

     reciprocal axes: (cart. coord. in units 2 pi/alat)
               b(1) = (  1.000000 -1.000000  0.000000 )  
               b(2) = (  0.000000  1.000000  0.509521 )  
               b(3) = ( -1.000000  0.000000  0.509521 )  


     PseudoPot. # 1 for Li read from file:
     ../pseudo/Li_ONCV_PBE_sr.upf
     MD5 check sum: 50ff420e78310ffa21704f3361e624a4
     Pseudo is Norm-conserving, Zval =  3.0
     Generated using ONCVPSP code by D. R. Hamann
     Using radial grid of 1944 points,  4 beta functions with: 
                l(1) =   0
                l(2) =   0
                l(3) =   1
                l(4) =   1

     PseudoPot. # 2 for Si read from file:
     ../pseudo/Si_ONCV_PBE_sr.upf
     MD5 check sum: e543d271109d17c80368dfa7c482276d
     Pseudo is Norm-conserving + core correction, Zval =  4.0
     Generated using ONCVPSP code by D. R. Hamann
     Using radial grid of 1510 points,  6 beta functions with: 
                l(1) =   0
                l(2) =   0
                l(3) =   1
                l(4) =   1
                l(5) =   2
                l(6) =   2

     atomic species   valence    mass     pseudopotential
        Li             3.00     6.94100     Li( 1.00)
        Si             4.00    28.08550     Si( 1.00)

     16 Sym. Ops., with inversion, found



   Cartesian axes

     site n.     atom                  positions (alat units)
         1           Li  tau(   1) = (   0.0000000   0.0000000   0.4777102  )
         2           Li  tau(   2) = (   0.0000000   0.0000000   1.4849165  )
         3           Li  tau(   3) = (   0.0000000   0.5000000   0.0000000  )
         4           Li  tau(   4) = (   0.5000000   0.0000000   0.0000000  )
         5           Si  tau(   5) = (   0.0000000   0.0000000   0.9813133  )

     number of k points=    65  Marzari-Vanderbilt smearing, width (Ry)=  0.0200
                       cart. coord. in units 2pi/alat
        k(    1) = (   0.0000000   0.0000000   0.0000000), wk =   0.0136054
        k(    2) = (  -0.3333333   0.0000000   0.1698404), wk =   0.0272109
        k(    3) = (   0.0000000   0.1428571   0.0727888), wk =   0.0544218
        k(    4) = (  -0.3333333   0.1428571   0.2426292), wk =   0.0272109
        k(    5) = (   0.3333333   0.1428571  -0.0970517), wk =   0.0272109
        k(    6) = (   0.0000000   0.2857143   0.1455775), wk =   0.0544218
        k(    7) = (  -0.3333333   0.2857143   0.3154179), wk =   0.0272109
        k(    8) = (   0.3333333   0.2857143  -0.0242629), wk =   0.0272109
        k(    9) = (   0.0000000   0.4285714   0.2183663), wk =   0.0544218
        k(   10) = (  -0.3333333   0.4285714   0.3882067), wk =   0.0272109
        k(   11) = (   0.3333333   0.4285714   0.0485258), wk =   0.0272109
        k(   12) = (   0.1428571  -0.1428571   0.0000000), wk =   0.0272109
        k(   13) = (  -0.1904762  -0.1428571   0.1698404), wk =   0.0272109
        k(   14) = (   0.4761905  -0.1428571  -0.1698404), wk =   0.0272109
        k(   15) = (  -0.1904762   0.0000000   0.2426292), wk =   0.0272109
        k(   16) = (   0.4761905   0.0000000  -0.0970517), wk =   0.0272109
        k(   17) = (   0.1428571   0.1428571   0.1455775), wk =   0.0272109
        k(   18) = (  -0.1904762   0.1428571   0.3154179), wk =   0.0272109
        k(   19) = (   0.4761905   0.1428571  -0.0242629), wk =   0.0272109
        k(   20) = (   0.1428571   0.2857143   0.2183663), wk =   0.0544218
        k(   21) = (  -0.1904762   0.2857143   0.3882067), wk =   0.0272109
        k(   22) = (   0.4761905   0.2857143   0.0485258), wk =   0.0272109
        k(   23) = (   0.1428571  -0.5714286  -0.2183663), wk =   0.0544218
        k(   24) = (  -0.1904762  -0.5714286  -0.0485258), wk =   0.0272109
        k(   25) = (   0.4761905  -0.5714286  -0.3882067), wk =   0.0272109
        k(   26) = (   0.1428571  -0.4285714  -0.1455775), wk =   0.0544218
        k(   27) = (  -0.1904762  -0.4285714   0.0242629), wk =   0.0272109
        k(   28) = (   0.4761905  -0.4285714  -0.3154179), wk =   0.0272109
        k(   29) = (   0.1428571  -0.2857143  -0.0727888), wk =   0.0544218
        k(   30) = (  -0.1904762  -0.2857143   0.0970517), wk =   0.0272109
        k(   31) = (   0.4761905  -0.2857143  -0.2426292), wk =   0.0272109
        k(   32) = (   0.2857143  -0.2857143   0.0000000), wk =   0.0272109
        k(   33) = (  -0.0476190  -0.2857143   0.1698404), wk =   0.0272109
        k(   34) = (   0.6190476  -0.2857143  -0.1698404), wk =   0.0272109
        k(   35) = (  -0.0476190  -0.1428571   0.2426292), wk =   0.0272109
        k(   36) = (   0.6190476  -0.1428571  -0.0970517), wk =   0.0272109
        k(   37) = (  -0.0476190   0.0000000   0.3154179), wk =   0.0272109
        k(   38) = (   0.6190476   0.0000000  -0.0242629), wk =   0.0272109
        k(   39) = (  -0.0476190   0.1428571   0.3882067), wk =   0.0272109
        k(   40) = (   0.6190476   0.1428571   0.0485258), wk =   0.0272109
        k(   41) = (   0.2857143  -0.7142857  -0.2183663), wk =   0.0272109
        k(   42) = (  -0.0476190  -0.7142857  -0.0485258), wk =   0.0272109
        k(   43) = (   0.6190476  -0.7142857  -0.3882067), wk =   0.0272109
        k(   44) = (   0.2857143  -0.5714286  -0.1455775), wk =   0.0544218
        k(   45) = (  -0.0476190  -0.5714286   0.0242629), wk =   0.0272109
        k(   46) = (   0.6190476  -0.5714286  -0.3154179), wk =   0.0272109
        k(   47) = (   0.2857143  -0.4285714  -0.0727888), wk =   0.0544218
        k(   48) = (  -0.0476190  -0.4285714   0.0970517), wk =   0.0272109
        k(   49) = (   0.6190476  -0.4285714  -0.2426292), wk =   0.0272109
        k(   50) = (   0.4285714  -0.4285714   0.0000000), wk =   0.0272109
        k(   51) = (   0.0952381  -0.4285714   0.1698404), wk =   0.0272109
        k(   52) = (   0.7619048  -0.4285714  -0.1698404), wk =   0.0272109
        k(   53) = (   0.0952381  -0.2857143   0.2426292), wk =   0.0272109
        k(   54) = (   0.7619048  -0.2857143  -0.0970517), wk =   0.0272109
        k(   55) = (   0.0952381  -0.1428571   0.3154179), wk =   0.0272109
        k(   56) = (   0.7619048  -0.1428571  -0.0242629), wk =   0.0272109
        k(   57) = (   0.0952381   0.0000000   0.3882067), wk =   0.0272109
        k(   58) = (   0.7619048   0.0000000   0.0485258), wk =   0.0272109
        k(   59) = (   0.0952381  -0.8571429  -0.0485258), wk =   0.0272109
        k(   60) = (   0.7619048  -0.8571429  -0.3882067), wk =   0.0272109
        k(   61) = (   0.0952381  -0.7142857   0.0242629), wk =   0.0272109
        k(   62) = (   0.7619048  -0.7142857  -0.3154179), wk =   0.0272109
        k(   63) = (   0.4285714  -0.5714286  -0.0727888), wk =   0.0272109
        k(   64) = (   0.0952381  -0.5714286   0.0970517), wk =   0.0272109
        k(   65) = (   0.7619048  -0.5714286  -0.2426292), wk =   0.0272109

     Dense  grid:    73743 G-vectors     FFT dimensions: (  64,  64,  64)

     Estimated max dynamical RAM per process >      33.52 MB

     Estimated total dynamical RAM >     268.16 MB

     Initial potential from superposition of free atoms

     starting charge      15.9811, renormalised to      16.0000
     Starting wfcs are   12 randomized atomic wfcs

     total cpu time spent up to now is        6.6 secs

     Self-consistent Calculation

     iteration #  1     ecut=    80.00 Ry     beta= 0.70
     Davidson diagonalization with overlap
     ethr =  1.00E-02,  avg # of iterations =  5.8

     total cpu time spent up to now is        9.9 secs

     WARNING: integrated charge=    16.00003163, expected=    16.00000000

     total energy              =     -65.92745571 Ry
     estimated scf accuracy    <       0.41173533 Ry

     iteration #  2     ecut=    80.00 Ry     beta= 0.70
     Davidson diagonalization with overlap
     ethr =  2.57E-03,  avg # of iterations =  2.4

     total cpu time spent up to now is       12.1 secs

     WARNING: integrated charge=    16.00002122, expected=    16.00000000

     total energy              =     -65.99931144 Ry
     estimated scf accuracy    <       0.52108770 Ry

     iteration #  3     ecut=    80.00 Ry     beta= 0.70
     Davidson diagonalization with overlap
     ethr =  2.57E-03,  avg # of iterations =  2.0
     Minimization algorithm failed to find Fermi energy: reverting to bisection
     Possible cause: smearing is larger than the electronic band-gap.

     total cpu time spent up to now is       14.0 secs

     WARNING: integrated charge=    15.99999352, expected=    16.00000000

     total energy              =     -66.09411222 Ry
     estimated scf accuracy    <       0.00412243 Ry

     iteration #  4     ecut=    80.00 Ry     beta= 0.70
     Davidson diagonalization with overlap
     ethr =  2.58E-05,  avg # of iterations =  6.1
     Minimization algorithm failed to find Fermi energy: reverting to bisection
     Possible cause: smearing is larger than the electronic band-gap.

     total cpu time spent up to now is       16.2 secs

     total energy              =     -66.09476154 Ry
     estimated scf accuracy    <       0.00061926 Ry

     iteration #  5     ecut=    80.00 Ry     beta= 0.70
     Davidson diagonalization with overlap
     ethr =  3.87E-06,  avg # of iterations =  2.4
     Minimization algorithm failed to find Fermi energy: reverting to bisection
     Possible cause: smearing is larger than the electronic band-gap.

     total cpu time spent up to now is       17.9 secs

     total energy              =     -66.09478547 Ry
     estimated scf accuracy    <       0.00003824 Ry

     iteration #  6     ecut=    80.00 Ry     beta= 0.70
     Davidson diagonalization with overlap
     ethr =  2.39E-07,  avg # of iterations =  2.3
     Minimization algorithm failed to find Fermi energy: reverting to bisection
     Possible cause: smearing is larger than the electronic band-gap.

     total cpu time spent up to now is       19.6 secs

     total energy              =     -66.09479366 Ry
     estimated scf accuracy    <       0.00000058 Ry

     iteration #  7     ecut=    80.00 Ry     beta= 0.70
     Davidson diagonalization with overlap
     ethr =  3.63E-09,  avg # of iterations =  3.7
     Minimization algorithm failed to find Fermi energy: reverting to bisection
     Possible cause: smearing is larger than the electronic band-gap.

     total cpu time spent up to now is       21.6 secs

     total energy              =     -66.09479391 Ry
     estimated scf accuracy    <       0.00000003 Ry

     iteration #  8     ecut=    80.00 Ry     beta= 0.70
     Davidson diagonalization with overlap
     ethr =  2.15E-10,  avg # of iterations =  2.6
     Minimization algorithm failed to find Fermi energy: reverting to bisection
     Possible cause: smearing is larger than the electronic band-gap.

     total cpu time spent up to now is       23.4 secs

     total energy              =     -66.09479391 Ry
     estimated scf accuracy    <       0.00000003 Ry

     iteration #  9     ecut=    80.00 Ry     beta= 0.70
     Davidson diagonalization with overlap
     ethr =  1.61E-10,  avg # of iterations =  2.0
     Minimization algorithm failed to find Fermi energy: reverting to bisection
     Possible cause: smearing is larger than the electronic band-gap.

     total cpu time spent up to now is       25.1 secs

     End of self-consistent calculation

          k = 0.0000 0.0000 0.0000 (  9189 PWs)   bands (ev):

   -45.6568 -45.6541 -44.5437 -44.5402  -5.5082   0.2810   0.6527   0.6527
     1.0872   3.9615   3.9616   4.6621

          k =-0.3333 0.0000 0.1698 (  9185 PWs)   bands (ev):

   -45.6561 -45.6548 -44.5428 -44.5410  -5.3606  -0.8366   0.2736   0.7621
     1.8134   3.6856   4.4693   4.8383

          k = 0.0000 0.1429 0.0728 (  9205 PWs)   bands (ev):

   -45.6567 -45.6542 -44.5435 -44.5403  -5.4730  -0.0820   0.3417   0.6751
     1.8391   3.2527   4.1523   4.6915

          k =-0.3333 0.1429 0.2426 (  9202 PWs)   bands (ev):

   -45.6560 -45.6548 -44.5427 -44.5411  -5.3267  -0.8364   0.1589   0.4721
     2.1843   3.3471   3.8843   5.3578

          k = 0.3333 0.1429-0.0971 (  9209 PWs)   bands (ev):

   -45.6561 -45.6548 -44.5427 -44.5411  -5.3616  -0.7122   0.3784   0.6347
     2.0924   3.2366   3.4657   4.4907

          k = 0.0000 0.2857 0.1456 (  9189 PWs)   bands (ev):

   -45.6563 -45.6546 -44.5430 -44.5408  -5.3895  -0.6883   0.2851   0.7375
     1.9761   3.3613   4.4927   4.7952

          k =-0.3333 0.2857 0.3154 (  9235 PWs)   bands (ev):

   -45.6558 -45.6550 -44.5424 -44.5413  -5.2844  -0.6256  -0.0841   0.2711
     2.2958   2.8878   3.5563   5.3667

          k = 0.3333 0.2857-0.0243 (  9201 PWs)   bands (ev):

   -45.6559 -45.6550 -44.5424 -44.5413  -5.3288  -0.6441   0.5295   0.5652
     1.8960   2.3940   3.6091   3.9713

          k = 0.0000 0.4286 0.2184 (  9198 PWs)   bands (ev):

   -45.6557 -45.6551 -44.5423 -44.5415  -5.3174  -1.0293   0.2607   0.8019
     1.5704   4.3003   4.3058   4.9241

          k =-0.3333 0.4286 0.3882 (  9220 PWs)   bands (ev):

   -45.6556 -45.6553 -44.5421 -44.5417  -5.2659  -0.4778  -0.0992   0.3833
     1.7861   2.4032   3.9102   4.9213

          k = 0.3333 0.4286 0.0485 (  9229 PWs)   bands (ev):

   -45.6556 -45.6553 -44.5421 -44.5417  -5.2859  -0.6155   0.4193   0.5434
     1.7211   1.8456   3.8503   4.5963

          k = 0.1429-0.1429 0.0000 (  9211 PWs)   bands (ev):

   -45.6566 -45.6543 -44.5433 -44.5405  -5.4565  -0.1563   0.3669   0.6304
     2.1995   2.9574   3.7026   4.4150

          k =-0.1905-0.1429 0.1698 (  9194 PWs)   bands (ev):

   -45.6565 -45.6544 -44.5432 -44.5406  -5.4026  -0.5238   0.2775   0.4466
     2.4809   3.2204   3.6238   5.0821

          k = 0.4762-0.1429-0.1698 (  9202 PWs)   bands (ev):

   -45.6555 -45.6553 -44.5420 -44.5418  -5.3020  -0.9382   0.2402   0.5864
     1.8970   3.1301   4.0714   5.3013

          k =-0.1905 0.0000 0.2426 (  9201 PWs)   bands (ev):

   -45.6566 -45.6543 -44.5434 -44.5405  -5.3875  -0.7117   0.0759   0.5321
     2.3743   3.5906   4.7268   4.7280

          k = 0.4762 0.0000-0.0971 (  9188 PWs)   bands (ev):

   -45.6555 -45.6553 -44.5420 -44.5418  -5.3140  -0.9668  -0.0026   0.8248
     2.0065   3.8360   4.4050   4.6409

          k = 0.1429 0.1429 0.1456 (  9202 PWs)   bands (ev):

   -45.6565 -45.6543 -44.5433 -44.5405  -5.4275  -0.4010   0.3147   0.4886
     2.3300   3.2728   3.6929   4.9810

          k =-0.1905 0.1429 0.3154 (  9204 PWs)   bands (ev):

   -45.6564 -45.6544 -44.5432 -44.5406  -5.3368  -0.8479   0.0040   0.2181
     2.9048   3.6238   4.0339   5.3884

          k = 0.4762 0.1429-0.0243 (  9200 PWs)   bands (ev):

   -45.6555 -45.6553 -44.5420 -44.5418  -5.3058  -0.8354  -0.0316   0.6666
     2.2620   3.2311   3.7465   4.7089

          k = 0.1429 0.2857 0.2184 (  9198 PWs)   bands (ev):

   -45.6562 -45.6547 -44.5429 -44.5409  -5.3498  -0.7477   0.1859   0.4495
     2.3277   3.4347   3.6236   5.2740

          k =-0.1905 0.2857 0.3882 (  9222 PWs)   bands (ev):

   -45.6561 -45.6547 -44.5428 -44.5410  -5.2875  -0.7867  -0.2477   0.1450
     2.9377   3.3531   4.2632   5.2995

          k = 0.4762 0.2857 0.0485 (  9224 PWs)   bands (ev):

   -45.6555 -45.6553 -44.5420 -44.5418  -5.2832  -0.6523   0.2225   0.4581
     1.9427   2.1428   3.9781   4.6361

          k = 0.1429-0.5714-0.2184 (  9205 PWs)   bands (ev):

   -45.6557 -45.6552 -44.5422 -44.5415  -5.2981  -0.9435   0.1641   0.5310
     1.9723   3.1715   4.2576   5.4546

          k =-0.1905-0.5714-0.0485 (  9217 PWs)   bands (ev):

   -45.6557 -45.6552 -44.5422 -44.5416  -5.2778  -0.7371  -0.2723   0.4111
     2.5003   2.9761   4.1552   5.0999

          k = 0.4762-0.5714-0.3882 (  9223 PWs)   bands (ev):

   -45.6555 -45.6554 -44.5419 -44.5418  -5.2632  -0.4418   0.2236   0.6006
     1.2778   1.9124   3.7510   4.6452

          k = 0.1429-0.4286-0.1456 (  9207 PWs)   bands (ev):

   -45.6557 -45.6552 -44.5423 -44.5415  -5.3162  -0.8909   0.2919   0.6079
     1.9162   3.1780   3.8359   5.0530

          k =-0.1905-0.4286 0.0243 (  9210 PWs)   bands (ev):

   -45.6557 -45.6552 -44.5422 -44.5416  -5.3159  -0.7666   0.1983   0.6257
     2.1018   2.8416   3.7503   4.2930

          k = 0.4762-0.4286-0.3154 (  9221 PWs)   bands (ev):

   -45.6554 -45.6554 -44.5419 -44.5418  -5.2612  -0.3001  -0.0710   0.6020
     1.3045   2.3896   3.2822   4.3808

          k = 0.1429-0.2857-0.0728 (  9194 PWs)   bands (ev):

   -45.6562 -45.6547 -44.5429 -44.5409  -5.3884  -0.5868   0.3996   0.6378
     2.2546   2.9905   3.5909   4.2653

          k =-0.1905-0.2857 0.0971 (  9203 PWs)   bands (ev):

   -45.6561 -45.6547 -44.5428 -44.5410  -5.3714  -0.6102   0.4351   0.5350
     2.3000   3.0164   3.2187   4.3365

          k = 0.4762-0.2857-0.2426 (  9213 PWs)   bands (ev):

   -45.6555 -45.6554 -44.5420 -44.5418  -5.2787  -0.6752   0.1227   0.5307
     1.9814   2.2843   3.4576   5.0366

          k = 0.2857-0.2857 0.0000 (  9196 PWs)   bands (ev):

   -45.6560 -45.6549 -44.5426 -44.5412  -5.3470  -0.6179   0.5283   0.5788
     1.9863   2.6203   3.6510   3.6656

          k =-0.0476-0.2857 0.1698 (  9195 PWs)   bands (ev):

   -45.6563 -45.6546 -44.5430 -44.5408  -5.3799  -0.7214   0.2497   0.6852
     2.0165   3.4740   4.2347   5.0727

          k = 0.6190-0.2857-0.1698 (  9222 PWs)   bands (ev):

   -45.6557 -45.6551 -44.5423 -44.5415  -5.2758  -0.6045  -0.0998   0.3140
     2.1369   2.7170   3.7259   5.1914

          k =-0.0476-0.1429 0.2426 (  9199 PWs)   bands (ev):

   -45.6566 -45.6542 -44.5435 -44.5404  -5.3993  -0.6915   0.1743   0.4560
     2.3493   3.7367   4.3567   5.0525

          k = 0.6190-0.1429-0.0971 (  9206 PWs)   bands (ev):

   -45.6559 -45.6550 -44.5425 -44.5413  -5.2824  -0.8258  -0.3459   0.4463
     2.6060   3.3920   4.2542   5.2865

          k =-0.0476 0.0000 0.3154 (  9204 PWs)   bands (ev):

   -45.6568 -45.6541 -44.5437 -44.5402  -5.3747  -0.9788   0.2904   0.3372
     2.2971   4.3106   4.7655   5.1057

          k = 0.6190 0.0000-0.0243 (  9222 PWs)   bands (ev):

   -45.6559 -45.6550 -44.5425 -44.5413  -5.2830  -0.8229  -0.6302   0.6484
     2.8776   3.7336   4.4394   4.7359

          k =-0.0476 0.1429 0.3882 (  9214 PWs)   bands (ev):

   -45.6566 -45.6542 -44.5435 -44.5404  -5.3240  -1.1034  -0.0219   0.2969
     2.8184   3.9626   4.6230   5.3987

          k = 0.6190 0.1429 0.0485 (  9212 PWs)   bands (ev):

   -45.6559 -45.6550 -44.5425 -44.5413  -5.2778  -0.7586  -0.4827   0.4338
     2.7635   3.4272   4.1583   5.3856

          k = 0.2857-0.7143-0.2184 (  9240 PWs)   bands (ev):

   -45.6560 -45.6549 -44.5426 -44.5412  -5.2975  -0.6663  -0.0122   0.2476
     2.4769   3.0153   3.3906   5.5602

          k =-0.0476-0.7143-0.0485 (  9216 PWs)   bands (ev):

   -45.6563 -45.6546 -44.5430 -44.5408  -5.2852  -0.9349  -0.5336   0.4589
     3.2140   3.6829   4.4494   5.0834

          k = 0.6190-0.7143-0.3882 (  9225 PWs)   bands (ev):

   -45.6557 -45.6551 -44.5423 -44.5415  -5.2701  -0.5591  -0.1689   0.2119
     2.2054   2.7070   4.0279   5.2253

          k = 0.2857-0.5714-0.1456 (  9220 PWs)   bands (ev):

   -45.6556 -45.6552 -44.5421 -44.5416  -5.2724  -0.6134  -0.0452   0.3693
     2.0174   2.5383   3.8053   5.1213

          k =-0.0476-0.5714 0.0243 (  9203 PWs)   bands (ev):

   -45.6557 -45.6552 -44.5423 -44.5415  -5.2880  -0.8720  -0.4623   0.6970
     2.6554   3.7280   4.1496   4.9456

          k = 0.6190-0.5714-0.3154 (  9229 PWs)   bands (ev):

   -45.6555 -45.6553 -44.5420 -44.5417  -5.2653  -0.3608  -0.1676   0.5805
     1.5109   2.5208   3.3450   4.5974

          k = 0.2857-0.4286-0.0728 (  9223 PWs)   bands (ev):

   -45.6556 -45.6552 -44.5421 -44.5416  -5.2950  -0.6690   0.3450   0.5254
     1.9120   2.1464   3.6462   4.6481

          k =-0.0476-0.4286 0.0971 (  9191 PWs)   bands (ev):

   -45.6557 -45.6551 -44.5423 -44.5415  -5.3305  -0.9169   0.1472   0.8143
     1.9315   3.6730   4.0938   4.9912

          k = 0.6190-0.4286-0.2426 (  9229 PWs)   bands (ev):

   -45.6555 -45.6553 -44.5420 -44.5417  -5.2678  -0.4040  -0.1042   0.6094
     1.5253   2.6663   3.0100   4.6093

          k = 0.4286-0.4286 0.0000 (  9240 PWs)   bands (ev):

   -45.6555 -45.6553 -44.5420 -44.5418  -5.2695  -0.5387   0.5363   0.6100
     1.3257   1.4879   4.3115   4.6784

          k = 0.0952-0.4286 0.1698 (  9199 PWs)   bands (ev):

   -45.6557 -45.6551 -44.5423 -44.5415  -5.3192  -0.9565   0.2883   0.6894
     1.7605   3.5778   4.0600   5.2535

          k = 0.7619-0.4286-0.1698 (  9212 PWs)   bands (ev):

   -45.6556 -45.6552 -44.5422 -44.5416  -5.2805  -0.7465   0.0336   0.3853
     2.1923   2.6106   3.8693   5.3596

          k = 0.0952-0.2857 0.2426 (  9201 PWs)   bands (ev):

   -45.6562 -45.6546 -44.5430 -44.5409  -5.3486  -0.8033   0.0766   0.5304
     2.2645   3.6437   4.0148   5.2969

          k = 0.7619-0.2857-0.0971 (  9221 PWs)   bands (ev):

   -45.6560 -45.6548 -44.5427 -44.5411  -5.2770  -0.6989  -0.2180  -0.0088
     2.8754   3.2092   4.3190   5.4774

          k = 0.0952-0.1429 0.3154 (  9210 PWs)   bands (ev):

   -45.6566 -45.6543 -44.5434 -44.5404  -5.3542  -0.9067   0.0813   0.2840
     2.7088   3.8516   4.2755   5.3888

          k = 0.7619-0.1429-0.0243 (  9208 PWs)   bands (ev):

   -45.6563 -45.6546 -44.5431 -44.5408  -5.2812  -0.9604  -0.3268   0.1529
     3.4475   3.5509   4.5218   5.0707

          k = 0.0952 0.0000 0.3882 (  9196 PWs)   bands (ev):

   -45.6567 -45.6542 -44.5436 -44.5403  -5.3318  -1.1574   0.1134   0.2907
     2.6107   4.1541   4.7164   5.4617

          k = 0.7619 0.0000 0.0485 (  9219 PWs)   bands (ev):

   -45.6564 -45.6545 -44.5432 -44.5406  -5.2909  -1.0502  -0.4047   0.4145
     3.2551   3.6852   4.5407   5.2764

          k = 0.0952-0.8571-0.0485 (  9208 PWs)   bands (ev):

   -45.6566 -45.6543 -44.5434 -44.5404  -5.2991  -1.1727  -0.0507   0.1656
     3.0749   3.9241   4.6491   5.3865

          k = 0.7619-0.8571-0.3882 (  9215 PWs)   bands (ev):

   -45.6563 -45.6546 -44.5431 -44.5408  -5.2998  -0.9076  -0.2271   0.2016
     3.1224   3.5795   4.3759   5.1293

          k = 0.0952-0.7143 0.0243 (  9214 PWs)   bands (ev):

   -45.6562 -45.6546 -44.5430 -44.5409  -5.2806  -0.9007  -0.5236   0.3659
     3.3045   3.6247   4.3673   5.1361

          k = 0.7619-0.7143-0.3154 (  9225 PWs)   bands (ev):

   -45.6560 -45.6548 -44.5427 -44.5411  -5.2997  -0.7161  -0.0261   0.1535
     2.6698   3.1275   3.6925   5.6783

          k = 0.4286-0.5714-0.0728 (  9226 PWs)   bands (ev):

   -45.6555 -45.6554 -44.5420 -44.5418  -5.2594  -0.4160   0.0962   0.4736
     1.4076   1.9245   4.3902   4.6809

          k = 0.0952-0.5714 0.0971 (  9209 PWs)   bands (ev):

   -45.6557 -45.6552 -44.5423 -44.5415  -5.2892  -0.9147  -0.2693   0.6331
     2.3776   3.6667   4.1414   5.1559

          k = 0.7619-0.5714-0.2426 (  9219 PWs)   bands (ev):

   -45.6557 -45.6552 -44.5422 -44.5416  -5.2904  -0.7770   0.2179   0.4519
     2.1594   2.4121   3.6406   5.3608

     the Fermi energy is     0.8581 ev

!    total energy              =     -66.09479391 Ry
     estimated scf accuracy    <          4.4E-10 Ry
     smearing contrib. (-TS)   =       0.00469440 Ry
     internal energy E=F+TS    =     -66.09948831 Ry

     The total energy is F=E-TS. E is the sum of the following terms:
     one-electron contribution =     -40.19059524 Ry
     hartree contribution      =      16.61432052 Ry
     xc contribution           =     -16.41413490 Ry
     ewald contribution        =     -26.10907869 Ry

     convergence has been achieved in   9 iterations

     Forces acting on atoms (cartesian axes, Ry/au):

     atom    1 type  1   force =     0.00000000   -0.00000000   -0.01414702
     atom    2 type  1   force =     0.00000000   -0.00000000    0.01414702
     atom    3 type  1   force =     0.00000000    0.00000000   -0.00000000
     atom    4 type  1   force =     0.00000000   -0.00000000    0.00000000
     atom    5 type  2   force =     0.00000000    0.00000000    0.00000000
     The non-local contrib.  to forces
     atom    1 type  1   force =     0.00000000    0.00000000   -0.12198228
     atom    2 type  1   force =    -0.00000000    0.00000000    0.12198228
     atom    3 type  1   force =    -0.00000000   -0.00000000    0.00000000
     atom    4 type  1   force =     0.00000000   -0.00000000   -0.00000000
     atom    5 type  2   force =     0.00000000    0.00000000   -0.00000000
     The ionic contribution  to forces
     atom    1 type  1   force =    -0.00000000   -0.00000000   -0.58206558
     atom    2 type  1   force =     0.00000000   -0.00000000    0.58206558
     atom    3 type  1   force =    -0.00000000   -0.00000000    0.00000000
     atom    4 type  1   force =    -0.00000000   -0.00000000    0.00000000
     atom    5 type  2   force =     0.00000000    0.00000000   -0.00000000
     The local contribution  to forces
     atom    1 type  1   force =     0.00000000   -0.00000000    0.68990953
     atom    2 type  1   force =    -0.00000000    0.00000000   -0.68990953
     atom    3 type  1   force =     0.00000000    0.00000000   -0.00000000
     atom    4 type  1   force =     0.00000000   -0.00000000   -0.00000000
     atom    5 type  2   force =     0.00000000    0.00000000    0.00000000
     The core correction contribution to forces
     atom    1 type  1   force =     0.00000000    0.00000000    0.00000000
     atom    2 type  1   force =     0.00000000    0.00000000    0.00000000
     atom    3 type  1   force =     0.00000000    0.00000000    0.00000000
     atom    4 type  1   force =     0.00000000    0.00000000    0.00000000
     atom    5 type  2   force =    -0.00000000   -0.00000000   -0.00000000
     The Hubbard contrib.    to forces
     atom    1 type  1   force =     0.00000000    0.00000000    0.00000000
     atom    2 type  1   force =     0.00000000    0.00000000    0.00000000
     atom    3 type  1   force =     0.00000000    0.00000000    0.00000000
     atom    4 type  1   force =     0.00000000    0.00000000    0.00000000
     atom    5 type  2   force =     0.00000000    0.00000000    0.00000000
     The SCF correction term to forces
     atom    1 type  1   force =    -0.00000000   -0.00000000   -0.00000870
     atom    2 type  1   force =     0.00000000    0.00000000    0.00000870
     atom    3 type  1   force =     0.00000000   -0.00000000   -0.00000000
     atom    4 type  1   force =    -0.00000000    0.00000000   -0.00000000
     atom    5 type  2   force =    -0.00000000   -0.00000000    0.00000000

     Total force =     0.020007     Total SCF correction =     0.000012


     Computing stress (Cartesian axis) and pressure

          total   stress  (Ry/bohr**3)                   (kbar)     P=       -3.55
  -0.00001054  -0.00000000  -0.00000000           -1.55       -0.00       -0.00
   0.00000000  -0.00001054   0.00000000            0.00       -1.55        0.00
   0.00000000  -0.00000000  -0.00005139            0.00       -0.00       -7.56


     BFGS Geometry Optimization
     Energy error            =      0.0E+00 Ry
     Gradient error          =      1.4E-02 Ry/Bohr
     Cell gradient error     =      5.1E+02 kbar

     number of scf cycles    =   1
     number of bfgs steps    =   0

     enthalpy           new  =     -63.5042306399 Ry

     new trust radius        =       0.4762730259 bohr
ibrav =      7
 celldm(1) =      8.40859435
 celldm(3) =      1.96043541
Input lattice vectors:
     0.45738159    -0.45738159     0.89666707
     0.45738159     0.45738159     0.89666707
    -0.45738159    -0.45738159     0.89666707
New lattice vectors in INITIAL alat:
     0.45738159    -0.45738159     0.89666707
     0.45738159     0.45738159     0.89666707
    -0.45738159    -0.45738159     0.89666707
New lattice vectors in NEW alat (for information only):
     0.50000000    -0.50000000     0.98021770
     0.50000000     0.50000000     0.98021770
    -0.50000000    -0.50000000     0.98021770
Discrepancy in bohr =     0.000000    0.000000    0.000000
     new conv_thr            =       0.0000000100 Ry

     new unit-cell volume =    582.76404 a.u.^3 (    86.35672 Ang^3 )
     density =      1.07392 g/cm^3

CELL_PARAMETERS (alat=  9.19209964)
   0.457381593  -0.457381593   0.896667068
   0.457381593   0.457381593   0.896667068
  -0.457381593  -0.457381593   0.896667068

ATOMIC_POSITIONS (crystal)
Li           -0.0000000000        0.2426193256        0.2426193256
Li           -0.0000000000        0.7573806744        0.7573806744
Li           -0.5000000000        0.5000000000       -0.0000000000
Li            0.5000000000        0.0000000000       -0.5000000000
Si           -0.0000000000        0.5000000000        0.5000000000



     Writing config-only to output data dir ./output/LiSi.save/
     NEW-OLD atomic charge density approx. for the potential

     negative rho (up, down):  8.864E-07 0.000E+00
     extrapolated charge   11.08015, renormalised to   16.00000

     total cpu time spent up to now is       29.1 secs

     Self-consistent Calculation

     iteration #  1     ecut=    80.00 Ry     beta= 0.70
     Davidson diagonalization with overlap
     c_bands:  1 eigenvalues not converged
     c_bands:  1 eigenvalues not converged
     c_bands:  1 eigenvalues not converged
     c_bands:  1 eigenvalues not converged
     c_bands:  1 eigenvalues not converged
     c_bands:  1 eigenvalues not converged
     c_bands:  1 eigenvalues not converged
     c_bands:  1 eigenvalues not converged
     c_bands:  1 eigenvalues not converged
     c_bands:  1 eigenvalues not converged
     c_bands:  1 eigenvalues not converged
     c_bands:  1 eigenvalues not converged
     ethr =  1.00E-06,  avg # of iterations = 14.3

     total cpu time spent up to now is       34.4 secs

     total energy              =     -65.49107455 Ry
     estimated scf accuracy    <       0.40912662 Ry

     iteration #  2     ecut=    80.00 Ry     beta= 0.70
     Davidson diagonalization with overlap
     ethr =  2.56E-03,  avg # of iterations =  3.4

     total cpu time spent up to now is       36.7 secs

     total energy              =     -66.01672694 Ry
     estimated scf accuracy    <       1.18765839 Ry

     iteration #  3     ecut=    80.00 Ry     beta= 0.70
     Davidson diagonalization with overlap
     ethr =  2.56E-03,  avg # of iterations =  2.0

     total cpu time spent up to now is       38.4 secs

     total energy              =     -66.04133826 Ry
     estimated scf accuracy    <       0.15171421 Ry

     iteration #  4     ecut=    80.00 Ry     beta= 0.70
     Davidson diagonalization with overlap
     ethr =  9.48E-04,  avg # of iterations =  1.9

     total cpu time spent up to now is       39.9 secs

     total energy              =     -66.05871231 Ry
     estimated scf accuracy    <       0.00620717 Ry

     iteration #  5     ecut=    80.00 Ry     beta= 0.70
     Davidson diagonalization with overlap
     ethr =  3.88E-05,  avg # of iterations =  3.5

     total cpu time spent up to now is       41.7 secs

     total energy              =     -66.05883306 Ry
     estimated scf accuracy    <       0.00151527 Ry

     iteration #  6     ecut=    80.00 Ry     beta= 0.70
     Davidson diagonalization with overlap
     ethr =  9.47E-06,  avg # of iterations =  2.3

     total cpu time spent up to now is       43.5 secs

     total energy              =     -66.05908220 Ry
     estimated scf accuracy    <       0.00002999 Ry

     iteration #  7     ecut=    80.00 Ry     beta= 0.70
     Davidson diagonalization with overlap
     ethr =  1.87E-07,  avg # of iterations =  3.1

     total cpu time spent up to now is       45.6 secs

     total energy              =     -66.05909236 Ry
     estimated scf accuracy    <       0.00000792 Ry

     iteration #  8     ecut=    80.00 Ry     beta= 0.70
     Davidson diagonalization with overlap
     ethr =  4.95E-08,  avg # of iterations =  1.0

     total cpu time spent up to now is       47.1 secs

     total energy              =     -66.05909117 Ry
     estimated scf accuracy    <       0.00000320 Ry

     iteration #  9     ecut=    80.00 Ry     beta= 0.70
     Davidson diagonalization with overlap
     ethr =  2.00E-08,  avg # of iterations =  2.0

     total cpu time spent up to now is       48.8 secs

     End of self-consistent calculation

          k = 0.0000 0.0000 0.0000 (  9189 PWs)   bands (ev):

   -44.0478 -44.0391 -43.0241 -43.0128  -4.7877   1.1880   1.6520   1.6520
     2.7554   5.3299   5.3299   6.3470

          k =-0.3644-0.0000 0.1859 (  9185 PWs)   bands (ev):

   -44.0456 -44.0412 -43.0212 -43.0155  -4.5782  -0.0326   1.2236   1.7967
     3.0204   5.6144   5.9309   6.5838

          k = 0.0000 0.1562 0.0797 (  9205 PWs)   bands (ev):

   -44.0474 -44.0395 -43.0235 -43.0133  -4.7388   0.8898   1.2833   1.6805
     3.5066   4.5564   5.5672   6.3900

          k =-0.3644 0.1562 0.2655 (  9202 PWs)   bands (ev):

   -44.0453 -44.0414 -43.0209 -43.0158  -4.5300  -0.0497   1.0893   1.4568
     3.4833   4.7739   5.5971   7.3917

          k = 0.3644 0.1562-0.1062 (  9209 PWs)   bands (ev):

   -44.0454 -44.0414 -43.0209 -43.0158  -4.5847   0.1190   1.3622   1.6955
     3.2348   4.7772   5.0748   6.1563

          k = 0.0000 0.3123 0.1593 (  9189 PWs)   bands (ev):

   -44.0461 -44.0407 -43.0219 -43.0148  -4.6202   0.1571   1.2295   1.7631
     3.2429   5.1791   5.9814   6.5267

          k =-0.3644 0.3123 0.3452 (  9235 PWs)   bands (ev):

   -44.0446 -44.0420 -43.0200 -43.0165  -4.4753   0.1837   0.8170   1.2292
     3.5516   4.3483   5.0071   7.4157

          k = 0.3644 0.3123-0.0266 (  9201 PWs)   bands (ev):

   -44.0448 -44.0419 -43.0200 -43.0165  -4.5449   0.1774   1.5934   1.7123
     2.8590   3.5868   5.2236   5.8482

          k = 0.0000 0.4685 0.2390 (  9198 PWs)   bands (ev):

   -44.0443 -44.0424 -43.0196 -43.0171  -4.5143  -0.2833   1.2193   1.8521
     2.7205   5.6932   6.3872   6.6952

          k =-0.3644 0.4685 0.4249 (  9220 PWs)   bands (ev):

   -44.0437 -44.0429 -43.0188 -43.0176  -4.4559   0.3593   0.8061   1.4004
     2.9146   3.6728   5.4902   6.9108

          k = 0.3644 0.4685 0.0531 (  9229 PWs)   bands (ev):

   -44.0439 -44.0428 -43.0189 -43.0176  -4.4874   0.1991   1.4760   1.6751
     2.7206   2.9252   5.5054   6.5564

          k = 0.1562-0.1562-0.0000 (  9211 PWs)   bands (ev):

   -44.0470 -44.0398 -43.0230 -43.0138  -4.7177   0.8105   1.3154   1.6751
     3.9582   4.1187   5.1557   5.9334

          k =-0.2082-0.1562 0.1859 (  9194 PWs)   bands (ev):

   -44.0466 -44.0402 -43.0226 -43.0142  -4.6386   0.3551   1.2028   1.4276
     4.0732   4.5923   5.1892   6.7543

          k = 0.5206-0.1562-0.1859 (  9202 PWs)   bands (ev):

   -44.0437 -44.0430 -43.0187 -43.0179  -4.4967  -0.1786   1.1968   1.6211
     3.0936   4.4457   5.8758   7.2444

          k =-0.2082-0.0000 0.2655 (  9201 PWs)   bands (ev):

   -44.0469 -44.0399 -43.0231 -43.0137  -4.6112   0.1158   0.9575   1.4836
     3.9377   5.2405   6.3307   6.6319

          k = 0.5206-0.0000-0.1062 (  9188 PWs)   bands (ev):

   -44.0438 -44.0430 -43.0188 -43.0179  -4.5100  -0.2038   0.8998   1.8837
     3.2006   5.6924   5.8107   6.5866

          k = 0.1562 0.1562 0.1593 (  9202 PWs)   bands (ev):

   -44.0469 -44.0399 -43.0230 -43.0138  -4.6739   0.5078   1.2421   1.4770
     4.0254   4.5342   5.2669   6.6197

          k =-0.2082 0.1562 0.3452 (  9204 PWs)   bands (ev):

   -44.0465 -44.0402 -43.0226 -43.0142  -4.5361  -0.0696   0.8746   1.1241
     4.5568   5.3204   5.5550   7.3942

          k = 0.5206 0.1562-0.0266 (  9200 PWs)   bands (ev):

   -44.0437 -44.0430 -43.0187 -43.0179  -4.5028  -0.0473   0.8618   1.7325
     3.4360   4.6182   5.6165   6.3493

          k = 0.1562 0.3123 0.2390 (  9198 PWs)   bands (ev):

   -44.0458 -44.0410 -43.0215 -43.0152  -4.5633   0.0668   1.1140   1.4274
     3.6725   4.9243   5.2599   7.1828

          k =-0.2082 0.3123 0.4249 (  9222 PWs)   bands (ev):

   -44.0455 -44.0412 -43.0213 -43.0154  -4.4679  -0.0200   0.5976   1.0581
     4.4110   4.9246   5.9134   7.3735

          k = 0.5206 0.3123 0.0531 (  9224 PWs)   bands (ev):

   -44.0436 -44.0431 -43.0185 -43.0179  -4.4802   0.1568   1.1840   1.5425
     3.0349   3.3238   5.6720   6.5401

          k = 0.1562-0.6247-0.2390 (  9205 PWs)   bands (ev):

   -44.0442 -44.0425 -43.0194 -43.0172  -4.4894  -0.1898   1.1033   1.5394
     3.2141   4.5198   6.0463   7.5572

          k =-0.2082-0.6247-0.0531 (  9217 PWs)   bands (ev):

   -44.0441 -44.0426 -43.0193 -43.0173  -4.4612   0.0500   0.5713   1.4118
     3.7801   4.3680   5.9785   6.8611

          k = 0.5206-0.6247-0.4249 (  9223 PWs)   bands (ev):

   -44.0434 -44.0432 -43.0183 -43.0181  -4.4593   0.4080   1.2442   1.7567
     2.2068   3.0041   5.3324   6.5998

          k = 0.1562-0.4685-0.1593 (  9207 PWs)   bands (ev):

   -44.0443 -44.0424 -43.0194 -43.0171  -4.5181  -0.1143   1.2597   1.6535
     3.0912   4.4988   5.6315   6.9028

          k =-0.2082-0.4685 0.0266 (  9210 PWs)   bands (ev):

   -44.0442 -44.0425 -43.0193 -43.0172  -4.5215   0.0371   1.1473   1.7207
     3.2004   4.1495   5.5947   5.9403

          k = 0.5206-0.4685-0.3452 (  9221 PWs)   bands (ev):

   -44.0434 -44.0433 -43.0183 -43.0181  -4.4562   0.5809   0.8615   1.7618
     2.2189   3.6235   4.6982   6.3665

          k = 0.1562-0.3123-0.0797 (  9194 PWs)   bands (ev):

   -44.0459 -44.0409 -43.0215 -43.0151  -4.6229   0.2782   1.3820   1.7022
     3.3954   4.7959   4.9752   5.8329

          k =-0.2082-0.3123 0.1062 (  9203 PWs)   bands (ev):

   -44.0457 -44.0411 -43.0213 -43.0154  -4.6000   0.2402   1.4301   1.5925
     3.4311   4.5396   4.7517   6.0358

          k = 0.5206-0.3123-0.2655 (  9213 PWs)   bands (ev):

   -44.0435 -44.0431 -43.0185 -43.0180  -4.4730   0.1284   1.0752   1.5932
     3.0739   3.5648   4.9710   7.0485

          k = 0.3123-0.3123-0.0000 (  9196 PWs)   bands (ev):

   -44.0451 -44.0416 -43.0205 -43.0161  -4.5696   0.2151   1.5820   1.7215
     2.9542   3.8795   5.1919   5.5523

          k =-0.0521-0.3123 0.1859 (  9195 PWs)   bands (ev):

   -44.0461 -44.0407 -43.0219 -43.0149  -4.6059   0.1121   1.1859   1.7007
     3.2988   5.2966   5.7416   6.7944

          k = 0.6767-0.3123-0.1859 (  9222 PWs)   bands (ev):

   -44.0443 -44.0424 -43.0195 -43.0170  -4.4648   0.2067   0.7984   1.2933
     3.3512   4.0987   5.2393   7.2192

          k =-0.0521-0.1562 0.2655 (  9199 PWs)   bands (ev):

   -44.0472 -44.0396 -43.0235 -43.0134  -4.6273   0.1377   1.0687   1.3909
     4.0038   5.3112   6.0174   6.9266

          k = 0.6767-0.1562-0.1062 (  9206 PWs)   bands (ev):

   -44.0447 -44.0420 -43.0202 -43.0165  -4.4623  -0.0623   0.4862   1.4259
     3.9637   4.8753   6.0667   7.2342

          k =-0.0521-0.0000 0.3452 (  9204 PWs)   bands (ev):

   -44.0476 -44.0392 -43.0241 -43.0129  -4.5848  -0.2252   1.1747   1.2255
     3.9960   6.2491   6.5635   6.8482

          k = 0.6767-0.0000-0.0266 (  9222 PWs)   bands (ev):

   -44.0448 -44.0419 -43.0204 -43.0163  -4.4574  -0.0598   0.1468   1.6387
     4.2739   5.4587   6.2783   6.5380

          k =-0.0521 0.1562 0.4249 (  9214 PWs)   bands (ev):

   -44.0471 -44.0396 -43.0235 -43.0134  -4.5084  -0.3920   0.8278   1.1807
     4.5701   5.7767   6.3990   7.2951

          k = 0.6767 0.1562 0.0531 (  9212 PWs)   bands (ev):

   -44.0447 -44.0420 -43.0202 -43.0165  -4.4549   0.0152   0.3227   1.4101
     4.1331   4.9360   5.9903   7.2619

          k = 0.3123-0.7808-0.2390 (  9240 PWs)   bands (ev):

   -44.0450 -44.0417 -43.0205 -43.0161  -4.4923   0.1408   0.9002   1.1919
     3.7827   4.5614   4.7675   7.6393

          k =-0.0521-0.7808-0.0531 (  9216 PWs)   bands (ev):

   -44.0459 -44.0408 -43.0219 -43.0149  -4.4555  -0.2094   0.2611   1.3929
     4.7734   5.4779   6.3286   6.8307

          k = 0.6767-0.7808-0.4249 (  9225 PWs)   bands (ev):

   -44.0442 -44.0424 -43.0195 -43.0170  -4.4559   0.2567   0.7093   1.1726
     3.4474   4.0736   5.6194   7.2417

          k = 0.3123-0.6247-0.1593 (  9220 PWs)   bands (ev):

   -44.0439 -44.0428 -43.0190 -43.0175  -4.4619   0.1975   0.8623   1.3771
     3.1940   3.8473   5.3779   7.1275

          k =-0.0521-0.6247 0.0266 (  9203 PWs)   bands (ev):

   -44.0442 -44.0425 -43.0196 -43.0171  -4.4682  -0.1068   0.3444   1.7140
     3.9757   5.4206   5.8558   6.8822

          k = 0.6767-0.6247-0.3452 (  9229 PWs)   bands (ev):

   -44.0436 -44.0430 -43.0187 -43.0178  -4.4587   0.5034   0.7357   1.6804
     2.5170   3.8304   4.7627   6.5914

          k = 0.3123-0.4685-0.0797 (  9223 PWs)   bands (ev):

   -44.0440 -44.0427 -43.0190 -43.0174  -4.4975   0.1398   1.3509   1.6349
     2.9684   3.2952   5.3043   6.5734

          k =-0.0521-0.4685 0.1062 (  9191 PWs)   bands (ev):

   -44.0444 -44.0424 -43.0196 -43.0171  -4.5358  -0.1354   1.0815   1.8794
     3.0934   5.4945   5.6208   6.7161

          k = 0.6767-0.4685-0.2655 (  9229 PWs)   bands (ev):

   -44.0437 -44.0430 -43.0187 -43.0177  -4.4627   0.4518   0.8158   1.7314
     2.5051   4.0169   4.3691   6.6011

          k = 0.4685-0.4685-0.0000 (  9240 PWs)   bands (ev):

   -44.0436 -44.0430 -43.0185 -43.0179  -4.4678   0.2895   1.7528   1.7531
     2.2905   2.3571   6.0043   6.6993

          k = 0.1041-0.4685 0.1859 (  9199 PWs)   bands (ev):

   -44.0443 -44.0424 -43.0195 -43.0171  -4.5198  -0.1927   1.2560   1.7308
     2.9286   4.9678   5.9469   7.1054

          k = 0.8329-0.4685-0.1859 (  9212 PWs)   bands (ev):

   -44.0440 -44.0427 -43.0192 -43.0173  -4.4700   0.0401   0.9498   1.3885
     3.4336   3.9085   5.4809   7.3847

          k = 0.1041-0.3123 0.2655 (  9201 PWs)   bands (ev):

   -44.0459 -44.0408 -43.0217 -43.0150  -4.5587  -0.0021   0.9770   1.5102
     3.6159   5.3325   5.6270   7.2518

          k = 0.8329-0.3123-0.1062 (  9221 PWs)   bands (ev):

   -44.0452 -44.0415 -43.0209 -43.0157  -4.4553   0.0774   0.6380   0.8858
     4.3053   4.7478   5.9581   7.6368

          k = 0.1041-0.1562 0.3452 (  9210 PWs)   bands (ev):

   -44.0470 -44.0397 -43.0233 -43.0135  -4.5582  -0.1388   0.9551   1.1843
     4.4146   5.5790   5.8910   7.3756

          k = 0.8329-0.1562-0.0266 (  9208 PWs)   bands (ev):

   -44.0461 -44.0406 -43.0221 -43.0146  -4.4501  -0.2427   0.4992   1.0441
     5.0673   5.3030   6.3134   6.9912

          k = 0.1041-0.0000 0.4249 (  9196 PWs)   bands (ev):

   -44.0474 -44.0394 -43.0239 -43.0130  -4.5179  -0.4551   0.9710   1.1642
     4.3613   6.0516   6.5234   7.3448

          k = 0.8329-0.0000 0.0531 (  9219 PWs)   bands (ev):

   -44.0464 -44.0403 -43.0226 -43.0143  -4.4607  -0.3449   0.4025   1.3257
     4.9660   5.4602   6.3911   7.0504

          k = 0.1041-0.9370-0.0531 (  9208 PWs)   bands (ev):

   -44.0470 -44.0398 -43.0233 -43.0136  -4.4694  -0.4881   0.7956   1.0317
     4.8885   5.7305   6.4112   7.3489

          k = 0.8329-0.9370-0.4249 (  9215 PWs)   bands (ev):

   -44.0461 -44.0406 -43.0221 -43.0146  -4.4804  -0.1627   0.6122   1.1051
     4.7102   5.2865   6.0530   7.0824

          k = 0.1041-0.7808 0.0266 (  9214 PWs)   bands (ev):

   -44.0458 -44.0409 -43.0218 -43.0150  -4.4500  -0.1725   0.2754   1.2923
     4.8563   5.3789   6.1915   7.0001

          k = 0.8329-0.7808-0.3452 (  9225 PWs)   bands (ev):

   -44.0453 -44.0414 -43.0209 -43.0157  -4.4917   0.0796   0.8705   1.0740
     4.0633   4.6451   5.1751   7.8355

          k = 0.4685-0.6247-0.0797 (  9226 PWs)   bands (ev):

   -44.0435 -44.0432 -43.0184 -43.0179  -4.4521   0.4380   1.0612   1.5350
     2.4563   3.0498   6.0510   6.6458

          k = 0.1041-0.6247 0.1062 (  9209 PWs)   bands (ev):

   -44.0442 -44.0425 -43.0195 -43.0171  -4.4721  -0.1604   0.5782   1.6494
     3.6737   5.1469   6.0067   7.0741

          k = 0.8329-0.6247-0.2655 (  9219 PWs)   bands (ev):

   -44.0440 -44.0426 -43.0192 -43.0173  -4.4857   0.0092   1.1835   1.4705
     3.4059   3.6209   5.2285   7.4034

     the Fermi energy is     1.9486 ev

!    total energy              =     -66.05909177 Ry
     estimated scf accuracy    <          2.9E-09 Ry
     smearing contrib. (-TS)   =       0.00329470 Ry
     internal energy E=F+TS    =     -66.06238648 Ry

     The total energy is F=E-TS. E is the sum of the following terms:
     one-electron contribution =     -36.45233372 Ry
     hartree contribution      =      15.63340675 Ry
     xc contribution           =     -16.67258158 Ry
     ewald contribution        =     -28.57087793 Ry

     convergence has been achieved in   9 iterations

     Forces acting on atoms (cartesian axes, Ry/au):

     atom    1 type  1   force =    -0.00000000    0.00000000   -0.05041722
     atom    2 type  1   force =    -0.00000000   -0.00000000    0.05041722
     atom    3 type  1   force =     0.00000000    0.00000000    0.00000000
     atom    4 type  1   force =     0.00000000   -0.00000000    0.00000000
     atom    5 type  2   force =     0.00000000    0.00000000   -0.00000000
     The non-local contrib.  to forces
     atom    1 type  1   force =     0.00000000   -0.00000000   -0.12454585
     atom    2 type  1   force =    -0.00000000    0.00000000    0.12454585
     atom    3 type  1   force =    -0.00000000   -0.00000000   -0.00000000
     atom    4 type  1   force =     0.00000000    0.00000000    0.00000000
     atom    5 type  2   force =     0.00000000   -0.00000000   -0.00000000
     The ionic contribution  to forces
     atom    1 type  1   force =     0.00000000   -0.00000000   -0.68426419
     atom    2 type  1   force =    -0.00000000   -0.00000000    0.68426419
     atom    3 type  1   force =    -0.00000000    0.00000000    0.00000000
     atom    4 type  1   force =     0.00000000   -0.00000000   -0.00000000
     atom    5 type  2   force =     0.00000000   -0.00000000   -0.00000000
     The local contribution  to forces
     atom    1 type  1   force =     0.00000000    0.00000000    0.75839342
     atom    2 type  1   force =     0.00000000    0.00000000   -0.75839342
     atom    3 type  1   force =     0.00000000    0.00000000    0.00000000
     atom    4 type  1   force =     0.00000000    0.00000000   -0.00000000
     atom    5 type  2   force =     0.00000000    0.00000000    0.00000000
     The core correction contribution to forces
     atom    1 type  1   force =     0.00000000    0.00000000    0.00000000
     atom    2 type  1   force =     0.00000000    0.00000000    0.00000000
     atom    3 type  1   force =     0.00000000    0.00000000    0.00000000
     atom    4 type  1   force =     0.00000000    0.00000000    0.00000000
     atom    5 type  2   force =     0.00000000    0.00000000   -0.00000000
     The Hubbard contrib.    to forces
     atom    1 type  1   force =     0.00000000    0.00000000    0.00000000
     atom    2 type  1   force =     0.00000000    0.00000000    0.00000000
     atom    3 type  1   force =     0.00000000    0.00000000    0.00000000
     atom    4 type  1   force =     0.00000000    0.00000000    0.00000000
     atom    5 type  2   force =     0.00000000    0.00000000    0.00000000
     The SCF correction term to forces
     atom    1 type  1   force =     0.00000000    0.00000000   -0.00000060
     atom    2 type  1   force =    -0.00000000   -0.00000000    0.00000060
     atom    3 type  1   force =     0.00000000    0.00000000   -0.00000000
     atom    4 type  1   force =     0.00000000    0.00000000   -0.00000000
     atom    5 type  2   force =    -0.00000000    0.00000000    0.00000000

     Total force =     0.071301     Total SCF correction =     0.000001


     Computing stress (Cartesian axis) and pressure

          total   stress  (Ry/bohr**3)                   (kbar)     P=       78.46
   0.00054606  -0.00000000  -0.00000000           80.33       -0.00       -0.00
  -0.00000000   0.00054606   0.00000000           -0.00       80.33        0.00
   0.00000000  -0.00000000   0.00050786            0.00       -0.00       74.71

     Energy error            =      5.7E-01 Ry
     Gradient error          =      5.0E-02 Ry/Bohr
     Cell gradient error     =      4.3E+02 kbar

     number of scf cycles    =   2
     number of bfgs steps    =   1

     enthalpy           old  =     -63.5042306399 Ry
     enthalpy           new  =     -64.0783170543 Ry

     CASE: enthalpy          _new < enthalpy          _old

     new trust radius        =       0.6836662811 bohr
ibrav =      7
 celldm(1) =      7.23622912
 celldm(3) =      1.95547645
Input lattice vectors:
     0.39361133    -0.39361133     0.76969768
     0.39361133     0.39361133     0.76969768
    -0.39361133    -0.39361133     0.76969768
New lattice vectors in INITIAL alat:
     0.39361133    -0.39361133     0.76969768
     0.39361133     0.39361133     0.76969768
    -0.39361133    -0.39361133     0.76969768
New lattice vectors in NEW alat (for information only):
     0.50000000    -0.50000000     0.97773822
     0.50000000     0.50000000     0.97773822
    -0.50000000    -0.50000000     0.97773822
Discrepancy in bohr =     0.000000    0.000000    0.000000
     new conv_thr            =       0.0000000050 Ry

     new unit-cell volume =    370.47553 a.u.^3 (    54.89881 Ang^3 )
     density =      1.68929 g/cm^3

CELL_PARAMETERS (alat=  9.19209964)
   0.393611330  -0.393611330   0.769697684
   0.393611330   0.393611330   0.769697684
  -0.393611330  -0.393611330   0.769697684

ATOMIC_POSITIONS (crystal)
Li            0.0000000000        0.2372348581        0.2372348581
Li            0.0000000000        0.7627651419        0.7627651419
Li           -0.5000000000        0.5000000000        0.0000000000
Li            0.5000000000        0.0000000000       -0.5000000000
Si            0.0000000000        0.5000000000        0.5000000000



     Writing config-only to output data dir ./output/LiSi.save/
     NEW-OLD atomic charge density approx. for the potential

     negative rho (up, down):  1.541E-02 0.000E+00
     extrapolated charge    6.84254, renormalised to   16.00000

     total cpu time spent up to now is       52.7 secs

     Self-consistent Calculation

     iteration #  1     ecut=    80.00 Ry     beta= 0.70
     Davidson diagonalization with overlap
     c_bands:  1 eigenvalues not converged
     c_bands:  1 eigenvalues not converged
     c_bands:  1 eigenvalues not converged
     c_bands:  1 eigenvalues not converged
     c_bands:  1 eigenvalues not converged
     c_bands:  1 eigenvalues not converged
     c_bands:  1 eigenvalues not converged
     c_bands:  1 eigenvalues not converged
     c_bands:  1 eigenvalues not converged
     c_bands:  1 eigenvalues not converged
     c_bands:  1 eigenvalues not converged
     c_bands:  1 eigenvalues not converged
     c_bands:  1 eigenvalues not converged
     c_bands:  2 eigenvalues not converged
     c_bands:  1 eigenvalues not converged
     c_bands:  1 eigenvalues not converged
     c_bands:  1 eigenvalues not converged
     c_bands:  1 eigenvalues not converged
     c_bands:  1 eigenvalues not converged
     c_bands:  1 eigenvalues not converged
     c_bands:  1 eigenvalues not converged
     c_bands:  1 eigenvalues not converged
     c_bands:  1 eigenvalues not converged
     c_bands:  1 eigenvalues not converged
     c_bands:  1 eigenvalues not converged
     c_bands:  1 eigenvalues not converged
     c_bands:  1 eigenvalues not converged
     c_bands:  2 eigenvalues not converged
     c_bands:  1 eigenvalues not converged
     c_bands:  1 eigenvalues not converged
     c_bands:  1 eigenvalues not converged
     c_bands:  1 eigenvalues not converged
     c_bands:  1 eigenvalues not converged
     ethr =  1.00E-06,  avg # of iterations = 17.9

     negative rho (up, down):  1.526E-05 0.000E+00

     total cpu time spent up to now is       58.9 secs

     total energy              =     -64.61004737 Ry
     estimated scf accuracy    <       2.14555363 Ry

     iteration #  2     ecut=    80.00 Ry     beta= 0.70
     Davidson diagonalization with overlap
     ethr =  1.00E-02,  avg # of iterations =  2.4

     negative rho (up, down):  8.172E-07 0.000E+00

     total cpu time spent up to now is       61.0 secs

     total energy              =     -65.63721504 Ry
     estimated scf accuracy    <       1.08823701 Ry

     iteration #  3     ecut=    80.00 Ry     beta= 0.70
     Davidson diagonalization with overlap
     ethr =  6.80E-03,  avg # of iterations =  1.8

     total cpu time spent up to now is       62.6 secs

     total energy              =     -65.75872680 Ry
     estimated scf accuracy    <       0.02899521 Ry

     iteration #  4     ecut=    80.00 Ry     beta= 0.70
     Davidson diagonalization with overlap
     ethr =  1.81E-04,  avg # of iterations =  5.2

     total cpu time spent up to now is       64.5 secs

     total energy              =     -65.76314727 Ry
     estimated scf accuracy    <       0.00175050 Ry

     iteration #  5     ecut=    80.00 Ry     beta= 0.70
     Davidson diagonalization with overlap
     ethr =  1.09E-05,  avg # of iterations =  3.6

     total cpu time spent up to now is       66.5 secs

     total energy              =     -65.76347818 Ry
     estimated scf accuracy    <       0.00011680 Ry

     iteration #  6     ecut=    80.00 Ry     beta= 0.70
     Davidson diagonalization with overlap
     ethr =  7.30E-07,  avg # of iterations =  2.9

     total cpu time spent up to now is       68.2 secs

     total energy              =     -65.76348836 Ry
     estimated scf accuracy    <       0.00000591 Ry

     iteration #  7     ecut=    80.00 Ry     beta= 0.70
     Davidson diagonalization with overlap
     ethr =  3.69E-08,  avg # of iterations =  2.1

     total cpu time spent up to now is       69.8 secs

     total energy              =     -65.76349021 Ry
     estimated scf accuracy    <       0.00000149 Ry

     iteration #  8     ecut=    80.00 Ry     beta= 0.70
     Davidson diagonalization with overlap
     ethr =  9.28E-09,  avg # of iterations =  2.0

     total cpu time spent up to now is       71.5 secs

     total energy              =     -65.76349052 Ry
     estimated scf accuracy    <       0.00000002 Ry

     iteration #  9     ecut=    80.00 Ry     beta= 0.70
     Davidson diagonalization with overlap
     ethr =  1.04E-10,  avg # of iterations =  2.2

     total cpu time spent up to now is       73.1 secs

     End of self-consistent calculation

          k = 0.0000 0.0000 0.0000 (  9189 PWs)   bands (ev):

   -40.7838 -40.7272 -40.2898 -40.2330  -2.8252   3.3836   4.0688   4.0688
     6.9039   8.3538   8.3538  10.0502

          k =-0.4234 0.0000 0.2165 (  9185 PWs)   bands (ev):

   -40.7667 -40.7392 -40.2771 -40.2478  -2.5415   2.0435   3.5141   4.3025
     5.6948   9.1167  10.2878  10.4745

          k =-0.0000 0.1815 0.0928 (  9205 PWs)   bands (ev):

   -40.7802 -40.7295 -40.2875 -40.2359  -2.7614   3.2027   3.5848   4.1108
     7.1565   7.9594   8.6953  10.0849

          k =-0.4234 0.1815 0.3093 (  9202 PWs)   bands (ev):

   -40.7639 -40.7406 -40.2763 -40.2492  -2.4767   1.9744   3.3350   3.8329
     6.4069   7.8921   9.5512  12.0685

          k = 0.4234 0.1815-0.1237 (  9209 PWs)   bands (ev):

   -40.7659 -40.7399 -40.2751 -40.2491  -2.5699   2.2458   3.7146   4.2736
     5.7931   7.7301   9.0308  10.2847

          k =-0.0000 0.3629 0.1856 (  9189 PWs)   bands (ev):

   -40.7707 -40.7361 -40.2804 -40.2441  -2.6008   2.3058   3.5096   4.2444
     5.9810   9.2550   9.7134  10.3089

          k =-0.4234 0.3629 0.4021 (  9235 PWs)   bands (ev):

   -40.7589 -40.7439 -40.2723 -40.2532  -2.4248   2.2209   3.0419   3.4974
     6.4740   7.6767   8.3391  12.0819

          k = 0.4234 0.3629-0.0309 (  9201 PWs)   bands (ev):

   -40.7616 -40.7429 -40.2710 -40.2528  -2.5432   2.2640   4.1438   4.5615
     5.0769   6.1655   8.7480  10.5351

          k =-0.0000 0.5444 0.2784 (  9198 PWs)   bands (ev):

   -40.7584 -40.7462 -40.2694 -40.2560  -2.4484   1.6867   3.5248   4.4029
     5.3279   8.7037  10.6991  11.3785

          k =-0.4234 0.5444 0.4949 (  9220 PWs)   bands (ev):

   -40.7530 -40.7489 -40.2658 -40.2591  -2.4276   2.4662   2.9974   3.7522
     5.6471   6.7070   8.9975  11.5090

          k = 0.4234 0.5444 0.0619 (  9229 PWs)   bands (ev):

   -40.7552 -40.7475 -40.2655 -40.2587  -2.4810   2.2740   3.8747   4.4323
     5.0976   5.5283   9.1410  11.2066

          k = 0.1815-0.1815 0.0000 (  9211 PWs)   bands (ev):

   -40.7777 -40.7315 -40.2847 -40.2384  -2.7417   3.1534   3.6038   4.2272
     6.6930   8.3268   8.3670   9.2451

          k =-0.2420-0.1815 0.2165 (  9194 PWs)   bands (ev):

   -40.7737 -40.7334 -40.2842 -40.2405  -2.6236   2.5352   3.4375   3.8083
     7.1600   8.1002   8.8654  10.6348

          k = 0.6049-0.1815-0.2165 (  9202 PWs)   bands (ev):

   -40.7544 -40.7494 -40.2647 -40.2605  -2.4414   1.8130   3.4766   4.1214
     5.8543   7.3465   9.9161  11.4875

          k =-0.2420-0.0000 0.3093 (  9201 PWs)   bands (ev):

   -40.7745 -40.7319 -40.2878 -40.2383  -2.5617   2.1831   3.1155   3.7754
     7.3356   9.2535   9.8750  10.9842

          k = 0.6049-0.0000-0.1237 (  9188 PWs)   bands (ev):

   -40.7556 -40.7489 -40.2649 -40.2605  -2.4450   1.8121   3.0758   4.4582
     5.9223   8.8370   9.6117  10.9571

          k = 0.1815 0.1815 0.1856 (  9202 PWs)   bands (ev):

   -40.7762 -40.7317 -40.2858 -40.2385  -2.6713   2.7341   3.4850   3.8750
     7.3483   7.9342   8.9066  10.3212

          k =-0.2420 0.1815 0.4021 (  9204 PWs)   bands (ev):

   -40.7705 -40.7340 -40.2865 -40.2407  -2.4475   1.8951   3.0087   3.3285
     8.2323   8.9890   9.2301  11.8862

          k = 0.6049 0.1815-0.0309 (  9200 PWs)   bands (ev):

   -40.7552 -40.7487 -40.2645 -40.2606  -2.4523   2.0141   2.9954   4.3336
     6.1588   7.5924   9.8153  10.0578

          k = 0.1815 0.3629 0.2784 (  9198 PWs)   bands (ev):

   -40.7675 -40.7378 -40.2794 -40.2459  -2.5216   2.1386   3.3555   3.7922
     6.6329   8.1061   9.1801  11.5967

          k =-0.2420 0.3629 0.4949 (  9222 PWs)   bands (ev):

   -40.7633 -40.7396 -40.2796 -40.2475  -2.3659   1.9116   2.6994   3.2871
     7.7807   8.4359   9.6188  11.9740

          k = 0.6049 0.3629 0.0619 (  9224 PWs)   bands (ev):

   -40.7536 -40.7491 -40.2638 -40.2608  -2.4585   2.2277   3.4180   4.1583
     5.6192   6.1119   9.3583  11.0154

          k = 0.1815-0.7259-0.2784 (  9205 PWs)   bands (ev):

   -40.7566 -40.7471 -40.2690 -40.2565  -2.4243   1.7817   3.3584   3.9695
     6.0671   7.5037  10.0841  12.1571

          k =-0.2420-0.7259-0.0619 (  9217 PWs)   bands (ev):

   -40.7547 -40.7481 -40.2690 -40.2570  -2.3886   2.0846   2.6131   3.8419
     6.7506   7.4989   9.9868  10.7858

          k = 0.6049-0.7259-0.4949 (  9223 PWs)   bands (ev):

   -40.7518 -40.7498 -40.2628 -40.2614  -2.4604   2.5527   3.5922   4.2819
     4.6168   5.7927   8.8311  11.1727

          k = 0.1815-0.5444-0.1856 (  9207 PWs)   bands (ev):

   -40.7583 -40.7460 -40.2683 -40.2566  -2.4746   1.9121   3.5624   4.1841
     5.7902   7.3903   9.6432  11.0935

          k =-0.2420-0.5444 0.0309 (  9210 PWs)   bands (ev):

   -40.7583 -40.7459 -40.2675 -40.2570  -2.4938   2.1160   3.3882   4.4118
     5.7548   6.9802   9.3490  10.2171

          k = 0.6049-0.5444-0.4021 (  9221 PWs)   bands (ev):

   -40.7510 -40.7506 -40.2626 -40.2618  -2.4552   2.7713   3.1068   4.2652
     4.6347   6.6158   7.9550  10.9871

          k = 0.1815-0.3629-0.0928 (  9194 PWs)   bands (ev):

   -40.7695 -40.7373 -40.2781 -40.2457  -2.6216   2.4621   3.7404   4.2982
     5.9006   8.0020   8.7759   9.8227

          k =-0.2420-0.3629 0.1237 (  9203 PWs)   bands (ev):

   -40.7677 -40.7384 -40.2769 -40.2471  -2.5950   2.3878   3.8143   4.1644
     5.9589   7.4586   8.5571  10.3206

          k = 0.6049-0.3629-0.3093 (  9213 PWs)   bands (ev):

   -40.7525 -40.7500 -40.2639 -40.2609  -2.4461   2.1783   3.3791   4.0604
     5.6499   6.5520   8.4630  11.6687

          k = 0.3629-0.3629 0.0000 (  9196 PWs)   bands (ev):

   -40.7640 -40.7411 -40.2731 -40.2506  -2.5712   2.3223   4.1281   4.5908
     5.1126   6.5409   8.6403  10.2601

          k =-0.0605-0.3629 0.2165 (  9195 PWs)   bands (ev):

   -40.7701 -40.7364 -40.2805 -40.2443  -2.5789   2.2330   3.4480   4.1547
     6.0919   9.0389   9.7172  10.5889

          k = 0.7864-0.3629-0.2165 (  9222 PWs)   bands (ev):

   -40.7564 -40.7460 -40.2697 -40.2557  -2.4187   2.2529   3.0035   3.6030
     6.2046   7.2987   8.6713  11.8574

          k =-0.0605-0.1815 0.3093 (  9199 PWs)   bands (ev):

   -40.7764 -40.7304 -40.2898 -40.2364  -2.5805   2.1981   3.2470   3.6449
     7.7733   8.9262   9.6855  11.2611

          k = 0.7864-0.1815-0.1237 (  9206 PWs)   bands (ev):

   -40.7585 -40.7445 -40.2738 -40.2528  -2.3675   1.9049   2.5395   3.7990
     7.0780   8.1491  10.0890  11.4029

          k =-0.0605 0.0000 0.4021 (  9204 PWs)   bands (ev):

   -40.7771 -40.7284 -40.2944 -40.2336  -2.4910   1.6905   3.3087   3.3660
     8.0956  10.1230  10.6875  10.9678

          k = 0.7864-0.0000-0.0309 (  9222 PWs)   bands (ev):

   -40.7591 -40.7441 -40.2755 -40.2517  -2.3375   1.9200   2.0948   4.0282
     7.4835   9.2494   9.6130  11.4552

          k =-0.0605 0.1815 0.4949 (  9214 PWs)   bands (ev):

   -40.7729 -40.7310 -40.2925 -40.2366  -2.3684   1.4386   2.9076   3.3136
     8.6650   9.8386  10.5138  11.5389

          k = 0.7864 0.1815 0.0619 (  9212 PWs)   bands (ev):

   -40.7582 -40.7446 -40.2739 -40.2528  -2.3541   2.0009   2.3241   3.7772
     7.2916   8.2675  10.0288  11.1910

          k = 0.3629-0.9073-0.2784 (  9240 PWs)   bands (ev):

   -40.7612 -40.7420 -40.2746 -40.2510  -2.4401   2.1769   3.1488   3.4390
     6.7798   7.8817   8.1291  12.3532

          k =-0.0605-0.9073-0.0619 (  9216 PWs)   bands (ev):

   -40.7652 -40.7377 -40.2838 -40.2445  -2.3104   1.6322   2.2852   3.6443
     8.3108   9.4884  10.3259  11.0260

          k = 0.7864-0.9073-0.4949 (  9225 PWs)   bands (ev):

   -40.7560 -40.7462 -40.2698 -40.2558  -2.4030   2.3064   2.8614   3.4677
     6.3652   7.2657   9.1556  11.8418

          k = 0.3629-0.7259-0.1856 (  9220 PWs)   bands (ev):

   -40.7540 -40.7483 -40.2669 -40.2583  -2.4225   2.2551   3.0600   3.7514
     5.9736   6.9153   8.9143  11.7244

          k =-0.0605-0.7259 0.0309 (  9203 PWs)   bands (ev):

   -40.7556 -40.7478 -40.2707 -40.2558  -2.3683   1.9073   2.3253   4.1740
     7.0195   8.8945   9.5126  11.3173

          k = 0.7864-0.7259-0.4021 (  9229 PWs)   bands (ev):

   -40.7526 -40.7492 -40.2647 -40.2599  -2.4453   2.6445   2.9577   4.1184
     5.0594   6.9426   8.0144  11.2150

          k = 0.3629-0.5444-0.0928 (  9223 PWs)   bands (ev):

   -40.7562 -40.7469 -40.2663 -40.2581  -2.4833   2.2074   3.6864   4.3327
     5.4613   5.9627   8.9738  11.1281

          k =-0.0605-0.5444 0.1237 (  9191 PWs)   bands (ev):

   -40.7596 -40.7454 -40.2686 -40.2563  -2.4884   1.9174   3.3224   4.4706
     5.7308   8.5673   9.7922  10.4234

          k = 0.7864-0.5444-0.3093 (  9229 PWs)   bands (ev):

   -40.7530 -40.7489 -40.2647 -40.2598  -2.4519   2.5779   3.0692   4.2525
     4.9494   7.1523   7.5713  11.2240

          k = 0.5444-0.5444 0.0000 (  9240 PWs)   bands (ev):

   -40.7531 -40.7488 -40.2638 -40.2604  -2.4698   2.3964   4.3037   4.4512
     4.5609   4.8892   9.6503  11.4551

          k = 0.1210-0.5444 0.2165 (  9199 PWs)   bands (ev):

   -40.7586 -40.7460 -40.2688 -40.2563  -2.4671   1.8120   3.5714   4.2474
     5.5988   7.9571  10.2008  11.0862

          k = 0.9678-0.5444-0.2165 (  9212 PWs)   bands (ev):

   -40.7549 -40.7479 -40.2678 -40.2576  -2.4201   2.0590   3.1591   3.7821
     6.2992   6.9122   9.1307  11.9699

          k = 0.1210-0.3629 0.3093 (  9201 PWs)   bands (ev):

   -40.7680 -40.7372 -40.2808 -40.2450  -2.5041   2.0423   3.1671   3.8758
     6.6071   8.7284   9.7283  11.5715

          k = 0.9678-0.3629-0.1237 (  9221 PWs)   bands (ev):

   -40.7616 -40.7409 -40.2777 -40.2492  -2.3585   2.0143   2.7671   3.0834
     7.5996   8.2671   9.5707  12.1596

          k = 0.1210-0.1815 0.4021 (  9210 PWs)   bands (ev):

   -40.7737 -40.7314 -40.2903 -40.2374  -2.4659   1.8042   3.0868   3.3642
     8.3681   9.2615   9.7249  11.9342

          k = 0.9678-0.1815-0.0309 (  9208 PWs)   bands (ev):

   -40.7662 -40.7365 -40.2852 -40.2433  -2.3030   1.5794   2.5674   3.2165
     8.7888   9.2609  10.2798  11.3486

          k = 0.1210-0.0000 0.4949 (  9196 PWs)   bands (ev):

   -40.7746 -40.7295 -40.2947 -40.2347  -2.3743   1.3606   3.0526   3.2700
     8.5388  10.1433  10.9162  11.4895

          k = 0.9678-0.0000 0.0619 (  9219 PWs)   bands (ev):

   -40.7681 -40.7349 -40.2878 -40.2412  -2.3025   1.4614   2.4341   3.5203
     8.7550   9.6513  10.6423  10.8972

          k = 0.1210-1.0888-0.0619 (  9208 PWs)   bands (ev):

   -40.7712 -40.7318 -40.2921 -40.2375  -2.3004   1.2839   2.8673   3.1338
     9.1623   9.9334  10.3654  11.6503

          k = 0.9678-1.0888-0.4949 (  9215 PWs)   bands (ev):

   -40.7670 -40.7363 -40.2846 -40.2433  -2.3601   1.7254   2.6999   3.3035
     8.2921   9.0911   9.8710  11.4976

          k = 0.1210-0.9073 0.0309 (  9214 PWs)   bands (ev):

   -40.7646 -40.7381 -40.2831 -40.2452  -2.3072   1.6685   2.3096   3.5328
     8.4197   9.2550  10.1686  11.3489

          k = 0.9678-0.9073-0.4021 (  9225 PWs)   bands (ev):

   -40.7628 -40.7406 -40.2770 -40.2490  -2.4238   2.0876   3.0712   3.3014
     7.2310   8.0046   8.6374  12.6216

          k = 0.5444-0.7259-0.0928 (  9226 PWs)   bands (ev):

   -40.7512 -40.7503 -40.2636 -40.2610  -2.4435   2.6046   3.3022   3.8659
     5.1352   5.8854   9.6145  12.2210

          k = 0.1210-0.7259 0.1237 (  9209 PWs)   bands (ev):

   -40.7558 -40.7477 -40.2702 -40.2561  -2.3826   1.8142   2.6512   4.1101
     6.6406   8.3497  10.0791  11.2202

          k = 0.9678-0.7259-0.3093 (  9219 PWs)   bands (ev):

   -40.7558 -40.7473 -40.2674 -40.2575  -2.4474   2.0325   3.5165   3.8667
     6.2258   6.4643   8.8716  12.0434

     the Fermi energy is     4.5711 ev

!    total energy              =     -65.76349052 Ry
     estimated scf accuracy    <          4.5E-09 Ry
     smearing contrib. (-TS)   =       0.00174257 Ry
     internal energy E=F+TS    =     -65.76523309 Ry

     The total energy is F=E-TS. E is the sum of the following terms:
     one-electron contribution =     -28.99442120 Ry
     hartree contribution      =      13.75635727 Ry
     xc contribution           =     -17.16586523 Ry
     ewald contribution        =     -33.36130393 Ry

     convergence has been achieved in   9 iterations

     Forces acting on atoms (cartesian axes, Ry/au):

     atom    1 type  1   force =     0.00000000    0.00000000   -0.13981054
     atom    2 type  1   force =    -0.00000000   -0.00000000    0.13981054
     atom    3 type  1   force =    -0.00000000   -0.00000000   -0.00000000
     atom    4 type  1   force =    -0.00000000    0.00000000   -0.00000000
     atom    5 type  2   force =    -0.00000000    0.00000000   -0.00000000
     The non-local contrib.  to forces
     atom    1 type  1   force =    -0.00000000   -0.00000000   -0.08232636
     atom    2 type  1   force =    -0.00000000    0.00000000    0.08232636
     atom    3 type  1   force =    -0.00000000    0.00000000   -0.00000000
     atom    4 type  1   force =     0.00000000    0.00000000    0.00000000
     atom    5 type  2   force =    -0.00000000    0.00000000   -0.00000000
     The ionic contribution  to forces
     atom    1 type  1   force =    -0.00000000   -0.00000000   -0.80360988
     atom    2 type  1   force =    -0.00000000   -0.00000000    0.80360988
     atom    3 type  1   force =    -0.00000000   -0.00000000    0.00000000
     atom    4 type  1   force =    -0.00000000   -0.00000000   -0.00000000
     atom    5 type  2   force =    -0.00000000    0.00000000   -0.00000000
     The local contribution  to forces
     atom    1 type  1   force =     0.00000000    0.00000000    0.74606927
     atom    2 type  1   force =    -0.00000000   -0.00000000   -0.74606927
     atom    3 type  1   force =     0.00000000    0.00000000   -0.00000000
     atom    4 type  1   force =     0.00000000   -0.00000000    0.00000000
     atom    5 type  2   force =    -0.00000000    0.00000000    0.00000000
     The core correction contribution to forces
     atom    1 type  1   force =     0.00000000    0.00000000    0.00000000
     atom    2 type  1   force =     0.00000000    0.00000000    0.00000000
     atom    3 type  1   force =     0.00000000    0.00000000    0.00000000
     atom    4 type  1   force =     0.00000000    0.00000000    0.00000000
     atom    5 type  2   force =    -0.00000000   -0.00000000   -0.00000000
     The Hubbard contrib.    to forces
     atom    1 type  1   force =     0.00000000    0.00000000    0.00000000
     atom    2 type  1   force =     0.00000000    0.00000000    0.00000000
     atom    3 type  1   force =     0.00000000    0.00000000    0.00000000
     atom    4 type  1   force =     0.00000000    0.00000000    0.00000000
     atom    5 type  2   force =     0.00000000    0.00000000    0.00000000
     The SCF correction term to forces
     atom    1 type  1   force =    -0.00000000   -0.00000000    0.00005644
     atom    2 type  1   force =     0.00000000    0.00000000   -0.00005644
     atom    3 type  1   force =     0.00000000   -0.00000000   -0.00000000
     atom    4 type  1   force =    -0.00000000    0.00000000   -0.00000000
     atom    5 type  2   force =     0.00000000   -0.00000000   -0.00000000

     Total force =     0.197722     Total SCF correction =     0.000080


     Computing stress (Cartesian axis) and pressure

          total   stress  (Ry/bohr**3)                   (kbar)     P=      443.86
   0.00311337  -0.00000000  -0.00000000          457.99       -0.00       -0.00
  -0.00000000   0.00311337   0.00000000           -0.00      457.99        0.00
  -0.00000000   0.00000000   0.00282514           -0.00        0.00      415.59

     Energy error            =      4.3E-01 Ry
     Gradient error          =      1.4E-01 Ry/Bohr
     Cell gradient error     =      8.4E+01 kbar

     number of scf cycles    =   3
     number of bfgs steps    =   2

     enthalpy           old  =     -64.0783170543 Ry
     enthalpy           new  =     -64.5042698056 Ry

     CASE: enthalpy          _new < enthalpy          _old

     new trust radius        =       0.1250065080 bohr
ibrav =      7
 celldm(1) =      7.05123493
 celldm(3) =      1.94161354
Input lattice vectors:
     0.38354866    -0.38354866     0.74470327
     0.38354866     0.38354866     0.74470327
    -0.38354866    -0.38354866     0.74470327
New lattice vectors in INITIAL alat:
     0.38354866    -0.38354866     0.74470327
     0.38354866     0.38354866     0.74470327
    -0.38354866    -0.38354866     0.74470327
New lattice vectors in NEW alat (for information only):
     0.50000000    -0.50000000     0.97080677
     0.50000000     0.50000000     0.97080677
    -0.50000000    -0.50000000     0.97080677
Discrepancy in bohr =     0.000000    0.000000    0.000000
     new conv_thr            =       0.0000000100 Ry

     new unit-cell volume =    340.35203 a.u.^3 (    50.43497 Ang^3 )
     density =      1.83881 g/cm^3

CELL_PARAMETERS (alat=  9.19209964)
   0.383548656  -0.383548656   0.744703265
   0.383548656   0.383548656   0.744703265
  -0.383548656  -0.383548656   0.744703265

ATOMIC_POSITIONS (crystal)
Li           -0.0000000000        0.2297587625        0.2297587625
Li           -0.0000000000        0.7702412375        0.7702412375
Li           -0.5000000000        0.5000000000        0.0000000000
Li            0.5000000000       -0.0000000000       -0.5000000000
Si           -0.0000000000        0.5000000000        0.5000000000



     Writing config-only to output data dir ./output/LiSi.save/
     NEW-OLD atomic charge density approx. for the potential
     extrapolated charge   14.58556, renormalised to   16.00000

     total cpu time spent up to now is       76.9 secs

     Self-consistent Calculation

     iteration #  1     ecut=    80.00 Ry     beta= 0.70
     Davidson diagonalization with overlap
     c_bands:  1 eigenvalues not converged
     ethr =  1.00E-06,  avg # of iterations =  8.7

     total cpu time spent up to now is       80.6 secs

     total energy              =     -65.66023039 Ry
     estimated scf accuracy    <       0.01260466 Ry

     iteration #  2     ecut=    80.00 Ry     beta= 0.70
     Davidson diagonalization with overlap
     ethr =  7.88E-05,  avg # of iterations =  3.4

     total cpu time spent up to now is       82.7 secs

     total energy              =     -65.69259049 Ry
     estimated scf accuracy    <       0.03367018 Ry

     iteration #  3     ecut=    80.00 Ry     beta= 0.70
     Davidson diagonalization with overlap
     ethr =  7.88E-05,  avg # of iterations =  1.8

     total cpu time spent up to now is       84.2 secs

     total energy              =     -65.69178339 Ry
     estimated scf accuracy    <       0.00723914 Ry

     iteration #  4     ecut=    80.00 Ry     beta= 0.70
     Davidson diagonalization with overlap
     ethr =  4.52E-05,  avg # of iterations =  1.0

     total cpu time spent up to now is       85.5 secs

     total energy              =     -65.69171820 Ry
     estimated scf accuracy    <       0.00104534 Ry

     iteration #  5     ecut=    80.00 Ry     beta= 0.70
     Davidson diagonalization with overlap
     ethr =  6.53E-06,  avg # of iterations =  2.4

     total cpu time spent up to now is       87.2 secs

     total energy              =     -65.69191664 Ry
     estimated scf accuracy    <       0.00000363 Ry

     iteration #  6     ecut=    80.00 Ry     beta= 0.70
     Davidson diagonalization with overlap
     ethr =  2.27E-08,  avg # of iterations =  3.8

     total cpu time spent up to now is       89.1 secs

     total energy              =     -65.69191944 Ry
     estimated scf accuracy    <       0.00000105 Ry

     iteration #  7     ecut=    80.00 Ry     beta= 0.70
     Davidson diagonalization with overlap
     ethr =  6.56E-09,  avg # of iterations =  2.0

     total cpu time spent up to now is       90.7 secs

     total energy              =     -65.69191971 Ry
     estimated scf accuracy    <       0.00000045 Ry

     iteration #  8     ecut=    80.00 Ry     beta= 0.70
     Davidson diagonalization with overlap
     ethr =  2.82E-09,  avg # of iterations =  2.0

     total cpu time spent up to now is       92.3 secs

     End of self-consistent calculation

          k = 0.0000 0.0000 0.0000 (  9189 PWs)   bands (ev):

   -40.0440 -39.9550 -39.7427 -39.6844  -2.2919   4.0053   4.6837   4.6837
     8.0472   9.0796   9.0796  10.7265

          k =-0.4345 0.0000 0.2238 (  9185 PWs)   bands (ev):

   -40.0131 -39.9707 -39.7348 -39.7032  -1.9959   2.5900   4.0821   4.9431
     6.4035   9.7870  11.2459  11.5599

          k =-0.0000 0.1862 0.0959 (  9205 PWs)   bands (ev):

   -40.0373 -39.9580 -39.7415 -39.6881  -2.2262   3.8172   4.1964   4.7287
     7.8976   9.0539   9.4473  10.7857

          k =-0.4345 0.1862 0.3197 (  9202 PWs)   bands (ev):

   -40.0068 -39.9728 -39.7361 -39.7051  -1.9246   2.4987   3.8911   4.4263
     7.1672   8.5727  10.5269  13.0996

          k = 0.4345 0.1862-0.1279 (  9209 PWs)   bands (ev):

   -40.0125 -39.9713 -39.7319 -39.7051  -2.0314   2.8156   4.2828   4.9296
     6.4787   8.3437   9.9477  11.4124

          k =-0.0000 0.3725 0.1918 (  9189 PWs)   bands (ev):

   -40.0200 -39.9667 -39.7372 -39.6986  -2.0586   2.8715   4.0895   4.8770
     6.6855   9.9891  10.9156  11.0814

          k =-0.4345 0.3725 0.4156 (  9235 PWs)   bands (ev):

   -39.9973 -39.9768 -39.7335 -39.7107  -1.8714   2.7326   3.5952   4.0366
     7.1642   8.5175   9.1876  13.2449

          k = 0.4345 0.3725-0.0320 (  9201 PWs)   bands (ev):

   -40.0046 -39.9749 -39.7287 -39.7101  -2.0082   2.8239   4.7501   5.2537
     5.6728   6.7044   9.6983  11.7507

          k =-0.0000 0.5587 0.2877 (  9198 PWs)   bands (ev):

   -39.9992 -39.9804 -39.7283 -39.7128  -1.8964   2.2042   4.0731   5.0593
     6.0475   9.3052  11.6116  12.6422

          k =-0.4345 0.5587 0.5115 (  9220 PWs)   bands (ev):

   -39.9883 -39.9834 -39.7266 -39.7181  -1.8805   2.9933   3.5274   4.2885
     6.3165   7.4877   9.8683  12.7629

          k = 0.4345 0.5587 0.0639 (  9229 PWs)   bands (ev):

   -39.9933 -39.9808 -39.7246 -39.7176  -1.9426   2.8168   4.4109   5.0645
     5.6939   6.2006  10.1020  12.3917

          k = 0.1862-0.1862 0.0000 (  9211 PWs)   bands (ev):

   -40.0333 -39.9604 -39.7388 -39.6914  -2.2090   3.7705   4.2251   4.8765
     7.3094   9.1713   9.4847   9.9221

          k =-0.2483-0.1862 0.2238 (  9194 PWs)   bands (ev):

   -40.0243 -39.9632 -39.7415 -39.6941  -2.0796   3.1087   4.0128   4.4034
     7.8710   8.9780   9.7175  11.6645

          k = 0.6208-0.1862-0.2238 (  9202 PWs)   bands (ev):

   -39.9934 -39.9841 -39.7239 -39.7180  -1.8918   2.3346   4.0141   4.7537
     6.6163   7.9616  10.8822  12.4885

          k =-0.2483-0.0000 0.3197 (  9201 PWs)   bands (ev):

   -40.0236 -39.9617 -39.7477 -39.6912  -2.0044   2.7168   3.6658   4.3491
[...]
     Davidson diagonalization with overlap
     ethr =  5.94E-04,  avg # of iterations =  2.0

     total cpu time spent up to now is      218.3 secs

     total energy              =     -65.76483609 Ry
     estimated scf accuracy    <       0.02458224 Ry

     iteration #  3     ecut=    80.00 Ry     beta= 0.70
     Davidson diagonalization with overlap
     ethr =  1.54E-04,  avg # of iterations =  2.0

     total cpu time spent up to now is      219.1 secs

     total energy              =     -65.76937584 Ry
     estimated scf accuracy    <       0.00046785 Ry

     iteration #  4     ecut=    80.00 Ry     beta= 0.70
     Davidson diagonalization with overlap
     ethr =  2.92E-06,  avg # of iterations =  3.7

     total cpu time spent up to now is      219.9 secs

     total energy              =     -65.76941107 Ry
     estimated scf accuracy    <       0.00002168 Ry

     iteration #  5     ecut=    80.00 Ry     beta= 0.70
     Davidson diagonalization with overlap
     ethr =  1.35E-07,  avg # of iterations =  2.0

     total cpu time spent up to now is      220.6 secs

     total energy              =     -65.76941329 Ry
     estimated scf accuracy    <       0.00000010 Ry

     iteration #  6     ecut=    80.00 Ry     beta= 0.70
     Davidson diagonalization with overlap
     ethr =  6.21E-10,  avg # of iterations =  3.5

     total cpu time spent up to now is      221.5 secs

     total energy              =     -65.76941335 Ry
     estimated scf accuracy    <          2.7E-09 Ry

     iteration #  7     ecut=    80.00 Ry     beta= 0.70
     Davidson diagonalization with overlap
     ethr =  1.72E-11,  avg # of iterations =  2.3

     total cpu time spent up to now is      222.3 secs

     total energy              =     -65.76941335 Ry
     estimated scf accuracy    <          2.0E-10 Ry

     iteration #  8     ecut=    80.00 Ry     beta= 0.70
     Davidson diagonalization with overlap
     ethr =  1.28E-12,  avg # of iterations =  2.1

     total cpu time spent up to now is      223.0 secs

     End of self-consistent calculation

          k = 0.0000 0.0000 0.0000 (  3937 PWs)   bands (ev):

   -39.7367 -39.5337 -39.3529 -39.3293  -2.1038   5.1445   5.1445   6.3752
     8.6909   9.6230   9.6230  11.0460

          k =-0.4135 0.0000 0.2580 (  3939 PWs)   bands (ev):

   -39.6958 -39.5421 -39.3709 -39.3424  -1.6981   3.0654   5.1678   5.2955
     7.8137   8.6724  11.0371  12.1903

          k =-0.0000 0.1772 0.1106 (  3954 PWs)   bands (ev):

   -39.7272 -39.5356 -39.3558 -39.3337  -2.0165   4.5574   5.1206   5.9742
     8.7265   9.3946   9.9825  11.0582

          k =-0.4135 0.1772 0.3685 (  3943 PWs)   bands (ev):

   -39.6843 -39.5445 -39.3720 -39.3499  -1.5479   2.8679   4.4535   5.0722
     7.9240   8.6054  11.4795  12.2616

          k = 0.4135 0.1772-0.1474 (  3933 PWs)   bands (ev):

   -39.6934 -39.5404 -39.3700 -39.3472  -1.7568   3.4445   5.0486   5.4963
     7.7251   7.9005  11.0440  11.7262

          k =-0.0000 0.3544 0.2211 (  3948 PWs)   bands (ev):

   -39.7040 -39.5403 -39.3663 -39.3408  -1.7870   3.4100   5.1381   5.4264
     7.9846   9.0714  10.6605  11.7185

          k =-0.4135 0.3544 0.4791 (  3934 PWs)   bands (ev):

   -39.6661 -39.5459 -39.3734 -39.3645  -1.4043   3.0616   3.5574   4.9188
     7.0356   9.8219  10.5980  13.2996

          k = 0.4135 0.3544-0.0369 (  3928 PWs)   bands (ev):

   -39.6783 -39.5408 -39.3699 -39.3611  -1.6914   3.4039   5.4644   5.7381
     6.3815   6.5236  12.2561  12.7523

          k =-0.0000 0.5316 0.3317 (  3957 PWs)   bands (ev):

   -39.6831 -39.5449 -39.3784 -39.3444  -1.5524   2.5799   5.1304   5.2385
     7.5960   8.1210  11.5164  12.7856

          k =-0.4135 0.5316 0.5896 (  3934 PWs)   bands (ev):

   -39.6548 -39.5452 -39.3793 -39.3701  -1.3952   3.0980   3.7318   4.9777
     6.4036   8.4363  11.7351  13.9839

          k = 0.4135 0.5316 0.0737 (  3929 PWs)   bands (ev):

   -39.6606 -39.5429 -39.3768 -39.3691  -1.5341   3.1293   4.8629   5.4314
     6.0230   6.8022  12.6268  13.6893

          k = 0.1772-0.1772 0.0000 (  3953 PWs)   bands (ev):

   -39.7217 -39.5356 -39.3574 -39.3372  -2.0077   4.4601   5.3244   6.0983
     7.8708   9.2022  10.2616  10.4051

          k =-0.2363-0.1772 0.2580 (  3942 PWs)   bands (ev):

   -39.7075 -39.5403 -39.3605 -39.3434  -1.7865   3.7282   4.5368   5.3689
     8.8038   8.9955   9.9934  11.6918

          k = 0.5907-0.1772-0.2580 (  3945 PWs)   bands (ev):

   -39.6753 -39.5447 -39.3799 -39.3505  -1.5240   2.7244   4.6669   5.2058
     7.3269   8.2500  11.7667  12.6353

          k =-0.2363-0.0000 0.3685 (  3960 PWs)   bands (ev):

   -39.7058 -39.5435 -39.3606 -39.3419  -1.6283   3.3115   4.3767   4.5611
     9.0750  10.3855  10.3930  12.3962

          k = 0.5907-0.0000-0.1474 (  3939 PWs)   bands (ev):

   -39.6823 -39.5440 -39.3801 -39.3443  -1.5659   2.8842   4.3055   5.2626
     8.3611   8.6939  11.0252  12.5869

          k = 0.1772 0.1772 0.2211 (  3944 PWs)   bands (ev):

   -39.7146 -39.5388 -39.3584 -39.3401  -1.8640   4.0164   4.6660   5.5150
     8.8622   9.3237   9.6812  11.4913

          k =-0.2363 0.1772 0.4791 (  3949 PWs)   bands (ev):

   -39.6915 -39.5472 -39.3627 -39.3498  -1.3902   2.9367   3.7019   4.2031
     9.7044  10.0293  10.7603  12.6613

          k = 0.5907 0.1772-0.0369 (  3940 PWs)   bands (ev):

   -39.6768 -39.5435 -39.3799 -39.3502  -1.5567   3.2082   3.9578   5.1273
     7.8558   8.6335  11.2908  12.4924

          k = 0.1772 0.3544 0.3317 (  3939 PWs)   bands (ev):

   -39.6916 -39.5433 -39.3676 -39.3485  -1.6204   3.1164   4.4412   5.1421
     8.2092   8.7195  10.9453  12.1004

          k =-0.2363 0.3544 0.5896 (  3946 PWs)   bands (ev):

   -39.6742 -39.5485 -39.3708 -39.3571  -1.2534   2.7294   3.4157   4.1317
     8.7913  10.2391  11.6710  12.1849

          k = 0.5907 0.3544 0.0737 (  3933 PWs)   bands (ev):

   -39.6621 -39.5436 -39.3793 -39.3646  -1.5007   3.1088   4.3560   5.0910
     6.6414   7.4471  12.4680  13.6066

          k = 0.1772-0.7088-0.3317 (  3946 PWs)   bands (ev):

   -39.6747 -39.5458 -39.3790 -39.3510  -1.4720   2.6073   4.5402   5.0551
     7.4973   8.4112  12.1506  12.5299

          k =-0.2363-0.7088-0.0737 (  3942 PWs)   bands (ev):

   -39.6675 -39.5461 -39.3802 -39.3563  -1.3758   2.9873   3.5433   4.5597
     8.0146   9.0278  11.6307  13.3466

          k = 0.5907-0.7088-0.5896 (  3923 PWs)   bands (ev):

   -39.6485 -39.5440 -39.3801 -39.3765  -1.4401   3.1080   4.4661   5.1037
     5.6802   7.4568  11.8310  13.8225

          k = 0.1772-0.5316-0.2211 (  3942 PWs)   bands (ev):

   -39.6796 -39.5435 -39.3777 -39.3497  -1.5905   2.9115   4.7593   5.3092
     7.3662   8.1568  11.4971  12.3910

          k =-0.2363-0.5316 0.0369 (  3938 PWs)   bands (ev):

   -39.6774 -39.5422 -39.3772 -39.3535  -1.6226   3.2995   4.4152   5.3269
     7.2965   7.8378  11.8425  12.4905

          k = 0.5907-0.5316-0.4791 (  3920 PWs)   bands (ev):

   -39.6478 -39.5444 -39.3799 -39.3770  -1.4235   3.3401   3.8533   5.0724
     5.7405   8.6027  10.5285  13.5909

          k = 0.1772-0.3544-0.1106 (  3942 PWs)   bands (ev):

   -39.7014 -39.5389 -39.3657 -39.3452  -1.8383   3.7377   5.2250   5.5984
     7.7409   8.0485  10.8425  11.4063

          k =-0.2363-0.3544 0.1474 (  3940 PWs)   bands (ev):

   -39.6954 -39.5397 -39.3662 -39.3496  -1.7868   3.6083   5.0499   5.6639
     7.5672   7.6464  10.8862  11.8131

          k = 0.5907-0.3544-0.3685 (  3932 PWs)   bands (ev):

   -39.6603 -39.5448 -39.3796 -39.3650  -1.4618   2.9751   4.1134   5.4982
     6.0023   8.8943  10.5893  13.6907

          k = 0.3544-0.3544 0.0000 (  3931 PWs)   bands (ev):

   -39.6851 -39.5399 -39.3675 -39.3579  -1.7481   3.5327   5.7222   5.7504
     6.3291   6.7539  12.0848  12.3894

          k =-0.0591-0.3544 0.2580 (  3947 PWs)   bands (ev):

   -39.7013 -39.5413 -39.3667 -39.3421  -1.7411   3.2854   4.9864   5.3457
     8.0396   8.9534  10.8054  11.8259

          k = 0.7679-0.3544-0.2580 (  3940 PWs)   bands (ev):

   -39.6619 -39.5458 -39.3767 -39.3654  -1.3920   3.0240   3.6131   4.9319
     6.8150   9.3710  11.0101  13.6137

          k =-0.0591-0.1772 0.3685 (  3953 PWs)   bands (ev):

   -39.7094 -39.5433 -39.3581 -39.3411  -1.6420   3.5188   4.2037   4.4944
     9.3188  10.2876  10.7046  12.4247

          k = 0.7679-0.1772-0.1474 (  3943 PWs)   bands (ev):

   -39.6721 -39.5475 -39.3782 -39.3527  -1.3224   2.7051   3.6008   4.4492
     8.5107   9.5970  11.5497  12.7616

          k =-0.0591 0.0000 0.4791 (  3940 PWs)   bands (ev):

   -39.7052 -39.5478 -39.3565 -39.3426  -1.3901   3.1386   3.7637   3.7765
     9.3111  11.2076  12.2966  12.4502

          k = 0.7679-0.0000-0.0369 (  3936 PWs)   bands (ev):

   -39.6759 -39.5482 -39.3792 -39.3474  -1.2786   2.8116   3.1221   4.4813
     9.5557  10.1973  10.9307  12.9424

          k =-0.0591 0.1772 0.5896 (  3939 PWs)   bands (ev):

   -39.6916 -39.5513 -39.3604 -39.3483  -1.1261   2.4679   3.4477   3.6691
     9.7779  11.2831  11.6926  13.0582

          k = 0.7679 0.1772 0.0737 (  3943 PWs)   bands (ev):

   -39.6710 -39.5477 -39.3786 -39.3531  -1.2919   2.8419   3.3025   4.3623
     8.7653   9.8294  11.2473  13.0645

          k = 0.3544-0.8861-0.3317 (  3939 PWs)   bands (ev):

   -39.6719 -39.5456 -39.3707 -39.3621  -1.4392   3.0754   3.6395   4.9396
     7.2917  10.0934  10.2453  12.9651

          k =-0.0591-0.8861-0.0737 (  3941 PWs)   bands (ev):

   -39.6784 -39.5508 -39.3722 -39.3497  -1.1126   2.4483   3.1449   4.0091
    10.1171  10.4596  11.7422  12.3828

          k = 0.7679-0.8861-0.5896 (  3933 PWs)   bands (ev):

   -39.6605 -39.5462 -39.3772 -39.3658  -1.3542   3.0322   3.5080   4.6581
     7.1258   9.1128  11.6482  13.5732

          k = 0.3544-0.7088-0.2211 (  3935 PWs)   bands (ev):

   -39.6596 -39.5455 -39.3791 -39.3655  -1.4046   3.0027   3.7686   4.9860
     6.6292   8.8769  11.3464  13.8042

          k =-0.0591-0.7088 0.0369 (  3937 PWs)   bands (ev):

   -39.6760 -39.5466 -39.3810 -39.3470  -1.3786   2.9791   3.2797   4.7235
     9.0359  10.0627  10.6108  12.7935

          k = 0.7679-0.7088-0.4791 (  3926 PWs)   bands (ev):

   -39.6519 -39.5448 -39.3787 -39.3739  -1.4187   3.3213   3.6200   5.4054
     5.7138   8.9462  10.5213  13.6884

          k = 0.3544-0.5316-0.1106 (  3931 PWs)   bands (ev):

   -39.6660 -39.5428 -39.3770 -39.3640  -1.5585   3.1680   4.6361   5.4258
     6.2855   7.3427  12.0429  13.4806

          k =-0.0591-0.5316 0.1474 (  3947 PWs)   bands (ev):

   -39.6864 -39.5427 -39.3777 -39.3440  -1.6433   3.0486   4.5913   5.3872
     8.1856   8.4492  11.0735  11.8922

          k = 0.7679-0.5316-0.3685 (  3914 PWs)   bands (ev):

   -39.6525 -39.5446 -39.3781 -39.3740  -1.4352   3.3462   3.6824   5.4376
     5.6633   9.4381   9.7993  13.6224

          k = 0.5316-0.5316 0.0000 (  3925 PWs)   bands (ev):

   -39.6516 -39.5434 -39.3787 -39.3755  -1.4753   3.0112   5.2436   5.5398
     5.5476   6.1165  13.5556  13.9068

          k = 0.1181-0.5316 0.2580 (  3952 PWs)   bands (ev):

   -39.6821 -39.5440 -39.3779 -39.3466  -1.5850   2.7741   4.9541   5.2704
     7.7240   7.9561  11.8031  12.1423

          k = 0.9451-0.5316-0.2580 (  3939 PWs)   bands (ev):

   -39.6648 -39.5457 -39.3791 -39.3604  -1.4218   2.8487   3.9626   5.0039
     6.8931   9.0196  11.2852  13.4097

          k = 0.1181-0.3544 0.3685 (  3940 PWs)   bands (ev):

   -39.6927 -39.5442 -39.3680 -39.3462  -1.5791   2.9652   4.4742   4.9040
     8.5306   8.9147  11.1331  12.2940

          k = 0.9451-0.3544-0.1474 (  3944 PWs)   bands (ev):

   -39.6692 -39.5484 -39.3712 -39.3615  -1.2352   2.8445   3.2623   4.0891
     8.5190  10.1455  11.7457  12.3852

          k = 0.1181-0.1772 0.4791 (  3959 PWs)   bands (ev):

   -39.6981 -39.5475 -39.3598 -39.3463  -1.3895   2.9951   3.7355   4.0186
     9.7354  10.6538  10.8760  12.9784

          k = 0.9451-0.1772-0.0369 (  3933 PWs)   bands (ev):

   -39.6766 -39.5514 -39.3679 -39.3551  -1.0496   2.4102   3.1698   3.7150
    10.0775  10.9801  11.5797  12.0064

          k = 0.1181-0.0000 0.5896 (  3947 PWs)   bands (ev):

   -39.6946 -39.5518 -39.3584 -39.3471  -1.1053   2.4458   3.4703   3.5813
     9.5915  11.3027  12.4675  13.0357

          k = 0.9451-0.0000 0.0737 (  3933 PWs)   bands (ev):

   -39.6815 -39.5520 -39.3681 -39.3496  -1.0343   2.2953   3.1545   3.8296
    10.0942  11.0600  11.8227  12.5543

          k = 0.1181-1.0633-0.0737 (  3931 PWs)   bands (ev):

   -39.6850 -39.5533 -39.3614 -39.3518  -0.9442   2.1409   3.2924   3.5025
    10.0313  11.5120  11.7786  13.1864

          k = 0.9451-1.0633-0.5896 (  3943 PWs)   bands (ev):

   -39.6810 -39.5496 -39.3670 -39.3534  -1.2032   2.6021   3.4242   3.9378
     9.7031  10.2982  11.5764  12.2950

          k = 0.1181-0.8861 0.0369 (  3940 PWs)   bands (ev):

   -39.6763 -39.5507 -39.3721 -39.3517  -1.1032   2.4956   3.0996   3.9456
     9.9946  10.6864  11.4714  12.3437

          k = 0.9451-0.8861-0.4791 (  3938 PWs)   bands (ev):

   -39.6749 -39.5464 -39.3699 -39.3593  -1.3976   2.9616   3.6060   4.6551
     7.8586  10.0791  10.7648  12.6502

          k = 0.5316-0.7088-0.1106 (  3933 PWs)   bands (ev):

   -39.6486 -39.5445 -39.3807 -39.3753  -1.4041   3.0207   4.2277   5.0161
     6.0625   7.3181  12.7667  14.0614

          k = 0.1181-0.7088 0.1474 (  3935 PWs)   bands (ev):

   -39.6748 -39.5465 -39.3804 -39.3488  -1.3973   2.7048   3.8094   4.7449
     8.4943   9.2601  11.3642  12.8043

          k = 0.9451-0.7088-0.3685 (  3937 PWs)   bands (ev):

   -39.6673 -39.5449 -39.3782 -39.3596  -1.4864   2.8700   4.2740   5.3718
     6.5295   8.7088  10.9901  13.4165

     the Fermi energy is     5.7733 ev

!    total energy              =     -65.76941335 Ry
     estimated scf accuracy    <          8.2E-12 Ry
     smearing contrib. (-TS)   =       0.00172615 Ry
     internal energy E=F+TS    =     -65.77113950 Ry

     The total energy is F=E-TS. E is the sum of the following terms:
     one-electron contribution =     -25.52509038 Ry
     hartree contribution      =      12.66269116 Ry
     xc contribution           =     -17.23913229 Ry
     ewald contribution        =     -35.66960799 Ry

     convergence has been achieved in   8 iterations

     Forces acting on atoms (cartesian axes, Ry/au):

     atom    1 type  1   force =    -0.00000000    0.00000000   -0.00000089
     atom    2 type  1   force =     0.00000000    0.00000000    0.00000089
     atom    3 type  1   force =     0.00000000   -0.00000000    0.00000000
     atom    4 type  1   force =    -0.00000000    0.00000000    0.00000000
     atom    5 type  2   force =     0.00000000   -0.00000000   -0.00000000
     The non-local contrib.  to forces
     atom    1 type  1   force =     0.00000000   -0.00000000   -0.04169640
     atom    2 type  1   force =     0.00000000   -0.00000000    0.04169640
     atom    3 type  1   force =    -0.00000000   -0.00000000   -0.00000000
     atom    4 type  1   force =    -0.00000000    0.00000000    0.00000000
     atom    5 type  2   force =     0.00000000    0.00000000   -0.00000000
     The ionic contribution  to forces
     atom    1 type  1   force =     0.00000000    0.00000000    0.25956737
     atom    2 type  1   force =    -0.00000000   -0.00000000   -0.25956737
     atom    3 type  1   force =    -0.00000000    0.00000000   -0.00000000
     atom    4 type  1   force =     0.00000000    0.00000000   -0.00000000
     atom    5 type  2   force =     0.00000000   -0.00000000   -0.00000000
     The local contribution  to forces
     atom    1 type  1   force =     0.00000000   -0.00000000   -0.21787159
     atom    2 type  1   force =     0.00000000    0.00000000    0.21787159
     atom    3 type  1   force =     0.00000000   -0.00000000    0.00000000
     atom    4 type  1   force =     0.00000000    0.00000000    0.00000000
     atom    5 type  2   force =    -0.00000000   -0.00000000   -0.00000000
     The core correction contribution to forces
     atom    1 type  1   force =     0.00000000    0.00000000    0.00000000
     atom    2 type  1   force =     0.00000000    0.00000000    0.00000000
     atom    3 type  1   force =     0.00000000    0.00000000    0.00000000
     atom    4 type  1   force =     0.00000000    0.00000000    0.00000000
     atom    5 type  2   force =    -0.00000000   -0.00000000    0.00000000
     The Hubbard contrib.    to forces
     atom    1 type  1   force =     0.00000000    0.00000000    0.00000000
     atom    2 type  1   force =     0.00000000    0.00000000    0.00000000
     atom    3 type  1   force =     0.00000000    0.00000000    0.00000000
     atom    4 type  1   force =     0.00000000    0.00000000    0.00000000
     atom    5 type  2   force =     0.00000000    0.00000000    0.00000000
     The SCF correction term to forces
     atom    1 type  1   force =     0.00000000   -0.00000000   -0.00000027
     atom    2 type  1   force =     0.00000000    0.00000000    0.00000027
     atom    3 type  1   force =     0.00000000    0.00000000    0.00000000
     atom    4 type  1   force =    -0.00000000   -0.00000000    0.00000000
     atom    5 type  2   force =    -0.00000000   -0.00000000    0.00000000

     Total force =     0.000001     Total SCF correction =     0.000000
     SCF correction compared to forces is large: reduce conv_thr to get better values


     Computing stress (Cartesian axis) and pressure

          total   stress  (Ry/bohr**3)                   (kbar)     P=      499.77
   0.00339693  -0.00000000   0.00000000          499.71       -0.00        0.00
  -0.00000000   0.00339693  -0.00000000           -0.00      499.71       -0.00
   0.00000000  -0.00000000   0.00339818            0.00       -0.00      499.89


     Writing all to output data dir ./output/LiSi.save/

     init_run     :      2.71s CPU      6.89s WALL (       2 calls)
     electrons    :    152.97s CPU    175.99s WALL (      12 calls)
     update_pot   :      7.69s CPU      7.78s WALL (      10 calls)
     forces       :      5.76s CPU      5.87s WALL (      12 calls)
     stress       :     25.97s CPU     27.15s WALL (      12 calls)

     Called by init_run:
     wfcinit      :      1.50s CPU      4.95s WALL (       2 calls)
     potinit      :      0.58s CPU      0.94s WALL (       2 calls)
     hinit0       :      0.54s CPU      0.83s WALL (       2 calls)

     Called by electrons:
     c_bands      :    130.98s CPU    149.65s WALL (      98 calls)
     sum_band     :     19.97s CPU     22.89s WALL (      98 calls)
     v_of_rho     :      2.09s CPU      3.67s WALL (     108 calls)
     mix_rho      :      0.20s CPU      0.31s WALL (      98 calls)

     Called by c_bands:
     init_us_2    :      3.93s CPU      4.40s WALL (   14430 calls)
     init_us_2:cp :      3.91s CPU      4.39s WALL (   14430 calls)
     cegterg      :    123.44s CPU    139.61s WALL (    6370 calls)

     Called by *egterg:
     cdiaghg      :      3.85s CPU      4.10s WALL (   24767 calls)
     h_psi        :    110.17s CPU    129.00s WALL (   25677 calls)
     g_psi        :      0.51s CPU      0.53s WALL (   19177 calls)

     Called by h_psi:
     h_psi:calbec :      5.29s CPU      5.95s WALL (   25677 calls)
     vloc_psi     :     99.99s CPU    117.80s WALL (   25677 calls)
     add_vuspsi   :      4.53s CPU      4.87s WALL (   25677 calls)

     General routines
     calbec       :      6.59s CPU      7.28s WALL (   29577 calls)
     fft          :      1.55s CPU      3.56s WALL (    1380 calls)
     ffts         :      0.05s CPU      0.17s WALL (      98 calls)
     fftw         :    102.52s CPU    120.56s WALL (  505720 calls)

     Parallel routines

     PWSCF        :   3m15.49s CPU   3m44.55s WALL


   This run was terminated on:  20:45:34  29Dec2024            

=------------------------------------------------------------------------------=
   JOB DONE.
=------------------------------------------------------------------------------=
