
     Program PWSCF v.7.2 starts on 29Dec2024 at 20:53:58 

     This program is part of the open-source Quantum ESPRESSO suite
     for quantum simulation of materials; please cite
         "P. Giannozzi et al., J. Phys.:Condens. Matter 21 395502 (2009);
         "P. Giannozzi et al., J. Phys.:Condens. Matter 29 465901 (2017);
         "P. Giannozzi et al., J. Chem. Phys. 152 154105 (2020);
          URL http://www.quantum-espresso.org", 
     in publications or presentations arising from this work. More details at
     http://www.quantum-espresso.org/quote

     Parallel version (MPI & OpenMP), running on       8 processor cores
     Number of MPI processes:                 8
     Threads/MPI process:                     1

     MPI processes distributed on     1 nodes
     482552 MiB available memory on the printing compute node when the environment starts

     Waiting for input...
     Reading input from standard input

     Current dimensions of program PWSCF are:
     Max number of different atomic species (ntypx) = 10
     Max number of k-points (npk) =  40000
     Max angular momentum in pseudopotentials (lmaxx) =  4

     R & G space division:  proc/nbgrp/npool/nimage =       8
     Subspace diagonalization in iterative solution of the eigenvalue problem:
     a serial algorithm will be used


     Parallelization info
     --------------------
     sticks:   dense  smooth     PW     G-vecs:    dense   smooth      PW
     Min         232     232     64                 7468     7468    1134
     Max         233     233     65                 7471     7471    1139
     Sum        1861    1861    517                59757    59757    9093

     Using Slab Decomposition



     bravais-lattice index     =            1
     lattice parameter (alat)  =       8.5121  a.u.
     unit-cell volume          =     616.7572 (a.u.)^3
     number of atoms/cell      =            5
     number of atomic types    =            2
     number of electrons       =        16.00
     number of Kohn-Sham states=           12
     kinetic-energy cutoff     =      80.0000  Ry
     charge density cutoff     =     320.0000  Ry
     scf convergence threshold =      1.0E-08
     mixing beta               =       0.7000
     number of iterations used =            8  plain     mixing
     energy convergence thresh.=      1.0E-04
     force convergence thresh. =      1.0E-03
     press convergence thresh. =      1.0E+00
     Exchange-correlation= PBE
                           (   1   4   3   4   0   0   0)
     nstep                     =           50


     celldm(1)=   8.512127  celldm(2)=   0.000000  celldm(3)=   0.000000
     celldm(4)=   0.000000  celldm(5)=   0.000000  celldm(6)=   0.000000

     crystal axes: (cart. coord. in units of alat)
               a(1) = (   1.000000   0.000000   0.000000 )  
               a(2) = (   0.000000   1.000000   0.000000 )  
               a(3) = (   0.000000   0.000000   1.000000 )  

     reciprocal axes: (cart. coord. in units 2 pi/alat)
               b(1) = (  1.000000  0.000000  0.000000 )  
               b(2) = (  0.000000  1.000000  0.000000 )  
               b(3) = (  0.000000  0.000000  1.000000 )  


     PseudoPot. # 1 for Si read from file:
     ../pseudo/Si_ONCV_PBE_sr.upf
     MD5 check sum: e543d271109d17c80368dfa7c482276d
     Pseudo is Norm-conserving + core correction, Zval =  4.0
     Generated using ONCVPSP code by D. R. Hamann
     Using radial grid of 1510 points,  6 beta functions with: 
                l(1) =   0
                l(2) =   0
                l(3) =   1
                l(4) =   1
                l(5) =   2
                l(6) =   2

     PseudoPot. # 2 for Li read from file:
     ../pseudo/Li_ONCV_PBE_sr.upf
     MD5 check sum: 50ff420e78310ffa21704f3361e624a4
     Pseudo is Norm-conserving, Zval =  3.0
     Generated using ONCVPSP code by D. R. Hamann
     Using radial grid of 1944 points,  4 beta functions with: 
                l(1) =   0
                l(2) =   0
                l(3) =   1
                l(4) =   1

     atomic species   valence    mass     pseudopotential
        Si             4.00    28.08550     Si( 1.00)
        Li             3.00     6.94100     Li( 1.00)

     24 Sym. Ops. (no inversion) found



   Cartesian axes

     site n.     atom                  positions (alat units)
         1           Si  tau(   1) = (   0.5000000   0.5000000   0.5000000  )
         2           Li  tau(   2) = (   0.2316890   0.2316890   0.7683110  )
         3           Li  tau(   3) = (   0.2316890   0.7683110   0.2316890  )
         4           Li  tau(   4) = (   0.7683110   0.7683110   0.7683110  )
         5           Li  tau(   5) = (   0.7683110   0.2316890   0.2316890  )

     number of k points=    20  Marzari-Vanderbilt smearing, width (Ry)=  0.0200
                       cart. coord. in units 2pi/alat
        k(    1) = (   0.0000000   0.0000000   0.0000000), wk =   0.0092593
        k(    2) = (   0.0000000   0.0000000   0.1666667), wk =   0.0555556
        k(    3) = (   0.0000000   0.0000000   0.3333333), wk =   0.0555556
        k(    4) = (   0.0000000   0.0000000  -0.5000000), wk =   0.0277778
        k(    5) = (   0.0000000   0.1666667   0.1666667), wk =   0.1111111
        k(    6) = (   0.0000000   0.1666667   0.3333333), wk =   0.2222222
        k(    7) = (   0.0000000   0.1666667  -0.5000000), wk =   0.1111111
        k(    8) = (   0.0000000   0.3333333   0.3333333), wk =   0.1111111
        k(    9) = (   0.0000000   0.3333333  -0.5000000), wk =   0.1111111
        k(   10) = (   0.0000000  -0.5000000  -0.5000000), wk =   0.0277778
        k(   11) = (   0.1666667   0.1666667   0.1666667), wk =   0.0740741
        k(   12) = (   0.1666667   0.1666667   0.3333333), wk =   0.2222222
        k(   13) = (   0.1666667   0.1666667  -0.5000000), wk =   0.1111111
        k(   14) = (   0.1666667   0.3333333   0.3333333), wk =   0.2222222
        k(   15) = (   0.1666667   0.3333333  -0.5000000), wk =   0.2222222
        k(   16) = (   0.1666667  -0.5000000  -0.5000000), wk =   0.0555556
        k(   17) = (   0.3333333   0.3333333   0.3333333), wk =   0.0740741
        k(   18) = (   0.3333333   0.3333333  -0.5000000), wk =   0.1111111
        k(   19) = (   0.3333333  -0.5000000  -0.5000000), wk =   0.0555556
        k(   20) = (  -0.5000000  -0.5000000  -0.5000000), wk =   0.0092593

     Dense  grid:    59757 G-vectors     FFT dimensions: (  50,  50,  50)

     Estimated max dynamical RAM per process >      21.03 MB

     Estimated total dynamical RAM >     168.26 MB

     Initial potential from superposition of free atoms

     starting charge      15.9811, renormalised to      16.0000
     Starting wfcs are   12 randomized atomic wfcs

     total cpu time spent up to now is        1.4 secs

     Self-consistent Calculation

     iteration #  1     ecut=    80.00 Ry     beta= 0.70
     Davidson diagonalization with overlap
     ethr =  1.00E-02,  avg # of iterations =  6.5

     total cpu time spent up to now is        2.1 secs

     total energy              =     -65.74158194 Ry
     estimated scf accuracy    <       0.39612843 Ry

     iteration #  2     ecut=    80.00 Ry     beta= 0.70
     Davidson diagonalization with overlap
     ethr =  2.48E-03,  avg # of iterations =  2.5

     total cpu time spent up to now is        2.9 secs

     total energy              =     -65.82366601 Ry
     estimated scf accuracy    <       0.80354560 Ry

     iteration #  3     ecut=    80.00 Ry     beta= 0.70
     Davidson diagonalization with overlap
     ethr =  2.48E-03,  avg # of iterations =  2.1

     total cpu time spent up to now is        3.3 secs

     total energy              =     -65.93038360 Ry
     estimated scf accuracy    <       0.00237484 Ry

     iteration #  4     ecut=    80.00 Ry     beta= 0.70
     Davidson diagonalization with overlap
     ethr =  1.48E-05,  avg # of iterations =  5.5

     total cpu time spent up to now is        4.0 secs

     total energy              =     -65.93144806 Ry
     estimated scf accuracy    <       0.00031655 Ry

     iteration #  5     ecut=    80.00 Ry     beta= 0.70
     Davidson diagonalization with overlap
     ethr =  1.98E-06,  avg # of iterations =  2.6

     total cpu time spent up to now is        4.4 secs

     total energy              =     -65.93148961 Ry
     estimated scf accuracy    <       0.00001195 Ry

     iteration #  6     ecut=    80.00 Ry     beta= 0.70
     Davidson diagonalization with overlap
     ethr =  7.47E-08,  avg # of iterations =  2.2

     total cpu time spent up to now is        4.9 secs

     total energy              =     -65.93149240 Ry
     estimated scf accuracy    <       0.00000423 Ry

     iteration #  7     ecut=    80.00 Ry     beta= 0.70
     Davidson diagonalization with overlap
     ethr =  2.64E-08,  avg # of iterations =  1.9

     total cpu time spent up to now is        5.2 secs

     total energy              =     -65.93149292 Ry
     estimated scf accuracy    <       0.00000005 Ry

     iteration #  8     ecut=    80.00 Ry     beta= 0.70
     Davidson diagonalization with overlap
     ethr =  3.40E-10,  avg # of iterations =  3.5

     total cpu time spent up to now is        5.7 secs

     total energy              =     -65.93149293 Ry
     estimated scf accuracy    <       0.00000001 Ry

     iteration #  9     ecut=    80.00 Ry     beta= 0.70
     Davidson diagonalization with overlap
     ethr =  8.29E-11,  avg # of iterations =  1.8

     total cpu time spent up to now is        6.0 secs

     End of self-consistent calculation

          k = 0.0000 0.0000 0.0000 (  7441 PWs)   bands (ev):

   -44.2374 -44.2186 -44.2186 -44.2186  -5.2192   0.9577   2.2854   2.2854
     2.2854   3.2759   3.2759   7.8135

          k = 0.0000 0.0000 0.1667 (  7436 PWs)   bands (ev):

   -44.2363 -44.2196 -44.2185 -44.2185  -5.1455   0.5114   1.9089   2.3003
     2.3003   3.4757   4.1499   7.2686

          k = 0.0000 0.0000 0.3333 (  7468 PWs)   bands (ev):

   -44.2334 -44.2224 -44.2185 -44.2185  -4.9800  -0.3613   2.2424   2.3308
     2.3308   3.9486   4.0693   6.5349

          k = 0.0000 0.0000-0.5000 (  7464 PWs)   bands (ev):

   -44.2312 -44.2247 -44.2185 -44.2185  -4.8856  -0.7353   2.3462   2.3462
     2.8896   3.1324   4.8471   5.3619

          k = 0.0000 0.1667 0.1667 (  7429 PWs)   bands (ev):

   -44.2352 -44.2197 -44.2194 -44.2186  -5.0724   0.4273   1.1840   2.2541
     2.4971   3.9435   4.5891   6.7907

          k = 0.0000 0.1667 0.3333 (  7463 PWs)   bands (ev):

   -44.2326 -44.2222 -44.2194 -44.2188  -4.9088  -0.2594   1.1452   2.1501
     2.8465   3.9712   4.8183   6.1658

          k = 0.0000 0.1667-0.5000 (  7456 PWs)   bands (ev):

   -44.2305 -44.2243 -44.2192 -44.2189  -4.8157  -0.6229   1.3278   2.0356
     3.1056   3.7788   4.9391   5.5906

          k = 0.0000 0.3333 0.3333 (  7437 PWs)   bands (ev):

   -44.2304 -44.2218 -44.2212 -44.2194  -4.7501  -0.0851   0.2453   1.7403
     3.2167   4.0176   5.2528   5.9328

          k = 0.0000 0.3333-0.5000 (  7472 PWs)   bands (ev):

   -44.2288 -44.2232 -44.2209 -44.2200  -4.6605  -0.3214   0.3105   1.4481
     3.3205   4.4173   4.8521   5.9393

          k = 0.0000-0.5000-0.5000 (  7452 PWs)   bands (ev):

   -44.2275 -44.2221 -44.2221 -44.2210  -4.5731  -0.0786  -0.0786   1.0731
     3.3618   5.1753   5.1753   5.2114

          k = 0.1667 0.1667 0.1667 (  7463 PWs)   bands (ev):

   -44.2343 -44.2198 -44.2194 -44.2194  -5.0002   0.3928   1.2607   1.2607
     2.9115   4.6110   4.6110   6.6456

          k = 0.1667 0.1667 0.3333 (  7450 PWs)   bands (ev):

   -44.2318 -44.2220 -44.2196 -44.2194  -4.8389  -0.1648   1.0329   1.4335
     2.9179   4.6010   4.6562   6.3241

          k = 0.1667 0.1667-0.5000 (  7424 PWs)   bands (ev):

   -44.2299 -44.2239 -44.2196 -44.2194  -4.7474  -0.5149   1.1460   1.5325
     2.8308   4.4916   4.5474   6.1253

          k = 0.1667 0.3333 0.3333 (  7448 PWs)   bands (ev):

   -44.2298 -44.2218 -44.2212 -44.2199  -4.6837  -0.0108   0.3251   1.2701
     2.8803   4.3557   4.8273   6.1430

          k = 0.1667 0.3333-0.5000 (  7452 PWs)   bands (ev):

   -44.2283 -44.2230 -44.2211 -44.2203  -4.5963  -0.2279   0.3613   1.1846
     2.8383   4.3586   4.6953   5.9679

          k = 0.1667-0.5000-0.5000 (  7464 PWs)   bands (ev):

   -44.2273 -44.2221 -44.2221 -44.2212  -4.5117  -0.0003  -0.0003   0.9488
     2.8615   4.6545   4.6545   5.2688

          k = 0.3333 0.3333 0.3333 (  7436 PWs)   bands (ev):

   -44.2284 -44.2219 -44.2212 -44.2212  -4.5374   0.1204   0.5093   0.5093
     2.8294   4.1051   4.1051   5.5334

          k = 0.3333 0.3333-0.5000 (  7460 PWs)   bands (ev):

   -44.2273 -44.2226 -44.2216 -44.2212  -4.4557   0.0083   0.3871   0.6187
     2.7593   3.7755   4.1688   4.9831

          k = 0.3333-0.5000-0.5000 (  7464 PWs)   bands (ev):

   -44.2267 -44.2221 -44.2221 -44.2218  -4.3778   0.1803   0.1803   0.5342
     2.7607   3.8592   3.8592   4.2676

          k =-0.5000-0.5000-0.5000 (  7568 PWs)   bands (ev):

   -44.2263 -44.2221 -44.2221 -44.2221  -4.3040   0.2874   0.2874   0.2874
     3.1507   3.5127   3.5127   3.5127

     the Fermi energy is     2.3944 ev

!    total energy              =     -65.93149294 Ry
     estimated scf accuracy    <          2.2E-10 Ry
     smearing contrib. (-TS)   =      -0.00054868 Ry
     internal energy E=F+TS    =     -65.93094425 Ry

     The total energy is F=E-TS. E is the sum of the following terms:
     one-electron contribution =     -36.58593567 Ry
     hartree contribution      =      15.37049936 Ry
     xc contribution           =     -16.55000688 Ry
     ewald contribution        =     -28.16550106 Ry

     convergence has been achieved in   9 iterations

     Forces acting on atoms (cartesian axes, Ry/au):

     atom    1 type  1   force =     0.00000000    0.00000000    0.00000000
     atom    2 type  2   force =    -0.03836246   -0.03836246    0.03836246
     atom    3 type  2   force =    -0.03836246    0.03836246   -0.03836246
     atom    4 type  2   force =     0.03836246    0.03836246    0.03836246
     atom    5 type  2   force =     0.03836246   -0.03836246   -0.03836246
     The non-local contrib.  to forces
     atom    1 type  1   force =     0.00000000    0.00000000    0.00000000
     atom    2 type  2   force =    -0.04928081   -0.04928081    0.04928081
     atom    3 type  2   force =    -0.04928081    0.04928081   -0.04928081
     atom    4 type  2   force =     0.04928081    0.04928081    0.04928081
     atom    5 type  2   force =     0.04928081   -0.04928081   -0.04928081
     The ionic contribution  to forces
     atom    1 type  1   force =    -0.00000000   -0.00000000    0.00000000
     atom    2 type  2   force =    -0.48474919   -0.48474919    0.48474919
     atom    3 type  2   force =    -0.48474919    0.48474919   -0.48474919
     atom    4 type  2   force =     0.48474919    0.48474919    0.48474919
     atom    5 type  2   force =     0.48474919   -0.48474919   -0.48474919
     The local contribution  to forces
     atom    1 type  1   force =     0.00000000    0.00000000    0.00000000
     atom    2 type  2   force =     0.49567018    0.49567018   -0.49567018
     atom    3 type  2   force =     0.49567018   -0.49567018    0.49567018
     atom    4 type  2   force =    -0.49567018   -0.49567018   -0.49567018
     atom    5 type  2   force =    -0.49567018    0.49567018    0.49567018
     The core correction contribution to forces
     atom    1 type  1   force =    -0.00000000   -0.00000000    0.00000000
     atom    2 type  2   force =     0.00000000    0.00000000    0.00000000
     atom    3 type  2   force =     0.00000000    0.00000000    0.00000000
     atom    4 type  2   force =     0.00000000    0.00000000    0.00000000
     atom    5 type  2   force =     0.00000000    0.00000000    0.00000000
     The Hubbard contrib.    to forces
     atom    1 type  1   force =     0.00000000    0.00000000    0.00000000
     atom    2 type  2   force =     0.00000000    0.00000000    0.00000000
     atom    3 type  2   force =     0.00000000    0.00000000    0.00000000
     atom    4 type  2   force =     0.00000000    0.00000000    0.00000000
     atom    5 type  2   force =     0.00000000    0.00000000    0.00000000
     The SCF correction term to forces
     atom    1 type  1   force =     0.00000000    0.00000000    0.00000000
     atom    2 type  2   force =    -0.00000263   -0.00000263    0.00000263
     atom    3 type  2   force =    -0.00000263    0.00000263   -0.00000263
     atom    4 type  2   force =     0.00000263    0.00000263    0.00000263
     atom    5 type  2   force =     0.00000263   -0.00000263   -0.00000263

     Total force =     0.132891     Total SCF correction =     0.000009


     Computing stress (Cartesian axis) and pressure

          total   stress  (Ry/bohr**3)                   (kbar)     P=       70.44
   0.00047886   0.00000000   0.00000000           70.44        0.00        0.00
   0.00000000   0.00047886   0.00000000            0.00       70.44        0.00
   0.00000000   0.00000000   0.00047886            0.00        0.00       70.44


     BFGS Geometry Optimization
     Energy error            =      0.0E+00 Ry
     Gradient error          =      3.8E-02 Ry/Bohr
     Cell gradient error     =      4.3E+02 kbar

     number of scf cycles    =   1
     number of bfgs steps    =   0

     enthalpy           new  =     -63.8351778378 Ry

     new trust radius        =       0.3625940635 bohr
ibrav =      1
 celldm(1) =      7.89072602
Input lattice vectors:
     0.92699820     0.00000000     0.00000000
     0.00000000     0.92699820     0.00000000
     0.00000000     0.00000000     0.92699820
New lattice vectors in INITIAL alat:
     0.92699820     0.00000000     0.00000000
     0.00000000     0.92699820     0.00000000
     0.00000000     0.00000000     0.92699820
New lattice vectors in NEW alat (for information only):
     1.00000000     0.00000000     0.00000000
     0.00000000     1.00000000     0.00000000
     0.00000000     0.00000000     1.00000000
Discrepancy in bohr =     0.000000    0.000000    0.000000
     new conv_thr            =       0.0000000100 Ry

     new unit-cell volume =    491.30467 a.u.^3 (    72.80384 Ang^3 )
     density =      1.27384 g/cm^3

CELL_PARAMETERS (alat=  8.51212661)
   0.926998198   0.000000000   0.000000000
   0.000000000   0.926998198   0.000000000
   0.000000000   0.000000000   0.926998198

ATOMIC_POSITIONS (crystal)
Si            0.5000000000        0.5000000000        0.5000000000
Li            0.2271821991        0.2271821991        0.7728178009
Li            0.2271821991        0.7728178009        0.2271821991
Li            0.7728178009        0.7728178009        0.7728178009
Li            0.7728178009        0.2271821991        0.2271821991



     Writing config-only to output data dir ./output/SiLi.save/
     NEW-OLD atomic charge density approx. for the potential

     negative rho (up, down):  2.369E-06 0.000E+00
     extrapolated charge   11.91928, renormalised to   16.00000

     total cpu time spent up to now is        8.4 secs

     Self-consistent Calculation

     iteration #  1     ecut=    80.00 Ry     beta= 0.70
     Davidson diagonalization with overlap
     ethr =  1.00E-06,  avg # of iterations =  9.8

     total cpu time spent up to now is        9.4 secs

     total energy              =     -65.41242759 Ry
     estimated scf accuracy    <       0.34854997 Ry

     iteration #  2     ecut=    80.00 Ry     beta= 0.70
     Davidson diagonalization with overlap
     ethr =  2.18E-03,  avg # of iterations =  2.8

     total cpu time spent up to now is        9.9 secs

     total energy              =     -65.81095600 Ry
     estimated scf accuracy    <       1.10304725 Ry

     iteration #  3     ecut=    80.00 Ry     beta= 0.70
     Davidson diagonalization with overlap
     ethr =  2.18E-03,  avg # of iterations =  1.9

     total cpu time spent up to now is       10.3 secs

     total energy              =     -65.84605530 Ry
     estimated scf accuracy    <       0.13388641 Ry

     iteration #  4     ecut=    80.00 Ry     beta= 0.70
     Davidson diagonalization with overlap
     ethr =  8.37E-04,  avg # of iterations =  1.6

     total cpu time spent up to now is       10.8 secs

     total energy              =     -65.85524608 Ry
     estimated scf accuracy    <       0.01082609 Ry

     iteration #  5     ecut=    80.00 Ry     beta= 0.70
     Davidson diagonalization with overlap
     ethr =  6.77E-05,  avg # of iterations =  2.2

     total cpu time spent up to now is       11.2 secs

     total energy              =     -65.85623371 Ry
     estimated scf accuracy    <       0.00072787 Ry

     iteration #  6     ecut=    80.00 Ry     beta= 0.70
     Davidson diagonalization with overlap
     ethr =  4.55E-06,  avg # of iterations =  3.8

     total cpu time spent up to now is       11.7 secs

     total energy              =     -65.85649914 Ry
     estimated scf accuracy    <       0.00015169 Ry

     iteration #  7     ecut=    80.00 Ry     beta= 0.70
     Davidson diagonalization with overlap
     ethr =  9.48E-07,  avg # of iterations =  1.5

     total cpu time spent up to now is       12.1 secs

     total energy              =     -65.85652618 Ry
     estimated scf accuracy    <       0.00000047 Ry

     iteration #  8     ecut=    80.00 Ry     beta= 0.70
     Davidson diagonalization with overlap
     ethr =  2.96E-09,  avg # of iterations =  3.7

     total cpu time spent up to now is       12.7 secs

     total energy              =     -65.85652648 Ry
     estimated scf accuracy    <       0.00000028 Ry

     iteration #  9     ecut=    80.00 Ry     beta= 0.70
     Davidson diagonalization with overlap
     ethr =  1.72E-09,  avg # of iterations =  1.9

     total cpu time spent up to now is       13.1 secs

     End of self-consistent calculation

          k = 0.0000 0.0000 0.0000 (  7441 PWs)   bands (ev):

   -42.8826 -42.8342 -42.8342 -42.8342  -4.4607   2.3233   3.7169   3.7169
     3.7169   4.3018   4.3018   9.8131

          k = 0.0000 0.0000 0.1798 (  7436 PWs)   bands (ev):

   -42.8799 -42.8368 -42.8342 -42.8342  -4.3625   1.6791   3.1390   3.7212
     3.7212   4.5336   5.6045   9.2608

          k = 0.0000 0.0000 0.3596 (  7468 PWs)   bands (ev):

   -42.8731 -42.8435 -42.8341 -42.8341  -4.1351   0.5298   3.5612   3.7288
     3.7288   5.2198   5.5032   8.1255

          k = 0.0000 0.0000-0.5394 (  7464 PWs)   bands (ev):

   -42.8681 -42.8485 -42.8341 -42.8341  -3.9996   0.0519   3.7321   3.7321
     4.2403   4.6570   6.0812   6.8017

          k = 0.0000 0.1798 0.1798 (  7429 PWs)   bands (ev):

   -42.8774 -42.8369 -42.8364 -42.8343  -4.2643   1.6066   2.2058   3.5913
     3.8453   5.3049   6.1381   8.6979

          k = 0.0000 0.1798 0.3596 (  7463 PWs)   bands (ev):

   -42.8710 -42.8430 -42.8362 -42.8346  -4.0370   0.6401   2.2400   3.4117
     4.2855   5.4407   6.4279   7.7753

          k = 0.0000 0.1798-0.5394 (  7456 PWs)   bands (ev):

   -42.8663 -42.8476 -42.8358 -42.8350  -3.9016   0.1668   2.4645   3.2315
     4.6671   5.3078   6.4083   7.1511

          k = 0.0000 0.3596 0.3596 (  7437 PWs)   bands (ev):

   -42.8658 -42.8420 -42.8407 -42.8361  -3.8105   0.8425   1.0933   2.8449
     4.8566   5.5069   6.9631   7.5294

          k = 0.0000 0.3596-0.5394 (  7472 PWs)   bands (ev):

   -42.8620 -42.8451 -42.8400 -42.8373  -3.6761   0.4734   1.2058   2.4895
     5.1020   5.9580   6.3418   7.6763

          k = 0.0000-0.5394-0.5394 (  7452 PWs)   bands (ev):

   -42.8590 -42.8429 -42.8429 -42.8394  -3.5427   0.7145   0.7145   2.0700
     5.1850   6.8178   6.8241   6.8241

          k = 0.1798 0.1798 0.1798 (  7463 PWs)   bands (ev):

   -42.8750 -42.8372 -42.8363 -42.8363  -4.1664   1.5690   2.2954   2.2954
     4.3976   6.1467   6.1467   8.7072

          k = 0.1798 0.1798 0.3596 (  7450 PWs)   bands (ev):

   -42.8691 -42.8425 -42.8368 -42.8363  -3.9403   0.7403   2.1054   2.4974
     4.3895   6.0913   6.3707   7.9791

          k = 0.1798 0.1798-0.5394 (  7424 PWs)   bands (ev):

   -42.8647 -42.8468 -42.8367 -42.8363  -3.8058   0.2763   2.2287   2.6136
     4.2925   6.0040   6.2515   7.7758

          k = 0.1798 0.3596 0.3596 (  7448 PWs)   bands (ev):

   -42.8643 -42.8420 -42.8407 -42.8375  -3.7177   0.9089   1.1754   2.2779
     4.4163   5.8929   6.4377   7.9491

          k = 0.1798 0.3596-0.5394 (  7452 PWs)   bands (ev):

   -42.8609 -42.8447 -42.8403 -42.8383  -3.5860   0.5661   1.2476   2.1575
     4.4292   5.8339   6.3491   7.6987

          k = 0.1798-0.5394-0.5394 (  7464 PWs)   bands (ev):

   -42.8583 -42.8429 -42.8429 -42.8401  -3.4567   0.7916   0.7916   1.8840
     4.5300   6.2249   6.2249   6.8248

          k = 0.3596 0.3596 0.3596 (  7436 PWs)   bands (ev):

   -42.8606 -42.8422 -42.8406 -42.8406  -3.5056   1.0092   1.3629   1.3629
     4.3761   5.5966   5.5966   7.2439

          k = 0.3596 0.3596-0.5394 (  7460 PWs)   bands (ev):

   -42.8582 -42.8437 -42.8415 -42.8406  -3.3817   0.7990   1.2402   1.4724
     4.3147   5.2265   5.7000   6.5844

          k = 0.3596-0.5394-0.5394 (  7464 PWs)   bands (ev):

   -42.8565 -42.8428 -42.8428 -42.8418  -3.2632   0.9667   0.9667   1.3667
     4.3326   5.3373   5.3373   5.7850

          k =-0.5394-0.5394-0.5394 (  7568 PWs)   bands (ev):

   -42.8554 -42.8428 -42.8428 -42.8428  -3.1522   1.0682   1.0682   1.0682
     4.7457   4.9605   4.9605   4.9605

     the Fermi energy is     3.7666 ev

!    total energy              =     -65.85652653 Ry
     estimated scf accuracy    <          2.0E-09 Ry
     smearing contrib. (-TS)   =      -0.00034247 Ry
     internal energy E=F+TS    =     -65.85618406 Ry

     The total energy is F=E-TS. E is the sum of the following terms:
     one-electron contribution =     -32.79221536 Ry
     hartree contribution      =      14.30043828 Ry
     xc contribution           =     -16.75770210 Ry
     ewald contribution        =     -30.60670488 Ry

     convergence has been achieved in   9 iterations

     Forces acting on atoms (cartesian axes, Ry/au):

     atom    1 type  1   force =     0.00000000    0.00000000    0.00000000
     atom    2 type  2   force =    -0.05697147   -0.05697147    0.05697147
     atom    3 type  2   force =    -0.05697147    0.05697147   -0.05697147
     atom    4 type  2   force =     0.05697147    0.05697147    0.05697147
     atom    5 type  2   force =     0.05697147   -0.05697147   -0.05697147
     The non-local contrib.  to forces
     atom    1 type  1   force =     0.00000000    0.00000000    0.00000000
     atom    2 type  2   force =    -0.03420563   -0.03420563    0.03420563
     atom    3 type  2   force =    -0.03420563    0.03420563   -0.03420563
     atom    4 type  2   force =     0.03420563    0.03420563    0.03420563
     atom    5 type  2   force =     0.03420563   -0.03420563   -0.03420563
     The ionic contribution  to forces
     atom    1 type  1   force =     0.00000000    0.00000000    0.00000000
     atom    2 type  2   force =    -0.48177809   -0.48177809    0.48177809
     atom    3 type  2   force =    -0.48177809    0.48177809   -0.48177809
     atom    4 type  2   force =     0.48177809    0.48177809    0.48177809
     atom    5 type  2   force =     0.48177809   -0.48177809   -0.48177809
     The local contribution  to forces
     atom    1 type  1   force =     0.00000000    0.00000000   -0.00000000
     atom    2 type  2   force =     0.45902085    0.45902085   -0.45902085
     atom    3 type  2   force =     0.45902085   -0.45902085    0.45902085
     atom    4 type  2   force =    -0.45902085   -0.45902085   -0.45902085
     atom    5 type  2   force =    -0.45902085    0.45902085    0.45902085
     The core correction contribution to forces
     atom    1 type  1   force =    -0.00000000   -0.00000000   -0.00000000
     atom    2 type  2   force =     0.00000000    0.00000000    0.00000000
     atom    3 type  2   force =     0.00000000    0.00000000    0.00000000
     atom    4 type  2   force =     0.00000000    0.00000000    0.00000000
     atom    5 type  2   force =     0.00000000    0.00000000    0.00000000
     The Hubbard contrib.    to forces
     atom    1 type  1   force =     0.00000000    0.00000000    0.00000000
     atom    2 type  2   force =     0.00000000    0.00000000    0.00000000
     atom    3 type  2   force =     0.00000000    0.00000000    0.00000000
     atom    4 type  2   force =     0.00000000    0.00000000    0.00000000
     atom    5 type  2   force =     0.00000000    0.00000000    0.00000000
     The SCF correction term to forces
     atom    1 type  1   force =    -0.00000000    0.00000000    0.00000000
     atom    2 type  2   force =    -0.00000860   -0.00000860    0.00000860
     atom    3 type  2   force =    -0.00000860    0.00000860   -0.00000860
     atom    4 type  2   force =     0.00000860    0.00000860    0.00000860
     atom    5 type  2   force =     0.00000860   -0.00000860   -0.00000860

     Total force =     0.197355     Total SCF correction =     0.000030


     Computing stress (Cartesian axis) and pressure

          total   stress  (Ry/bohr**3)                   (kbar)     P=      167.37
   0.00113779   0.00000000   0.00000000          167.37        0.00        0.00
   0.00000000   0.00113779   0.00000000            0.00      167.37        0.00
   0.00000000   0.00000000   0.00113779            0.00        0.00      167.37

     Energy error            =      3.5E-01 Ry
     Gradient error          =      5.7E-02 Ry/Bohr
     Cell gradient error     =      3.3E+02 kbar

     number of scf cycles    =   2
     number of bfgs steps    =   1

     enthalpy           old  =     -63.8351778378 Ry
     enthalpy           new  =     -64.1866158960 Ry

     CASE: enthalpy          _new < enthalpy          _old

     new trust radius        =       0.5236624019 bohr
ibrav =      1
 celldm(1) =      6.95862515
Input lattice vectors:
     0.81749549     0.00000000     0.00000000
     0.00000000     0.81749549     0.00000000
     0.00000000     0.00000000     0.81749549
New lattice vectors in INITIAL alat:
     0.81749549     0.00000000     0.00000000
     0.00000000     0.81749549     0.00000000
     0.00000000     0.00000000     0.81749549
New lattice vectors in NEW alat (for information only):
     1.00000000     0.00000000     0.00000000
     0.00000000     1.00000000     0.00000000
     0.00000000     0.00000000     1.00000000
Discrepancy in bohr =     0.000000    0.000000    0.000000
     new conv_thr            =       0.0000000057 Ry

     new unit-cell volume =    336.95378 a.u.^3 (    49.93140 Ang^3 )
     density =      1.85735 g/cm^3

CELL_PARAMETERS (alat=  8.51212661)
   0.817495494   0.000000000   0.000000000
   0.000000000   0.817495494   0.000000000
   0.000000000   0.000000000   0.817495494

ATOMIC_POSITIONS (crystal)
Si            0.5000000000        0.5000000000        0.5000000000
Li            0.2138681590        0.2138681590        0.7861318410
Li            0.2138681590        0.7861318410        0.2138681590
Li            0.7861318410        0.7861318410        0.7861318410
Li            0.7861318410        0.2138681590        0.2138681590



     Writing config-only to output data dir ./output/SiLi.save/
     NEW-OLD atomic charge density approx. for the potential

     negative rho (up, down):  2.075E-03 0.000E+00
     extrapolated charge    8.67940, renormalised to   16.00000

     total cpu time spent up to now is       15.4 secs

     Self-consistent Calculation

     iteration #  1     ecut=    80.00 Ry     beta= 0.70
     Davidson diagonalization with overlap
     ethr =  1.00E-06,  avg # of iterations = 10.4

     negative rho (up, down):  2.192E-06 0.000E+00

     total cpu time spent up to now is       16.6 secs

     total energy              =     -64.89119260 Ry
     estimated scf accuracy    <       1.64315463 Ry

     iteration #  2     ecut=    80.00 Ry     beta= 0.70
     Davidson diagonalization with overlap
     ethr =  1.00E-02,  avg # of iterations =  2.1

     total cpu time spent up to now is       17.1 secs

     total energy              =     -65.54066861 Ry
     estimated scf accuracy    <       0.56097472 Ry

     iteration #  3     ecut=    80.00 Ry     beta= 0.70
     Davidson diagonalization with overlap
     ethr =  3.51E-03,  avg # of iterations =  2.0

     total cpu time spent up to now is       17.5 secs

     total energy              =     -65.62056255 Ry
     estimated scf accuracy    <       0.04583778 Ry

     iteration #  4     ecut=    80.00 Ry     beta= 0.70
     Davidson diagonalization with overlap
     ethr =  2.86E-04,  avg # of iterations =  1.6

     total cpu time spent up to now is       17.9 secs

     total energy              =     -65.62809238 Ry
     estimated scf accuracy    <       0.00496057 Ry

     iteration #  5     ecut=    80.00 Ry     beta= 0.70
     Davidson diagonalization with overlap
     ethr =  3.10E-05,  avg # of iterations =  2.5

     total cpu time spent up to now is       18.4 secs

     total energy              =     -65.62877627 Ry
     estimated scf accuracy    <       0.00003067 Ry

     iteration #  6     ecut=    80.00 Ry     beta= 0.70
     Davidson diagonalization with overlap
     ethr =  1.92E-07,  avg # of iterations =  3.4

     total cpu time spent up to now is       18.9 secs

     total energy              =     -65.62879155 Ry
     estimated scf accuracy    <       0.00000092 Ry

     iteration #  7     ecut=    80.00 Ry     beta= 0.70
     Davidson diagonalization with overlap
     ethr =  5.72E-09,  avg # of iterations =  2.4

     total cpu time spent up to now is       19.3 secs

     total energy              =     -65.62879172 Ry
     estimated scf accuracy    <       0.00000016 Ry

     iteration #  8     ecut=    80.00 Ry     beta= 0.70
     Davidson diagonalization with overlap
     ethr =  9.94E-10,  avg # of iterations =  1.6

     total cpu time spent up to now is       19.7 secs

     total energy              =     -65.62879172 Ry
     estimated scf accuracy    <       0.00000001 Ry

     iteration #  9     ecut=    80.00 Ry     beta= 0.70
     Davidson diagonalization with overlap
     ethr =  6.61E-11,  avg # of iterations =  2.5

     total cpu time spent up to now is       20.2 secs

     End of self-consistent calculation

          k = 0.0000 0.0000 0.0000 (  7441 PWs)   bands (ev):

   -40.3005 -40.0773 -40.0773 -40.0773  -2.6427   5.6153   6.5237   6.5237
     6.9765   6.9765   6.9765  13.9168

          k = 0.0000 0.0000 0.2039 (  7436 PWs)   bands (ev):

   -40.2906 -40.0870 -40.0771 -40.0771  -2.5032   4.3082   6.0248   6.8229
     6.9470   6.9470   8.9071  13.3603

          k = 0.0000 0.0000 0.4077 (  7468 PWs)   bands (ev):

   -40.2671 -40.1099 -40.0768 -40.0768  -2.1655   2.6648   6.5797   6.8835
     6.8835   7.7091   8.9600  11.4561

          k = 0.0000 0.0000-0.6116 (  7464 PWs)   bands (ev):

   -40.2523 -40.1244 -40.0766 -40.0766  -1.9494   2.0029   6.8497   6.8497
     7.2162   8.1341   8.8292   9.7365

          k = 0.0000 0.2039 0.2039 (  7429 PWs)   bands (ev):

   -40.2812 -40.0872 -40.0854 -40.0775  -2.3611   4.4209   4.4499   6.4534
     6.8967   8.4733   9.6228  12.4644

          k = 0.0000 0.2039 0.4077 (  7463 PWs)   bands (ev):

   -40.2590 -40.1080 -40.0845 -40.0783  -2.0153   2.7747   4.7701   6.2260
     7.3839   8.7367  10.0226  11.2237

          k = 0.0000 0.2039-0.6116 (  7456 PWs)   bands (ev):

   -40.2451 -40.1216 -40.0835 -40.0790  -1.7925   2.1041   5.0471   5.9227
     8.1006   8.6361   9.4742  10.7532

          k = 0.0000 0.4077 0.4077 (  7437 PWs)   bands (ev):

   -40.2401 -40.1046 -40.1014 -40.0823  -1.6456   3.0339   3.0962   5.3764
     8.1541   9.0919  10.5926  10.9272

          k = 0.0000 0.4077-0.6116 (  7472 PWs)   bands (ev):

   -40.2284 -40.1145 -40.0995 -40.0852  -1.4024   2.3660   3.2837   4.9318
     9.0938   9.3306   9.3427  11.4621

          k = 0.0000-0.6116-0.6116 (  7452 PWs)   bands (ev):

   -40.2183 -40.1094 -40.1094 -40.0898  -1.1415   2.5547   2.5547   4.4714
     9.0903  10.2701  10.2701  10.4692

          k = 0.2039 0.2039 0.2039 (  7463 PWs)   bands (ev):

   -40.2723 -40.0879 -40.0852 -40.0852  -2.2172   4.4543   4.5706   4.5706
     7.7291   9.5414   9.5414  12.2935

          k = 0.2039 0.2039 0.4077 (  7450 PWs)   bands (ev):

   -40.2514 -40.1065 -40.0863 -40.0848  -1.8660   2.8725   4.6449   4.8453
     7.6996   9.2266  10.1170  11.6495

          k = 0.2039 0.2039-0.6116 (  7424 PWs)   bands (ev):

   -40.2384 -40.1192 -40.0861 -40.0846  -1.6384   2.1995   4.7352   5.0058
     7.5948   8.9901  10.1295  11.5235

          k = 0.2039 0.4077 0.4077 (  7448 PWs)   bands (ev):

   -40.2338 -40.1044 -40.1012 -40.0881  -1.4985   3.1154   3.1291   4.5819
     7.8586   9.1359   9.8197  11.8401

          k = 0.2039 0.4077-0.6116 (  7452 PWs)   bands (ev):

   -40.2231 -40.1134 -40.1002 -40.0901  -1.2565   2.4450   3.3021   4.4153
     8.0249   8.8656   9.8685  11.3540

          k = 0.2039-0.6116-0.6116 (  7464 PWs)   bands (ev):

   -40.2138 -40.1091 -40.1091 -40.0939  -1.0022   2.6212   2.6212   4.1157
     8.2952   9.5165   9.5165  10.0545

          k = 0.4077 0.4077 0.4077 (  7436 PWs)   bands (ev):

   -40.2195 -40.1049 -40.1007 -40.1007  -1.1364   3.1647   3.2984   3.2984
     7.9515   8.7239   8.7239  10.8448

          k = 0.4077 0.4077-0.6116 (  7460 PWs)   bands (ev):

   -40.2109 -40.1107 -40.1030 -40.1005  -0.8982   2.6384   3.2502   3.4028
     7.8903   8.2729   8.9476   9.9915

          k = 0.4077-0.6116-0.6116 (  7464 PWs)   bands (ev):

   -40.2037 -40.1087 -40.1087 -40.1031  -0.6632   2.7686   2.7686   3.3050
     7.9031   8.4573   8.4573   9.1100

          k =-0.6116-0.6116-0.6116 (  7568 PWs)   bands (ev):

   -40.1979 -40.1085 -40.1085 -40.1085  -0.4444   2.8512   2.8512   2.8512
     8.0271   8.0271   8.0271   8.5392

     the Fermi energy is     6.8575 ev

!    total energy              =     -65.62879172 Ry
     estimated scf accuracy    <          5.1E-10 Ry
     smearing contrib. (-TS)   =      -0.00072843 Ry
     internal energy E=F+TS    =     -65.62806330 Ry

     The total energy is F=E-TS. E is the sum of the following terms:
     one-electron contribution =     -25.75642530 Ry
     hartree contribution      =      12.50184871 Ry
     xc contribution           =     -17.15232753 Ry
     ewald contribution        =     -35.22115917 Ry

     convergence has been achieved in   9 iterations

     Forces acting on atoms (cartesian axes, Ry/au):

     atom    1 type  1   force =     0.00000000    0.00000000    0.00000000
     atom    2 type  2   force =    -0.06770268   -0.06770268    0.06770268
     atom    3 type  2   force =    -0.06770268    0.06770268   -0.06770268
     atom    4 type  2   force =     0.06770268    0.06770268    0.06770268
     atom    5 type  2   force =     0.06770268   -0.06770268   -0.06770268
     The non-local contrib.  to forces
     atom    1 type  1   force =     0.00000000    0.00000000    0.00000000
     atom    2 type  2   force =     0.00175494    0.00175494   -0.00175494
     atom    3 type  2   force =     0.00175494   -0.00175494    0.00175494
     atom    4 type  2   force =    -0.00175494   -0.00175494   -0.00175494
     atom    5 type  2   force =    -0.00175494    0.00175494    0.00175494
     The ionic contribution  to forces
     atom    1 type  1   force =     0.00000000    0.00000000    0.00000000
     atom    2 type  2   force =    -0.30542377   -0.30542377    0.30542377
     atom    3 type  2   force =    -0.30542377    0.30542377   -0.30542377
     atom    4 type  2   force =     0.30542377    0.30542377    0.30542377
     atom    5 type  2   force =     0.30542377   -0.30542377   -0.30542377
     The local contribution  to forces
     atom    1 type  1   force =     0.00000000    0.00000000   -0.00000000
     atom    2 type  2   force =     0.23597058    0.23597058   -0.23597058
     atom    3 type  2   force =     0.23597058   -0.23597058    0.23597058
     atom    4 type  2   force =    -0.23597058   -0.23597058   -0.23597058
     atom    5 type  2   force =    -0.23597058    0.23597058    0.23597058
     The core correction contribution to forces
     atom    1 type  1   force =     0.00000000   -0.00000000   -0.00000000
     atom    2 type  2   force =     0.00000000    0.00000000    0.00000000
     atom    3 type  2   force =     0.00000000    0.00000000    0.00000000
     atom    4 type  2   force =     0.00000000    0.00000000    0.00000000
     atom    5 type  2   force =     0.00000000    0.00000000    0.00000000
     The Hubbard contrib.    to forces
     atom    1 type  1   force =     0.00000000    0.00000000    0.00000000
     atom    2 type  2   force =     0.00000000    0.00000000    0.00000000
     atom    3 type  2   force =     0.00000000    0.00000000    0.00000000
     atom    4 type  2   force =     0.00000000    0.00000000    0.00000000
     atom    5 type  2   force =     0.00000000    0.00000000    0.00000000
     The SCF correction term to forces
     atom    1 type  1   force =     0.00000000   -0.00000000    0.00000000
     atom    2 type  2   force =    -0.00000443   -0.00000443    0.00000443
     atom    3 type  2   force =    -0.00000443    0.00000443   -0.00000443
     atom    4 type  2   force =     0.00000443    0.00000443    0.00000443
     atom    5 type  2   force =     0.00000443   -0.00000443   -0.00000443

     Total force =     0.234529     Total SCF correction =     0.000015


     Computing stress (Cartesian axis) and pressure

          total   stress  (Ry/bohr**3)                   (kbar)     P=      472.65
   0.00321302   0.00000000   0.00000000          472.65        0.00        0.00
   0.00000000   0.00321302   0.00000000            0.00      472.65        0.00
   0.00000000   0.00000000   0.00321302            0.00        0.00      472.65

     Energy error            =      3.0E-01 Ry
     Gradient error          =      6.8E-02 Ry/Bohr
     Cell gradient error     =      2.7E+01 kbar

     number of scf cycles    =   3
     number of bfgs steps    =   2

     enthalpy           old  =     -64.1866158960 Ry
     enthalpy           new  =     -64.4835091172 Ry

     CASE: enthalpy          _new < enthalpy          _old

     new trust radius        =       0.1377642443 bohr
ibrav =      1
 celldm(1) =      6.69750235
Input lattice vectors:
     0.78681893     0.00000000     0.00000000
     0.00000000     0.78681893     0.00000000
     0.00000000     0.00000000     0.78681893
New lattice vectors in INITIAL alat:
     0.78681893     0.00000000     0.00000000
     0.00000000     0.78681893     0.00000000
     0.00000000     0.00000000     0.78681893
New lattice vectors in NEW alat (for information only):
     1.00000000     0.00000000     0.00000000
     0.00000000     1.00000000     0.00000000
     0.00000000     0.00000000     1.00000000
Discrepancy in bohr =     0.000000    0.000000    0.000000
     new conv_thr            =       0.0000000068 Ry

     new unit-cell volume =    300.42677 a.u.^3 (    44.51865 Ang^3 )
     density =      2.08318 g/cm^3

CELL_PARAMETERS (alat=  8.51212661)
   0.786818930   0.000000000   0.000000000
   0.000000000   0.786818930   0.000000000
   0.000000000   0.000000000   0.786818930

ATOMIC_POSITIONS (crystal)
Si            0.5000000000        0.5000000000        0.5000000000
Li            0.2030772118        0.2030772118        0.7969227882
Li            0.2030772118        0.7969227882        0.2030772118
Li            0.7969227882        0.7969227882        0.7969227882
Li            0.7969227882        0.2030772118        0.2030772118



     Writing config-only to output data dir ./output/SiLi.save/
     NEW-OLD atomic charge density approx. for the potential

     negative rho (up, down):  1.878E-07 0.000E+00
     extrapolated charge   14.05695, renormalised to   16.00000

     total cpu time spent up to now is       22.4 secs

     Self-consistent Calculation

     iteration #  1     ecut=    80.00 Ry     beta= 0.70
     Davidson diagonalization with overlap
     ethr =  1.00E-06,  avg # of iterations =  8.1

     total cpu time spent up to now is       23.4 secs

     total energy              =     -65.49657764 Ry
     estimated scf accuracy    <       0.03242472 Ry

     iteration #  2     ecut=    80.00 Ry     beta= 0.70
     Davidson diagonalization with overlap
     ethr =  2.03E-04,  avg # of iterations =  2.5

     total cpu time spent up to now is       23.8 secs

     total energy              =     -65.53980538 Ry
     estimated scf accuracy    <       0.03180139 Ry

     iteration #  3     ecut=    80.00 Ry     beta= 0.70
     Davidson diagonalization with overlap
     ethr =  1.99E-04,  avg # of iterations =  1.5

     total cpu time spent up to now is       24.1 secs

     total energy              =     -65.54326463 Ry
     estimated scf accuracy    <       0.00259918 Ry

     iteration #  4     ecut=    80.00 Ry     beta= 0.70
     Davidson diagonalization with overlap
     ethr =  1.62E-05,  avg # of iterations =  1.4

     total cpu time spent up to now is       24.5 secs

     total energy              =     -65.54306005 Ry
     estimated scf accuracy    <       0.00063464 Ry

     iteration #  5     ecut=    80.00 Ry     beta= 0.70
     Davidson diagonalization with overlap
     ethr =  3.97E-06,  avg # of iterations =  1.9

     total cpu time spent up to now is       24.8 secs

     total energy              =     -65.54314742 Ry
     estimated scf accuracy    <       0.00000161 Ry

     iteration #  6     ecut=    80.00 Ry     beta= 0.70
     Davidson diagonalization with overlap
     ethr =  1.01E-08,  avg # of iterations =  3.9

     total cpu time spent up to now is       25.2 secs

     total energy              =     -65.54314965 Ry
     estimated scf accuracy    <       0.00000125 Ry

     iteration #  7     ecut=    80.00 Ry     beta= 0.70
     Davidson diagonalization with overlap
     ethr =  7.81E-09,  avg # of iterations =  1.5

     total cpu time spent up to now is       25.5 secs

     total energy              =     -65.54314979 Ry
     estimated scf accuracy    <       0.00000004 Ry

     iteration #  8     ecut=    80.00 Ry     beta= 0.70
     Davidson diagonalization with overlap
     ethr =  2.28E-10,  avg # of iterations =  2.6

     total cpu time spent up to now is       25.9 secs

     total energy              =     -65.54314981 Ry
     estimated scf accuracy    <       0.00000002 Ry

     iteration #  9     ecut=    80.00 Ry     beta= 0.70
     Davidson diagonalization with overlap
     ethr =  1.04E-10,  avg # of iterations =  1.2

     total cpu time spent up to now is       26.2 secs

     End of self-consistent calculation

          k = 0.0000 0.0000 0.0000 (  7441 PWs)   bands (ev):

   -39.5036 -39.0996 -39.0996 -39.0996  -1.9167   7.1338   7.4374   7.4374
     8.2441   8.2441   8.2441  15.3388

          k = 0.0000 0.0000 0.2118 (  7436 PWs)   bands (ev):

   -39.4901 -39.1128 -39.0993 -39.0993  -1.7621   5.3395   7.3618   7.7633
     8.2081   8.2081  10.2306  14.7836

          k = 0.0000 0.0000 0.4236 (  7468 PWs)   bands (ev):

   -39.4599 -39.1424 -39.0987 -39.0987  -1.3845   3.5633   7.8729   8.1294
     8.1294   8.7350  10.3287  12.7209

          k = 0.0000 0.0000-0.6355 (  7464 PWs)   bands (ev):

   -39.4425 -39.1596 -39.0984 -39.0984  -1.1390   2.8465   8.0870   8.0870
     8.4072   9.5738  10.0668  10.7396

          k = 0.0000 0.2118 0.2118 (  7429 PWs)   bands (ev):

   -39.4773 -39.1131 -39.1107 -39.0996  -1.6034   5.3243   5.6285   7.6254
     8.1226   9.7517  11.0320  13.7802

          k = 0.0000 0.2118 0.4236 (  7463 PWs)   bands (ev):

   -39.4486 -39.1401 -39.1097 -39.1004  -1.2132   3.6620   5.8304   7.3748
     8.5998  10.0362  11.4001  12.5675

          k = 0.0000 0.2118-0.6355 (  7456 PWs)   bands (ev):

   -39.4320 -39.1563 -39.1085 -39.1010  -0.9564   2.9338   6.0967   7.0517
     9.3879  10.0046  10.5350  12.2993

          k = 0.0000 0.4236 0.4236 (  7437 PWs)   bands (ev):

   -39.4233 -39.1362 -39.1327 -39.1044  -0.7828   3.8050   4.0759   6.4757
     9.3366  10.4746  11.9085  12.2284

          k = 0.0000 0.4236-0.6355 (  7472 PWs)   bands (ev):

   -39.4088 -39.1486 -39.1309 -39.1071  -0.4886   3.1488   4.1318   6.0403
    10.2427  10.6194  10.6954  12.9130

          k = 0.0000-0.6355-0.6355 (  7452 PWs)   bands (ev):

   -39.3957 -39.1437 -39.1437 -39.1113  -0.1568   3.2910   3.2910   5.6071
    10.2345  11.5013  11.5013  12.0507

          k = 0.2118 0.2118 0.2118 (  7463 PWs)   bands (ev):

   -39.4651 -39.1138 -39.1104 -39.1104  -1.4419   5.4636   5.4636   5.7679
     9.0309  10.8722  10.8722  13.6132

          k = 0.2118 0.2118 0.4236 (  7450 PWs)   bands (ev):

   -39.4378 -39.1384 -39.1117 -39.1097  -1.0423   3.7533   5.7634   5.7865
     9.0012  10.3400  11.5144  13.1464

          k = 0.2118 0.2118-0.6355 (  7424 PWs)   bands (ev):

   -39.4222 -39.1536 -39.1114 -39.1094  -0.7767   3.0180   5.8063   5.9802
     8.8998   9.9913  11.5855  13.1292

          k = 0.2118 0.4236 0.4236 (  7448 PWs)   bands (ev):

   -39.4140 -39.1359 -39.1323 -39.1132  -0.6123   3.8939   4.0925   5.5837
     9.1652  10.2505  10.9978  13.3053

          k = 0.2118 0.4236-0.6355 (  7452 PWs)   bands (ev):

   -39.4004 -39.1473 -39.1315 -39.1150  -0.3170   3.2247   4.1532   5.4266
     9.4025   9.8468  11.0932  12.6715

          k = 0.2118-0.6355-0.6355 (  7464 PWs)   bands (ev):

   -39.3881 -39.1433 -39.1433 -39.1183   0.0086   3.3611   3.3611   5.1563
     9.6052  10.6515  10.6515  11.2532

          k = 0.4236 0.4236 0.4236 (  7436 PWs)   bands (ev):

   -39.3934 -39.1362 -39.1316 -39.1316  -0.1802   4.0946   4.0946   4.1425
     9.3402   9.7602   9.7602  12.1223

          k = 0.4236 0.4236-0.6355 (  7460 PWs)   bands (ev):

   -39.3819 -39.1444 -39.1340 -39.1313   0.1203   3.4041   4.1443   4.2102
     9.2268   9.2576  10.0403  11.2472

          k = 0.4236-0.6355-0.6355 (  7464 PWs)   bands (ev):

   -39.3716 -39.1425 -39.1425 -39.1336   0.4279   3.5170   3.5170   4.1674
     9.1065   9.4812   9.4812  10.4623

          k =-0.6355-0.6355-0.6355 (  7568 PWs)   bands (ev):

   -39.3624 -39.1422 -39.1422 -39.1422   0.7204   3.6048   3.6048   3.6048
     9.0098   9.0098   9.0098  10.1303

     the Fermi energy is     8.0744 ev

!    total energy              =     -65.54314981 Ry
     estimated scf accuracy    <          4.5E-10 Ry
     smearing contrib. (-TS)   =      -0.00055879 Ry
     internal energy E=F+TS    =     -65.54259102 Ry

     The total energy is F=E-TS. E is the sum of the following terms:
     one-electron contribution =     -23.52296899 Ry
     hartree contribution      =      12.01995070 Ry
     xc contribution           =     -17.28179856 Ry
     ewald contribution        =     -36.75777416 Ry

     convergence has been achieved in   9 iterations

     Forces acting on atoms (cartesian axes, Ry/au):

     atom    1 type  1   force =     0.00000000    0.00000000    0.00000000
     atom    2 type  2   force =    -0.03667438   -0.03667438    0.03667438
     atom    3 type  2   force =    -0.03667438    0.03667438   -0.03667438
     atom    4 type  2   force =     0.03667438    0.03667438    0.03667438
     atom    5 type  2   force =     0.03667438   -0.03667438   -0.03667438
     The non-local contrib.  to forces
     atom    1 type  1   force =     0.00000000    0.00000000    0.00000000
     atom    2 type  2   force =     0.00320387    0.00320387   -0.00320387
     atom    3 type  2   force =     0.00320387   -0.00320387    0.00320387
     atom    4 type  2   force =    -0.00320387   -0.00320387   -0.00320387
     atom    5 type  2   force =    -0.00320387    0.00320387    0.00320387
     The ionic contribution  to forces
     atom    1 type  1   force =     0.00000000    0.00000000    0.00000000
     atom    2 type  2   force =    -0.04476058   -0.04476058    0.04476058
     atom    3 type  2   force =    -0.04476058    0.04476058   -0.04476058
     atom    4 type  2   force =     0.04476058    0.04476058    0.04476058
     atom    5 type  2   force =     0.04476058   -0.04476058   -0.04476058
     The local contribution  to forces
     atom    1 type  1   force =    -0.00000000   -0.00000000   -0.00000000
     atom    2 type  2   force =     0.00489330    0.00489330   -0.00489330
     atom    3 type  2   force =     0.00489330   -0.00489330    0.00489330
     atom    4 type  2   force =    -0.00489330   -0.00489330   -0.00489330
     atom    5 type  2   force =    -0.00489330    0.00489330    0.00489330
     The core correction contribution to forces
     atom    1 type  1   force =    -0.00000000   -0.00000000   -0.00000000
     atom    2 type  2   force =     0.00000000    0.00000000    0.00000000
     atom    3 type  2   force =     0.00000000    0.00000000    0.00000000
     atom    4 type  2   force =     0.00000000    0.00000000    0.00000000
     atom    5 type  2   force =     0.00000000    0.00000000    0.00000000
     The Hubbard contrib.    to forces
     atom    1 type  1   force =     0.00000000    0.00000000    0.00000000
     atom    2 type  2   force =     0.00000000    0.00000000    0.00000000
     atom    3 type  2   force =     0.00000000    0.00000000    0.00000000
     atom    4 type  2   force =     0.00000000    0.00000000    0.00000000
     atom    5 type  2   force =     0.00000000    0.00000000    0.00000000
     The SCF correction term to forces
     atom    1 type  1   force =    -0.00000000    0.00000000    0.00000000
     atom    2 type  2   force =    -0.00001096   -0.00001096    0.00001096
     atom    3 type  2   force =    -0.00001096    0.00001096   -0.00001096
     atom    4 type  2   force =     0.00001096    0.00001096    0.00001096
     atom    5 type  2   force =     0.00001096   -0.00001096   -0.00001096

     Total force =     0.127044     Total SCF correction =     0.000038


     Computing stress (Cartesian axis) and pressure

          total   stress  (Ry/bohr**3)                   (kbar)     P=      606.74
   0.00412455   0.00000000   0.00000000          606.74        0.00        0.00
   0.00000000   0.00412455   0.00000000            0.00      606.74        0.00
   0.00000000   0.00000000   0.00412455            0.00        0.00      606.74

     Energy error            =      3.9E-02 Ry
     Gradient error          =      3.7E-02 Ry/Bohr
     Cell gradient error     =      1.1E+02 kbar

     number of scf cycles    =   4
     number of bfgs steps    =   3

     enthalpy           old  =     -64.4835091172 Ry
     enthalpy           new  =     -64.5220199825 Ry

     CASE: enthalpy          _new < enthalpy          _old

     new trust radius        =       0.0606464910 bohr
ibrav =      1
 celldm(1) =      6.76037684
Input lattice vectors:
     0.79420539     0.00000000     0.00000000
     0.00000000     0.79420539     0.00000000
     0.00000000     0.00000000     0.79420539
New lattice vectors in INITIAL alat:
     0.79420539     0.00000000     0.00000000
     0.00000000     0.79420539     0.00000000
     0.00000000     0.00000000     0.79420539
New lattice vectors in NEW alat (for information only):
     1.00000000     0.00000000     0.00000000
     0.00000000     1.00000000     0.00000000
     0.00000000     0.00000000     1.00000000
Discrepancy in bohr =     0.000000    0.000000    0.000000
     new conv_thr            =       0.0000000037 Ry

     new unit-cell volume =    308.96744 a.u.^3 (    45.78425 Ang^3 )
     density =      2.02559 g/cm^3

CELL_PARAMETERS (alat=  8.51212661)
   0.794205391   0.000000000   0.000000000
   0.000000000   0.794205391   0.000000000
   0.000000000   0.000000000   0.794205391

ATOMIC_POSITIONS (crystal)
Si            0.5000000000        0.5000000000        0.5000000000
Li            0.1978492528        0.1978492528        0.8021507472
Li            0.1978492528        0.8021507472        0.1978492528
Li            0.8021507472        0.8021507472        0.8021507472
Li            0.8021507472        0.1978492528        0.1978492528



     Writing config-only to output data dir ./output/SiLi.save/
     NEW-OLD atomic charge density approx. for the potential
     extrapolated charge   16.44176, renormalised to   16.00000

     total cpu time spent up to now is       28.4 secs

     Self-consistent Calculation

     iteration #  1     ecut=    80.00 Ry     beta= 0.70
     Davidson diagonalization with overlap
     ethr =  1.00E-06,  avg # of iterations =  5.4

     total cpu time spent up to now is       29.1 secs

     total energy              =     -65.58466014 Ry
     estimated scf accuracy    <       0.00079275 Ry

     iteration #  2     ecut=    80.00 Ry     beta= 0.70
     Davidson diagonalization with overlap
     ethr =  4.95E-06,  avg # of iterations =  2.7

     total cpu time spent up to now is       29.5 secs

     total energy              =     -65.58675251 Ry
     estimated scf accuracy    <       0.00056805 Ry

     iteration #  3     ecut=    80.00 Ry     beta= 0.70
     Davidson diagonalization with overlap
     ethr =  3.55E-06,  avg # of iterations =  1.1

     total cpu time spent up to now is       29.8 secs

     total energy              =     -65.58674135 Ry
     estimated scf accuracy    <       0.00013612 Ry

     iteration #  4     ecut=    80.00 Ry     beta= 0.70
     Davidson diagonalization with overlap
     ethr =  8.51E-07,  avg # of iterations =  1.1

     total cpu time spent up to now is       30.1 secs

     total energy              =     -65.58671212 Ry
     estimated scf accuracy    <       0.00009409 Ry

     iteration #  5     ecut=    80.00 Ry     beta= 0.70
     Davidson diagonalization with overlap
     ethr =  5.88E-07,  avg # of iterations =  1.4

     total cpu time spent up to now is       30.4 secs

     total energy              =     -65.58672434 Ry
     estimated scf accuracy    <       0.00000016 Ry

     iteration #  6     ecut=    80.00 Ry     beta= 0.70
     Davidson diagonalization with overlap
     ethr =  9.78E-10,  avg # of iterations =  4.0

     total cpu time spent up to now is       30.9 secs

     total energy              =     -65.58672460 Ry
     estimated scf accuracy    <       0.00000021 Ry

     iteration #  7     ecut=    80.00 Ry     beta= 0.70
     Davidson diagonalization with overlap
     ethr =  9.78E-10,  avg # of iterations =  1.8

     total cpu time spent up to now is       31.2 secs

     End of self-consistent calculation

          k = 0.0000 0.0000 0.0000 (  7441 PWs)   bands (ev):

   -39.7776 -39.3459 -39.3459 -39.3459  -2.1011   6.9611   7.3076   7.3076
     7.9341   7.9341   7.9341  14.8902

          k = 0.0000 0.0000 0.2099 (  7436 PWs)   bands (ev):

   -39.7660 -39.3573 -39.3456 -39.3456  -1.9448   5.1579   7.1810   7.6289
     7.9133   7.9133   9.9536  14.3315

          k = 0.0000 0.0000 0.4197 (  7468 PWs)   bands (ev):

   -39.7405 -39.3823 -39.3451 -39.3451  -1.5633   3.3910   7.6548   7.8652
     7.8652   8.5901  10.0281  12.4672

          k = 0.0000 0.0000-0.6296 (  7464 PWs)   bands (ev):

   -39.7263 -39.3963 -39.3448 -39.3448  -1.3155   2.6771   7.8379   7.8379
     8.1448   9.3105  10.0029  10.4165

          k = 0.0000 0.2099 0.2099 (  7429 PWs)   bands (ev):

   -39.7548 -39.3575 -39.3555 -39.3458  -1.7845   5.1366   5.4513   7.4248
     7.8734   9.4598  10.7625  13.4018

          k = 0.0000 0.2099 0.4197 (  7463 PWs)   bands (ev):

   -39.7305 -39.3805 -39.3548 -39.3463  -1.3904   3.4902   5.6442   7.1626
     8.3749   9.7153  11.0777  12.2842

          k = 0.0000 0.2099-0.6296 (  7456 PWs)   bands (ev):

   -39.7170 -39.3938 -39.3539 -39.3467  -1.1314   2.7654   5.9013   6.8623
     9.0870   9.7958  10.1439  12.0961

          k = 0.0000 0.4197 0.4197 (  7437 PWs)   bands (ev):

   -39.7087 -39.3775 -39.3748 -39.3493  -0.9565   3.6278   3.9094   6.3150
     9.0792  10.0474  11.5599  11.9205

          k = 0.0000 0.4197-0.6296 (  7472 PWs)   bands (ev):

   -39.6967 -39.3880 -39.3736 -39.3512  -0.6601   2.9800   3.9554   5.9037
     9.8085  10.2615  10.4533  12.5721

          k = 0.0000-0.6296-0.6296 (  7452 PWs)   bands (ev):

   -39.6856 -39.3844 -39.3844 -39.3540  -0.3260   3.1188   3.1188   5.4926
     9.7498  11.1594  11.1594  11.8256

          k = 0.2099 0.2099 0.2099 (  7463 PWs)   bands (ev):

   -39.7442 -39.3582 -39.3553 -39.3553  -1.6213   5.2801   5.2801   5.5923
     8.7207  10.5922  10.5922  13.2693

          k = 0.2099 0.2099 0.4197 (  7450 PWs)   bands (ev):

   -39.7209 -39.3792 -39.3564 -39.3547  -1.2179   3.5847   5.5848   5.6175
     8.6927  10.0087  11.1553  12.8957

          k = 0.2099 0.2099-0.6296 (  7424 PWs)   bands (ev):

   -39.7081 -39.3917 -39.3561 -39.3544  -0.9499   2.8528   5.6268   5.8242
     8.5929   9.6264  11.2162  12.9460

          k = 0.2099 0.4197 0.4197 (  7448 PWs)   bands (ev):

   -39.7002 -39.3772 -39.3745 -39.3573  -0.7837   3.7276   3.9347   5.4403
     8.8356   9.8453  10.6284  12.8956

          k = 0.2099 0.4197-0.6296 (  7452 PWs)   bands (ev):

   -39.6889 -39.3870 -39.3739 -39.3585  -0.4860   3.0646   3.9923   5.3021
     9.0441   9.4547  10.6996  12.2374

          k = 0.2099-0.6296-0.6296 (  7464 PWs)   bands (ev):

   -39.6783 -39.3841 -39.3841 -39.3608  -0.1577   3.2017   3.2017   5.0505
     9.1747  10.2772  10.2772  10.8350

          k = 0.4197 0.4197 0.4197 (  7436 PWs)   bands (ev):

   -39.6820 -39.3774 -39.3739 -39.3739  -0.3465   3.9563   3.9563   4.0023
     8.9719   9.3567   9.3567  11.6576

          k = 0.4197 0.4197-0.6296 (  7460 PWs)   bands (ev):

   -39.6720 -39.3848 -39.3758 -39.3736  -0.0429   3.2642   4.0145   4.0908
     8.8335   8.8480   9.6232  10.8017

          k = 0.4197-0.6296-0.6296 (  7464 PWs)   bands (ev):

   -39.6629 -39.3834 -39.3834 -39.3753   0.2683   3.3890   3.3890   4.0629
     8.6751   9.0618   9.0618  10.0371

          k =-0.6296-0.6296-0.6296 (  7568 PWs)   bands (ev):

   -39.6546 -39.3831 -39.3831 -39.3831   0.5650   3.4967   3.4967   3.4967
     8.5671   8.5671   8.5671   9.7202

     the Fermi energy is     7.8208 ev

!    total energy              =     -65.58672463 Ry
     estimated scf accuracy    <          2.5E-09 Ry
     smearing contrib. (-TS)   =      -0.00070888 Ry
     internal energy E=F+TS    =     -65.58601575 Ry

     The total energy is F=E-TS. E is the sum of the following terms:
     one-electron contribution =     -24.10314835 Ry
     hartree contribution      =      12.15454043 Ry
     xc contribution           =     -17.23271868 Ry
     ewald contribution        =     -36.40468916 Ry

     convergence has been achieved in   7 iterations

     Forces acting on atoms (cartesian axes, Ry/au):

     atom    1 type  1   force =     0.00000000    0.00000000    0.00000000
     atom    2 type  2   force =    -0.01178434   -0.01178434    0.01178434
     atom    3 type  2   force =    -0.01178434    0.01178434   -0.01178434
     atom    4 type  2   force =     0.01178434    0.01178434    0.01178434
     atom    5 type  2   force =     0.01178434   -0.01178434   -0.01178434
     The non-local contrib.  to forces
     atom    1 type  1   force =     0.00000000    0.00000000    0.00000000
     atom    2 type  2   force =    -0.00713806   -0.00713806    0.00713806
     atom    3 type  2   force =    -0.00713806    0.00713806   -0.00713806
     atom    4 type  2   force =     0.00713806    0.00713806    0.00713806
     atom    5 type  2   force =     0.00713806   -0.00713806   -0.00713806
     The ionic contribution  to forces
     atom    1 type  1   force =    -0.00000000   -0.00000000   -0.00000000
     atom    2 type  2   force =     0.09766373    0.09766373   -0.09766373
     atom    3 type  2   force =     0.09766373   -0.09766373    0.09766373
     atom    4 type  2   force =    -0.09766373   -0.09766373   -0.09766373
     atom    5 type  2   force =    -0.09766373    0.09766373    0.09766373
     The local contribution  to forces
     atom    1 type  1   force =    -0.00000000   -0.00000000   -0.00000000
     atom    2 type  2   force =    -0.10229697   -0.10229697    0.10229697
     atom    3 type  2   force =    -0.10229697    0.10229697   -0.10229697
     atom    4 type  2   force =     0.10229697    0.10229697    0.10229697
     atom    5 type  2   force =     0.10229697   -0.10229697   -0.10229697
     The core correction contribution to forces
     atom    1 type  1   force =    -0.00000000   -0.00000000   -0.00000000
     atom    2 type  2   force =     0.00000000    0.00000000    0.00000000
     atom    3 type  2   force =     0.00000000    0.00000000    0.00000000
     atom    4 type  2   force =     0.00000000    0.00000000    0.00000000
     atom    5 type  2   force =     0.00000000    0.00000000    0.00000000
     The Hubbard contrib.    to forces
     atom    1 type  1   force =     0.00000000    0.00000000    0.00000000
     atom    2 type  2   force =     0.00000000    0.00000000    0.00000000
     atom    3 type  2   force =     0.00000000    0.00000000    0.00000000
     atom    4 type  2   force =     0.00000000    0.00000000    0.00000000
     atom    5 type  2   force =     0.00000000    0.00000000    0.00000000
     The SCF correction term to forces
     atom    1 type  1   force =    -0.00000000   -0.00000000   -0.00000000
     atom    2 type  2   force =    -0.00001305   -0.00001305    0.00001305
     atom    3 type  2   force =    -0.00001305    0.00001305   -0.00001305
     atom    4 type  2   force =     0.00001305    0.00001305    0.00001305
     atom    5 type  2   force =     0.00001305   -0.00001305   -0.00001305

     Total force =     0.040822     Total SCF correction =     0.000045


     Computing stress (Cartesian axis) and pressure

          total   stress  (Ry/bohr**3)                   (kbar)     P=      545.54
   0.00370853   0.00000000   0.00000000          545.54        0.00        0.00
   0.00000000   0.00370853   0.00000000            0.00      545.54        0.00
   0.00000000   0.00000000   0.00370853            0.00        0.00      545.54

     Energy error            =      1.5E-02 Ry
     Gradient error          =      1.2E-02 Ry/Bohr
     Cell gradient error     =      4.6E+01 kbar

     number of scf cycles    =   5
     number of bfgs steps    =   4

     enthalpy           old  =     -64.5220199825 Ry
     enthalpy           new  =     -64.5365656392 Ry

     CASE: enthalpy          _new < enthalpy          _old

     new trust radius        =       0.0299596812 bohr
ibrav =      1
 celldm(1) =      6.81799001
Input lattice vectors:
     0.80097375     0.00000000     0.00000000
     0.00000000     0.80097375     0.00000000
     0.00000000     0.00000000     0.80097375
New lattice vectors in INITIAL alat:
     0.80097375     0.00000000     0.00000000
     0.00000000     0.80097375     0.00000000
     0.00000000     0.00000000     0.80097375
New lattice vectors in NEW alat (for information only):
     1.00000000     0.00000000     0.00000000
     0.00000000     1.00000000     0.00000000
     0.00000000     0.00000000     1.00000000
Discrepancy in bohr =     0.000000    0.000000    0.000000
     new conv_thr            =       0.0000000012 Ry

     new unit-cell volume =    316.93418 a.u.^3 (    46.96480 Ang^3 )
     density =      1.97468 g/cm^3

CELL_PARAMETERS (alat=  8.51212661)
   0.800973755   0.000000000   0.000000000
   0.000000000   0.800973755   0.000000000
   0.000000000   0.000000000   0.800973755

ATOMIC_POSITIONS (crystal)
Si            0.5000000000        0.5000000000        0.5000000000
Li            0.1955963376        0.1955963376        0.8044036624
Li            0.1955963376        0.8044036624        0.1955963376
Li            0.8044036624        0.8044036624        0.8044036624
Li            0.8044036624        0.1955963376        0.1955963376



     Writing config-only to output data dir ./output/SiLi.save/
     NEW-OLD atomic charge density approx. for the potential
     extrapolated charge   16.40172, renormalised to   16.00000

     total cpu time spent up to now is       33.5 secs

     Self-consistent Calculation

     iteration #  1     ecut=    80.00 Ry     beta= 0.70
     Davidson diagonalization with overlap
     ethr =  1.00E-06,  avg # of iterations =  4.0

     total cpu time spent up to now is       34.0 secs

     total energy              =     -65.61401200 Ry
     estimated scf accuracy    <       0.00062437 Ry

     iteration #  2     ecut=    80.00 Ry     beta= 0.70
     Davidson diagonalization with overlap
     ethr =  3.90E-06,  avg # of iterations =  3.0

     total cpu time spent up to now is       34.5 secs

     total energy              =     -65.61621614 Ry
     estimated scf accuracy    <       0.00259732 Ry

     iteration #  3     ecut=    80.00 Ry     beta= 0.70
     Davidson diagonalization with overlap
     ethr =  3.90E-06,  avg # of iterations =  1.8

     total cpu time spent up to now is       34.8 secs

     total energy              =     -65.61627157 Ry
     estimated scf accuracy    <       0.00049730 Ry

     iteration #  4     ecut=    80.00 Ry     beta= 0.70
     Davidson diagonalization with overlap
     ethr =  3.11E-06,  avg # of iterations =  1.0

     total cpu time spent up to now is       35.1 secs

     total energy              =     -65.61617768 Ry
     estimated scf accuracy    <       0.00023150 Ry

     iteration #  5     ecut=    80.00 Ry     beta= 0.70
     Davidson diagonalization with overlap
     ethr =  1.45E-06,  avg # of iterations =  1.8

     total cpu time spent up to now is       35.4 secs

     total energy              =     -65.61620501 Ry
     estimated scf accuracy    <       0.00000223 Ry

     iteration #  6     ecut=    80.00 Ry     beta= 0.70
     Davidson diagonalization with overlap
     ethr =  1.39E-08,  avg # of iterations =  3.4

     total cpu time spent up to now is       35.8 secs

     total energy              =     -65.61620610 Ry
     estimated scf accuracy    <       0.00000016 Ry

     iteration #  7     ecut=    80.00 Ry     beta= 0.70
     Davidson diagonalization with overlap
     ethr =  1.03E-09,  avg # of iterations =  1.3

     total cpu time spent up to now is       36.1 secs

     total energy              =     -65.61620610 Ry
     estimated scf accuracy    <       0.00000003 Ry

     iteration #  8     ecut=    80.00 Ry     beta= 0.70
     Davidson diagonalization with overlap
     ethr =  1.88E-10,  avg # of iterations =  2.0

     total cpu time spent up to now is       36.4 secs

     total energy              =     -65.61620610 Ry
     estimated scf accuracy    <       0.00000001 Ry

     iteration #  9     ecut=    80.00 Ry     beta= 0.70
     Davidson diagonalization with overlap
     ethr =  6.48E-11,  avg # of iterations =  1.0

     total cpu time spent up to now is       36.7 secs

     total energy              =     -65.61620610 Ry
     estimated scf accuracy    <          1.2E-09 Ry

     iteration # 10     ecut=    80.00 Ry     beta= 0.70
     Davidson diagonalization with overlap
     ethr =  7.41E-12,  avg # of iterations =  1.9

     total cpu time spent up to now is       37.0 secs

     End of self-consistent calculation

          k = 0.0000 0.0000 0.0000 (  7441 PWs)   bands (ev):

   -40.0019 -39.5712 -39.5712 -39.5712  -2.2570   6.7307   7.1581   7.1581
     7.6588   7.6588   7.6588  14.5170

          k = 0.0000 0.0000 0.2081 (  7436 PWs)   bands (ev):

   -39.9915 -39.5814 -39.5710 -39.5710  -2.1012   4.9719   6.9593   7.4745
     7.6466   7.6466   9.6912  13.9533

          k = 0.0000 0.0000 0.4162 (  7468 PWs)   bands (ev):

   -39.9689 -39.6036 -39.5705 -39.5705  -1.7211   3.2208   7.4184   7.6163
     7.6163   8.4218   9.7435  12.2220

          k = 0.0000 0.0000-0.6242 (  7464 PWs)   bands (ev):

   -39.9565 -39.6158 -39.5703 -39.5703  -1.4745   2.5129   7.5980   7.5980
     7.8927   9.0397   9.8653  10.1513

          k = 0.0000 0.2081 0.2081 (  7429 PWs)   bands (ev):

   -39.9815 -39.5816 -39.5799 -39.5711  -1.9414   4.9590   5.2512   7.2071
     7.6344   9.1930  10.4963  13.0803

          k = 0.0000 0.2081 0.4162 (  7463 PWs)   bands (ev):

   -39.9599 -39.6021 -39.5793 -39.5715  -1.5492   3.3214   5.4506   6.9467
     8.1441   9.4280  10.7832  12.0148

          k = 0.0000 0.2081-0.6242 (  7456 PWs)   bands (ev):

   -39.9480 -39.6137 -39.5785 -39.5718  -1.2918   2.6031   5.7049   6.6594
     8.8109   9.5599   9.8371  11.8586

          k = 0.0000 0.4162 0.4162 (  7437 PWs)   bands (ev):

   -39.9404 -39.5996 -39.5973 -39.5740  -1.1185   3.4656   3.7347   6.1299
     8.8365   9.6971  11.2568  11.6351

          k = 0.0000 0.4162-0.6242 (  7472 PWs)   bands (ev):

   -39.9298 -39.6088 -39.5963 -39.5755  -0.8254   2.8215   3.7869   5.7300
     9.4811   9.9498  10.2017  12.2591

          k = 0.0000-0.6242-0.6242 (  7452 PWs)   bands (ev):

   -39.9199 -39.6059 -39.6059 -39.5778  -0.4963   2.9624   2.9624   5.3281
     9.3964  10.8664  10.8664  11.5618

          k = 0.2081 0.2081 0.2081 (  7463 PWs)   bands (ev):

   -39.9719 -39.5822 -39.5796 -39.5796  -1.7789   5.1035   5.1035   5.3811
     8.4383  10.3253  10.3253  12.9678

          k = 0.2081 0.2081 0.4162 (  7450 PWs)   bands (ev):

   -39.9512 -39.6009 -39.5806 -39.5791  -1.3776   3.4182   5.3886   5.4453
     8.4092   9.7290  10.8410  12.6347

          k = 0.2081 0.2081-0.6242 (  7424 PWs)   bands (ev):

   -39.9399 -39.6120 -39.5804 -39.5789  -1.1116   2.6931   5.4351   5.6568
     8.3090   9.3366  10.8923  12.7151

          k = 0.2081 0.4162 0.4162 (  7448 PWs)   bands (ev):

   -39.9327 -39.5993 -39.5970 -39.5813  -0.9467   3.5707   3.7661   5.2747
     8.5412   9.5269  10.3252  12.5372

          k = 0.2081 0.4162-0.6242 (  7452 PWs)   bands (ev):

   -39.9226 -39.6080 -39.5965 -39.5823  -0.6522   2.9111   3.8317   5.1457
     8.7290   9.1531  10.3822  11.8787

          k = 0.2081-0.6242-0.6242 (  7464 PWs)   bands (ev):

   -39.9132 -39.6056 -39.6056 -39.5841  -0.3290   3.0519   3.0519   4.9009
     8.8357   9.9752   9.9752  10.4855

          k = 0.4162 0.4162 0.4162 (  7436 PWs)   bands (ev):

   -39.9162 -39.5995 -39.5964 -39.5964  -0.5129   3.8136   3.8136   3.8400
     8.6506   9.0465   9.0465  11.2864

          k = 0.4162 0.4162-0.6242 (  7460 PWs)   bands (ev):

   -39.9072 -39.6061 -39.5980 -39.5962  -0.2132   3.1230   3.8655   3.9581
     8.5159   8.5277   9.3030  10.4390

          k = 0.4162-0.6242-0.6242 (  7464 PWs)   bands (ev):

   -39.8990 -39.6051 -39.6051 -39.5975   0.0931   3.2560   3.2560   3.9322
     8.3428   8.7448   8.7448   9.6722

          k =-0.6242-0.6242-0.6242 (  7568 PWs)   bands (ev):

   -39.8914 -39.6048 -39.6048 -39.6048   0.3847   3.3748   3.3748   3.3748
     8.2403   8.2403   8.2403   9.3504

     the Fermi energy is     7.5820 ev

!    total energy              =     -65.61620610 Ry
     estimated scf accuracy    <          7.9E-11 Ry
     smearing contrib. (-TS)   =      -0.00082178 Ry
     internal energy E=F+TS    =     -65.61538432 Ry

     The total energy is F=E-TS. E is the sum of the following terms:
     one-electron contribution =     -24.61854485 Ry
     hartree contribution      =      12.27095293 Ry
     xc contribution           =     -17.19408708 Ry
     ewald contribution        =     -36.07370532 Ry

     convergence has been achieved in  10 iterations

     Forces acting on atoms (cartesian axes, Ry/au):

     atom    1 type  1   force =     0.00000000    0.00000000    0.00000000
     atom    2 type  2   force =    -0.00071534   -0.00071534    0.00071534
     atom    3 type  2   force =    -0.00071534    0.00071534   -0.00071534
     atom    4 type  2   force =     0.00071534    0.00071534    0.00071534
     atom    5 type  2   force =     0.00071534   -0.00071534   -0.00071534
     The non-local contrib.  to forces
     atom    1 type  1   force =     0.00000000    0.00000000    0.00000000
     atom    2 type  2   force =    -0.01200165   -0.01200165    0.01200165
     atom    3 type  2   force =    -0.01200165    0.01200165   -0.01200165
     atom    4 type  2   force =     0.01200165    0.01200165    0.01200165
     atom    5 type  2   force =     0.01200165   -0.01200165   -0.01200165
     The ionic contribution  to forces
     atom    1 type  1   force =    -0.00000000   -0.00000000   -0.00000000
     atom    2 type  2   force =     0.15759841    0.15759841   -0.15759841
     atom    3 type  2   force =     0.15759841   -0.15759841    0.15759841
     atom    4 type  2   force =    -0.15759841   -0.15759841   -0.15759841
     atom    5 type  2   force =    -0.15759841    0.15759841    0.15759841
     The local contribution  to forces
     atom    1 type  1   force =    -0.00000000   -0.00000000   -0.00000000
     atom    2 type  2   force =    -0.14631627   -0.14631627    0.14631627
     atom    3 type  2   force =    -0.14631627    0.14631627   -0.14631627
     atom    4 type  2   force =     0.14631627    0.14631627    0.14631627
     atom    5 type  2   force =     0.14631627   -0.14631627   -0.14631627
     The core correction contribution to forces
     atom    1 type  1   force =     0.00000000    0.00000000    0.00000000
     atom    2 type  2   force =     0.00000000    0.00000000    0.00000000
     atom    3 type  2   force =     0.00000000    0.00000000    0.00000000
     atom    4 type  2   force =     0.00000000    0.00000000    0.00000000
     atom    5 type  2   force =     0.00000000    0.00000000    0.00000000
     The Hubbard contrib.    to forces
     atom    1 type  1   force =     0.00000000    0.00000000    0.00000000
     atom    2 type  2   force =     0.00000000    0.00000000    0.00000000
     atom    3 type  2   force =     0.00000000    0.00000000    0.00000000
     atom    4 type  2   force =     0.00000000    0.00000000    0.00000000
     atom    5 type  2   force =     0.00000000    0.00000000    0.00000000
     The SCF correction term to forces
     atom    1 type  1   force =     0.00000000    0.00000000   -0.00000000
     atom    2 type  2   force =     0.00000417    0.00000417   -0.00000417
     atom    3 type  2   force =     0.00000417   -0.00000417    0.00000417
     atom    4 type  2   force =    -0.00000417   -0.00000417   -0.00000417
     atom    5 type  2   force =    -0.00000417    0.00000417    0.00000417

     Total force =     0.002478     Total SCF correction =     0.000014


     Computing stress (Cartesian axis) and pressure

          total   stress  (Ry/bohr**3)                   (kbar)     P=      501.92
   0.00341197   0.00000000   0.00000000          501.92        0.00        0.00
   0.00000000   0.00341197   0.00000000            0.00      501.92        0.00
   0.00000000   0.00000000   0.00341197            0.00        0.00      501.92

     Energy error            =      2.4E-03 Ry
     Gradient error          =      7.2E-04 Ry/Bohr
     Cell gradient error     =      1.9E+00 kbar

     number of scf cycles    =   6
     number of bfgs steps    =   5

     enthalpy           old  =     -64.5365656392 Ry
     enthalpy           new  =     -64.5389687132 Ry

     CASE: enthalpy          _new < enthalpy          _old

     new trust radius        =       0.0018772187 bohr
ibrav =      1
 celldm(1) =      6.82030324
Input lattice vectors:
     0.80124551     0.00000000     0.00000000
     0.00000000     0.80124551     0.00000000
     0.00000000     0.00000000     0.80124551
New lattice vectors in INITIAL alat:
     0.80124551     0.00000000     0.00000000
     0.00000000     0.80124551     0.00000000
     0.00000000     0.00000000     0.80124551
New lattice vectors in NEW alat (for information only):
     1.00000000     0.00000000     0.00000000
     0.00000000     1.00000000     0.00000000
     0.00000000     0.00000000     1.00000000
Discrepancy in bohr =     0.000000    0.000000    0.000000
     new conv_thr            =            1.0E-10 Ry

[...]
     0.00000000     0.80124551     0.00000000
     0.00000000     0.00000000     0.80124551
New lattice vectors in INITIAL alat:
     0.80124551     0.00000000     0.00000000
     0.00000000     0.80124551     0.00000000
     0.00000000     0.00000000     0.80124551
New lattice vectors in NEW alat (for information only):
     1.00000000     0.00000000     0.00000000
     0.00000000     1.00000000     0.00000000
     0.00000000     0.00000000     1.00000000
Discrepancy in bohr =     0.000000    0.000000    0.000000

     bfgs converged in   7 scf cycles and   6 bfgs steps
     (criteria: energy <  1.0E-04 Ry, force <  1.0E-03 Ry/Bohr, cell <  1.0E+00 kbar)

     End of BFGS Geometry Optimization

     Final enthalpy           =     -64.5389755449 Ry

     File ./output/SiLi.bfgs deleted, as requested
Begin final coordinates
     new unit-cell volume =    317.25688 a.u.^3 (    47.01262 Ang^3 )
     density =      1.97267 g/cm^3

CELL_PARAMETERS (alat=  8.51212661)
   0.801245512   0.000000000   0.000000000
   0.000000000   0.801245512   0.000000000
   0.000000000   0.000000000   0.801245512

ATOMIC_POSITIONS (crystal)
Si            0.5000000000        0.5000000000        0.5000000000
Li            0.1954373739        0.1954373739        0.8045626261
Li            0.1954373739        0.8045626261        0.1954373739
Li            0.8045626261        0.8045626261        0.8045626261
Li            0.8045626261        0.1954373739        0.1954373739
End final coordinates



     Writing config-only to output data dir ./output/SiLi.save/

     Final scf calculation at the relaxed structure.
     The G-vectors are recalculated for the final unit cell
     Results may differ from those at the preceding step.

     Parallelization info
     --------------------
     sticks:   dense  smooth     PW     G-vecs:    dense   smooth      PW
     Min         149     149     43                 3854     3854     617
     Max         151     151     44                 3857     3857     620
     Sum        1201    1201    349                30839    30839    4945

     Using Slab Decomposition



     bravais-lattice index     =            1
     lattice parameter (alat)  =       8.5121  a.u.
     unit-cell volume          =     317.2569 (a.u.)^3
     number of atoms/cell      =            5
     number of atomic types    =            2
     number of electrons       =        16.00
     number of Kohn-Sham states=           12
     kinetic-energy cutoff     =      80.0000  Ry
     charge density cutoff     =     320.0000  Ry
     scf convergence threshold =      1.0E-10
     mixing beta               =       0.7000
     number of iterations used =            8  plain     mixing
     press convergence thresh. =      1.0E+00
     Exchange-correlation= PBE
                           (   1   4   3   4   0   0   0)

     celldm(1)=   8.512127  celldm(2)=   0.000000  celldm(3)=   0.000000
     celldm(4)=   0.000000  celldm(5)=   0.000000  celldm(6)=   0.000000

     crystal axes: (cart. coord. in units of alat)
               a(1) = (   0.801246   0.000000   0.000000 )  
               a(2) = (   0.000000   0.801246   0.000000 )  
               a(3) = (   0.000000   0.000000   0.801246 )  

     reciprocal axes: (cart. coord. in units 2 pi/alat)
               b(1) = (  1.248057  0.000000  0.000000 )  
               b(2) = (  0.000000  1.248057  0.000000 )  
               b(3) = (  0.000000  0.000000  1.248057 )  


     PseudoPot. # 1 for Si read from file:
     ../pseudo/Si_ONCV_PBE_sr.upf
     MD5 check sum: e543d271109d17c80368dfa7c482276d
     Pseudo is Norm-conserving + core correction, Zval =  4.0
     Generated using ONCVPSP code by D. R. Hamann
     Using radial grid of 1510 points,  6 beta functions with: 
                l(1) =   0
                l(2) =   0
                l(3) =   1
                l(4) =   1
                l(5) =   2
                l(6) =   2

     PseudoPot. # 2 for Li read from file:
     ../pseudo/Li_ONCV_PBE_sr.upf
     MD5 check sum: 50ff420e78310ffa21704f3361e624a4
     Pseudo is Norm-conserving, Zval =  3.0
     Generated using ONCVPSP code by D. R. Hamann
     Using radial grid of 1944 points,  4 beta functions with: 
                l(1) =   0
                l(2) =   0
                l(3) =   1
                l(4) =   1

     atomic species   valence    mass     pseudopotential
        Si             4.00    28.08550     Si( 1.00)
        Li             3.00     6.94100     Li( 1.00)

     24 Sym. Ops. (no inversion) found



   Cartesian axes

     site n.     atom                  positions (alat units)
         1           Si  tau(   1) = (   0.4006228   0.4006228   0.4006228  )
         2           Li  tau(   2) = (   0.1565933   0.1565933   0.6446522  )
         3           Li  tau(   3) = (   0.1565933   0.6446522   0.1565933  )
         4           Li  tau(   4) = (   0.6446522   0.6446522   0.6446522  )
         5           Li  tau(   5) = (   0.6446522   0.1565933   0.1565933  )

     number of k points=    20  Marzari-Vanderbilt smearing, width (Ry)=  0.0200
                       cart. coord. in units 2pi/alat
        k(    1) = (   0.0000000   0.0000000   0.0000000), wk =   0.0092593
        k(    2) = (   0.0000000   0.0000000   0.2080095), wk =   0.0555556
        k(    3) = (   0.0000000   0.0000000   0.4160190), wk =   0.0555556
        k(    4) = (   0.0000000   0.0000000  -0.6240285), wk =   0.0277778
        k(    5) = (   0.0000000   0.2080095   0.2080095), wk =   0.1111111
        k(    6) = (   0.0000000   0.2080095   0.4160190), wk =   0.2222222
        k(    7) = (   0.0000000   0.2080095  -0.6240285), wk =   0.1111111
        k(    8) = (   0.0000000   0.4160190   0.4160190), wk =   0.1111111
        k(    9) = (   0.0000000   0.4160190  -0.6240285), wk =   0.1111111
        k(   10) = (   0.0000000  -0.6240285  -0.6240285), wk =   0.0277778
        k(   11) = (   0.2080095   0.2080095   0.2080095), wk =   0.0740741
        k(   12) = (   0.2080095   0.2080095   0.4160190), wk =   0.2222222
        k(   13) = (   0.2080095   0.2080095  -0.6240285), wk =   0.1111111
        k(   14) = (   0.2080095   0.4160190   0.4160190), wk =   0.2222222
        k(   15) = (   0.2080095   0.4160190  -0.6240285), wk =   0.2222222
        k(   16) = (   0.2080095  -0.6240285  -0.6240285), wk =   0.0555556
        k(   17) = (   0.4160190   0.4160190   0.4160190), wk =   0.0740741
        k(   18) = (   0.4160190   0.4160190  -0.6240285), wk =   0.1111111
        k(   19) = (   0.4160190  -0.6240285  -0.6240285), wk =   0.0555556
        k(   20) = (  -0.6240285  -0.6240285  -0.6240285), wk =   0.0092593

     Dense  grid:    30839 G-vectors     FFT dimensions: (  40,  40,  40)

     Estimated max dynamical RAM per process >      16.47 MB

     Estimated total dynamical RAM >     131.73 MB

     Initial potential from superposition of free atoms

     starting charge      15.9811, renormalised to      16.0000
     Starting wfcs are   12 randomized atomic wfcs

     total cpu time spent up to now is       44.2 secs

     Self-consistent Calculation

     iteration #  1     ecut=    80.00 Ry     beta= 0.70
     Davidson diagonalization with overlap
     c_bands:  1 eigenvalues not converged
     c_bands:  1 eigenvalues not converged
     c_bands:  1 eigenvalues not converged
     c_bands:  1 eigenvalues not converged
     c_bands:  1 eigenvalues not converged
     ethr =  1.00E-06,  avg # of iterations = 14.9

     total cpu time spent up to now is       44.8 secs

     total energy              =     -65.61210089 Ry
     estimated scf accuracy    <       0.02631308 Ry

     iteration #  2     ecut=    80.00 Ry     beta= 0.70
     Davidson diagonalization with overlap
     ethr =  1.64E-04,  avg # of iterations =  2.0

     total cpu time spent up to now is       45.0 secs

     total energy              =     -65.61413039 Ry
     estimated scf accuracy    <       0.01490691 Ry

     iteration #  3     ecut=    80.00 Ry     beta= 0.70
     Davidson diagonalization with overlap
     ethr =  9.32E-05,  avg # of iterations =  2.0

     total cpu time spent up to now is       45.2 secs

     total energy              =     -65.61712503 Ry
     estimated scf accuracy    <       0.00093902 Ry

     iteration #  4     ecut=    80.00 Ry     beta= 0.70
     Davidson diagonalization with overlap
     ethr =  5.87E-06,  avg # of iterations =  1.2

     total cpu time spent up to now is       45.4 secs

     total energy              =     -65.61724069 Ry
     estimated scf accuracy    <       0.00000795 Ry

     iteration #  5     ecut=    80.00 Ry     beta= 0.70
     Davidson diagonalization with overlap
     ethr =  4.97E-08,  avg # of iterations =  3.4

     total cpu time spent up to now is       45.6 secs

     total energy              =     -65.61724514 Ry
     estimated scf accuracy    <       0.00000211 Ry

     iteration #  6     ecut=    80.00 Ry     beta= 0.70
     Davidson diagonalization with overlap
     ethr =  1.32E-08,  avg # of iterations =  1.9

     total cpu time spent up to now is       45.8 secs

     total energy              =     -65.61724549 Ry
     estimated scf accuracy    <          3.1E-09 Ry

     iteration #  7     ecut=    80.00 Ry     beta= 0.70
     Davidson diagonalization with overlap
     ethr =  1.96E-11,  avg # of iterations =  4.1

     total cpu time spent up to now is       46.0 secs

     total energy              =     -65.61724550 Ry
     estimated scf accuracy    <          6.9E-10 Ry

     iteration #  8     ecut=    80.00 Ry     beta= 0.70
     Davidson diagonalization with overlap
     ethr =  4.33E-12,  avg # of iterations =  1.9

     total cpu time spent up to now is       46.2 secs

     total energy              =     -65.61724550 Ry
     estimated scf accuracy    <          1.0E-10 Ry

     iteration #  9     ecut=    80.00 Ry     beta= 0.70
     Davidson diagonalization with overlap
     ethr =  6.56E-13,  avg # of iterations =  1.0

     total cpu time spent up to now is       46.3 secs

     End of self-consistent calculation

          k = 0.0000 0.0000 0.0000 (  3887 PWs)   bands (ev):

   -40.0120 -39.5805 -39.5805 -39.5805  -2.2630   6.7235   7.1529   7.1529
     7.6480   7.6480   7.6480  14.5010

          k = 0.0000 0.0000 0.2080 (  3831 PWs)   bands (ev):

   -40.0017 -39.5906 -39.5802 -39.5802  -2.1071   4.9651   6.9520   7.4690
     7.6363   7.6363   9.6813  13.9370

          k = 0.0000 0.0000 0.4160 (  3824 PWs)   bands (ev):

   -39.9793 -39.6127 -39.5798 -39.5798  -1.7270   3.2145   7.4100   7.6068
     7.6068   8.4159   9.7325  12.2129

          k = 0.0000 0.0000-0.6240 (  3868 PWs)   bands (ev):

   -39.9670 -39.6248 -39.5795 -39.5795  -1.4804   2.5068   7.5891   7.5891
     7.8832   9.0295   9.8619  10.1401

          k = 0.0000 0.2080 0.2080 (  3838 PWs)   bands (ev):

   -39.9918 -39.5909 -39.5891 -39.5804  -1.9473   4.9522   5.2444   7.1993
     7.6255   9.1828  10.4864  13.0671

          k = 0.0000 0.2080 0.4160 (  3834 PWs)   bands (ev):

   -39.9703 -39.6112 -39.5885 -39.5808  -1.5551   3.3151   5.4436   6.9389
     8.1355   9.4167  10.7716  12.0047

          k = 0.0000 0.2080-0.6240 (  3824 PWs)   bands (ev):

   -39.9585 -39.6227 -39.5878 -39.5811  -1.2976   2.5970   5.6977   6.6523
     8.8002   9.5514   9.8239  11.8508

          k = 0.0000 0.4160 0.4160 (  3826 PWs)   bands (ev):

   -39.9509 -39.6087 -39.6064 -39.5832  -1.1244   3.4593   3.7284   6.1236
     8.8269   9.6828  11.2446  11.6239

          k = 0.0000 0.4160-0.6240 (  3818 PWs)   bands (ev):

   -39.9404 -39.6179 -39.6054 -39.5847  -0.8312   2.8154   3.7805   5.7244
     9.4664   9.9377  10.1923  12.2467

          k = 0.0000-0.6240-0.6240 (  3836 PWs)   bands (ev):

   -39.9305 -39.6151 -39.6151 -39.5870  -0.5022   2.9563   2.9563   5.3231
     9.3807  10.8544  10.8544  11.5525

          k = 0.2080 0.2080 0.2080 (  3845 PWs)   bands (ev):

   -39.9822 -39.5914 -39.5889 -39.5889  -1.7848   5.0968   5.0968   5.3742
     8.4274  10.3151  10.3151  12.9556

          k = 0.2080 0.2080 0.4160 (  3835 PWs)   bands (ev):

   -39.9617 -39.6100 -39.5899 -39.5884  -1.3834   3.4121   5.3817   5.4390
     8.3982   9.7174  10.8285  12.6254

          k = 0.2080 0.2080-0.6240 (  3810 PWs)   bands (ev):

   -39.9505 -39.6210 -39.5896 -39.5881  -1.1174   2.6871   5.4282   5.6509
     8.2980   9.3241  10.8794  12.7079

          k = 0.2080 0.4160 0.4160 (  3840 PWs)   bands (ev):

   -39.9432 -39.6084 -39.6061 -39.5905  -0.9525   3.5647   3.7601   5.2691
     8.5295   9.5133  10.3126  12.5223

          k = 0.2080 0.4160-0.6240 (  3834 PWs)   bands (ev):

   -39.9332 -39.6171 -39.6057 -39.5915  -0.6581   2.9053   3.8258   5.1406
     8.7163   9.1400  10.3690  11.8636

          k = 0.2080-0.6240-0.6240 (  3844 PWs)   bands (ev):

   -39.9239 -39.6148 -39.6148 -39.5933  -0.3348   3.0462   3.0462   4.8964
     8.8213   9.9625   9.9625  10.4709

          k = 0.4160 0.4160 0.4160 (  3830 PWs)   bands (ev):

   -39.9268 -39.6086 -39.6056 -39.6056  -0.5187   3.8084   3.8084   3.8345
     8.6379   9.0330   9.0330  11.2706

          k = 0.4160 0.4160-0.6240 (  3834 PWs)   bands (ev):

   -39.9179 -39.6153 -39.6072 -39.6053  -0.2190   3.1178   3.8604   3.9536
     8.5018   8.5147   9.2891  10.4237

          k = 0.4160-0.6240-0.6240 (  3808 PWs)   bands (ev):

   -39.9097 -39.6142 -39.6142 -39.6067   0.0873   3.2512   3.2512   3.9280
     8.3285   8.7309   8.7309   9.6574

          k =-0.6240-0.6240-0.6240 (  3840 PWs)   bands (ev):

   -39.9021 -39.6139 -39.6139 -39.6139   0.3789   3.3706   3.3706   3.3706
     8.2258   8.2258   8.2258   9.3360

     the Fermi energy is     7.5731 ev

!    total energy              =     -65.61724550 Ry
     estimated scf accuracy    <          1.1E-11 Ry
     smearing contrib. (-TS)   =      -0.00082589 Ry
     internal energy E=F+TS    =     -65.61641961 Ry

     The total energy is F=E-TS. E is the sum of the following terms:
     one-electron contribution =     -24.64125219 Ry
     hartree contribution      =      12.27661025 Ry
     xc contribution           =     -17.19238489 Ry
     ewald contribution        =     -36.05939278 Ry

     convergence has been achieved in   9 iterations

     Forces acting on atoms (cartesian axes, Ry/au):

     atom    1 type  1   force =     0.00000000    0.00000000    0.00000000
     atom    2 type  2   force =     0.00000303    0.00000303   -0.00000303
     atom    3 type  2   force =     0.00000303   -0.00000303    0.00000303
     atom    4 type  2   force =    -0.00000303   -0.00000303   -0.00000303
     atom    5 type  2   force =    -0.00000303    0.00000303    0.00000303
     The non-local contrib.  to forces
     atom    1 type  1   force =     0.00000000    0.00000000    0.00000000
     atom    2 type  2   force =    -0.01227605   -0.01227605    0.01227605
     atom    3 type  2   force =    -0.01227605    0.01227605   -0.01227605
     atom    4 type  2   force =     0.01227605    0.01227605    0.01227605
     atom    5 type  2   force =     0.01227605   -0.01227605   -0.01227605
     The ionic contribution  to forces
     atom    1 type  1   force =     0.00000000    0.00000000    0.00000000
     atom    2 type  2   force =     0.16187332    0.16187332   -0.16187332
     atom    3 type  2   force =     0.16187332   -0.16187332    0.16187332
     atom    4 type  2   force =    -0.16187332   -0.16187332   -0.16187332
     atom    5 type  2   force =    -0.16187332    0.16187332    0.16187332
     The local contribution  to forces
     atom    1 type  1   force =    -0.00000000   -0.00000000   -0.00000000
     atom    2 type  2   force =    -0.14959267   -0.14959267    0.14959267
     atom    3 type  2   force =    -0.14959267    0.14959267   -0.14959267
     atom    4 type  2   force =     0.14959267    0.14959267    0.14959267
     atom    5 type  2   force =     0.14959267   -0.14959267   -0.14959267
     The core correction contribution to forces
     atom    1 type  1   force =    -0.00000000   -0.00000000   -0.00000000
     atom    2 type  2   force =     0.00000000    0.00000000    0.00000000
     atom    3 type  2   force =     0.00000000    0.00000000    0.00000000
     atom    4 type  2   force =     0.00000000    0.00000000    0.00000000
     atom    5 type  2   force =     0.00000000    0.00000000    0.00000000
     The Hubbard contrib.    to forces
     atom    1 type  1   force =     0.00000000    0.00000000    0.00000000
     atom    2 type  2   force =     0.00000000    0.00000000    0.00000000
     atom    3 type  2   force =     0.00000000    0.00000000    0.00000000
     atom    4 type  2   force =     0.00000000    0.00000000    0.00000000
     atom    5 type  2   force =     0.00000000    0.00000000    0.00000000
     The SCF correction term to forces
     atom    1 type  1   force =     0.00000000    0.00000000   -0.00000000
     atom    2 type  2   force =    -0.00000158   -0.00000158    0.00000158
     atom    3 type  2   force =    -0.00000158    0.00000158   -0.00000158
     atom    4 type  2   force =     0.00000158    0.00000158    0.00000158
     atom    5 type  2   force =     0.00000158   -0.00000158   -0.00000158

     Total force =     0.000010     Total SCF correction =     0.000005
     SCF correction compared to forces is large: reduce conv_thr to get better values


     Computing stress (Cartesian axis) and pressure

          total   stress  (Ry/bohr**3)                   (kbar)     P=      500.05
   0.00339927   0.00000000   0.00000000          500.05        0.00        0.00
   0.00000000   0.00339927   0.00000000            0.00      500.05        0.00
   0.00000000   0.00000000   0.00339927            0.00        0.00      500.05


     Writing all to output data dir ./output/SiLi.save/

     init_run     :      1.26s CPU      1.71s WALL (       2 calls)
     electrons    :     24.90s CPU     29.36s WALL (       8 calls)
     update_pot   :      3.94s CPU      4.01s WALL (       6 calls)
     forces       :      2.67s CPU      2.76s WALL (       8 calls)
     stress       :      8.27s CPU      8.79s WALL (       8 calls)

     Called by init_run:
     wfcinit      :      0.18s CPU      0.19s WALL (       2 calls)
     potinit      :      0.44s CPU      0.79s WALL (       2 calls)
     hinit0       :      0.59s CPU      0.65s WALL (       2 calls)

     Called by electrons:
     c_bands      :     20.71s CPU     23.85s WALL (      70 calls)
     sum_band     :      3.12s CPU      3.33s WALL (      70 calls)
     v_of_rho     :      1.08s CPU      2.25s WALL (      77 calls)
     mix_rho      :      0.07s CPU      0.12s WALL (      70 calls)

     Called by c_bands:
     init_us_2    :      0.76s CPU      0.83s WALL (    3160 calls)
     init_us_2:cp :      0.75s CPU      0.82s WALL (    3160 calls)
     cegterg      :     19.04s CPU     19.66s WALL (    1400 calls)

     Called by *egterg:
     cdiaghg      :      0.85s CPU      0.90s WALL (    5248 calls)
     h_psi        :     16.19s CPU     16.69s WALL (    5428 calls)
     g_psi        :      0.09s CPU      0.10s WALL (    3988 calls)

     Called by h_psi:
     h_psi:calbec :      1.07s CPU      1.11s WALL (    5428 calls)
     vloc_psi     :     14.22s CPU     14.65s WALL (    5428 calls)
     add_vuspsi   :      0.82s CPU      0.86s WALL (    5428 calls)

     General routines
     calbec       :      1.32s CPU      1.36s WALL (    6228 calls)
     fft          :      1.26s CPU      2.65s WALL (     969 calls)
     ffts         :      0.04s CPU      0.07s WALL (      70 calls)
     fftw         :     14.61s CPU     15.02s WALL (  110806 calls)

     Parallel routines

     PWSCF        :     41.30s CPU     47.29s WALL


   This run was terminated on:  20:54:45  29Dec2024            

=------------------------------------------------------------------------------=
   JOB DONE.
=------------------------------------------------------------------------------=
