
     Program PWSCF v.7.2 starts on 29Dec2024 at 21:42:23 

     This program is part of the open-source Quantum ESPRESSO suite
     for quantum simulation of materials; please cite
         "P. Giannozzi et al., J. Phys.:Condens. Matter 21 395502 (2009);
         "P. Giannozzi et al., J. Phys.:Condens. Matter 29 465901 (2017);
         "P. Giannozzi et al., J. Chem. Phys. 152 154105 (2020);
          URL http://www.quantum-espresso.org", 
     in publications or presentations arising from this work. More details at
     http://www.quantum-espresso.org/quote

     Parallel version (MPI & OpenMP), running on       8 processor cores
     Number of MPI processes:                 8
     Threads/MPI process:                     1

     MPI processes distributed on     1 nodes
     482331 MiB available memory on the printing compute node when the environment starts

     Waiting for input...
     Reading input from standard input

     Current dimensions of program PWSCF are:
     Max number of different atomic species (ntypx) = 10
     Max number of k-points (npk) =  40000
     Max angular momentum in pseudopotentials (lmaxx) =  4

     R & G space division:  proc/nbgrp/npool/nimage =       8
     Subspace diagonalization in iterative solution of the eigenvalue problem:
     a serial algorithm will be used


     Parallelization info
     --------------------
     sticks:   dense  smooth     PW     G-vecs:    dense   smooth      PW
     Min          77      77     23                 9213     9213    1487
     Max          78      78     24                 9232     9232    1505
     Sum         621     621    185                73805    73805   11945

     Using Slab Decomposition



     bravais-lattice index     =            6
     lattice parameter (alat)  =       4.9600  a.u.
     unit-cell volume          =     765.3738 (a.u.)^3
     number of atoms/cell      =           10
     number of atomic types    =            2
     number of electrons       =        38.00
     number of Kohn-Sham states=           23
     kinetic-energy cutoff     =      80.0000  Ry
     charge density cutoff     =     320.0000  Ry
     scf convergence threshold =      1.0E-08
     mixing beta               =       0.7000
     number of iterations used =            8  plain     mixing
     energy convergence thresh.=      1.0E-04
     force convergence thresh. =      1.0E-03
     press convergence thresh. =      1.0E+00
     Exchange-correlation= PBE
                           (   1   4   3   4   0   0   0)
     nstep                     =           50


     celldm(1)=   4.960011  celldm(2)=   0.000000  celldm(3)=   6.272285
     celldm(4)=   0.000000  celldm(5)=   0.000000  celldm(6)=   0.000000

     crystal axes: (cart. coord. in units of alat)
               a(1) = (   1.000000   0.000000   0.000000 )  
               a(2) = (   0.000000   1.000000   0.000000 )  
               a(3) = (   0.000000   0.000000   6.272285 )  

     reciprocal axes: (cart. coord. in units 2 pi/alat)
               b(1) = (  1.000000  0.000000  0.000000 )  
               b(2) = (  0.000000  1.000000  0.000000 )  
               b(3) = (  0.000000  0.000000  0.159432 )  


     PseudoPot. # 1 for Si read from file:
     ../pseudo/Si_ONCV_PBE_sr.upf
     MD5 check sum: e543d271109d17c80368dfa7c482276d
     Pseudo is Norm-conserving + core correction, Zval =  4.0
     Generated using ONCVPSP code by D. R. Hamann
     Using radial grid of 1510 points,  6 beta functions with: 
                l(1) =   0
                l(2) =   0
                l(3) =   1
                l(4) =   1
                l(5) =   2
                l(6) =   2

     PseudoPot. # 2 for Li read from file:
     ../pseudo/Li_ONCV_PBE_sr.upf
     MD5 check sum: 50ff420e78310ffa21704f3361e624a4
     Pseudo is Norm-conserving, Zval =  3.0
     Generated using ONCVPSP code by D. R. Hamann
     Using radial grid of 1944 points,  4 beta functions with: 
                l(1) =   0
                l(2) =   0
                l(3) =   1
                l(4) =   1

     atomic species   valence    mass     pseudopotential
        Si             4.00    28.08550     Si( 1.00)
        Li             3.00     6.94100     Li( 1.00)

     16 Sym. Ops., with inversion, found ( 8 have fractional translation)



   Cartesian axes

     site n.     atom                  positions (alat units)
         1           Si  tau(   1) = (   0.0000000   0.5000000   0.9435868  )
         2           Si  tau(   2) = (   0.5000000   0.0000000   5.3286977  )
         3           Si  tau(   3) = (   0.0000000   0.5000000   2.1936970  )
         4           Si  tau(   4) = (   0.5000000   0.0000000   4.0785875  )
         5           Si  tau(   5) = (   0.0000000   0.5000000   4.7072398  )
         6           Si  tau(   6) = (   0.5000000   0.0000000   1.5650448  )
         7           Si  tau(   7) = (   0.0000000   0.5000000   5.9643624  )
         8           Si  tau(   8) = (   0.5000000   0.0000000   0.3079221  )
         9           Li  tau(   9) = (   0.0000000   0.5000000   3.5252466  )
        10           Li  tau(  10) = (   0.5000000   0.0000000   2.7470380  )

     number of k points=    15  Marzari-Vanderbilt smearing, width (Ry)=  0.0200
                       cart. coord. in units 2pi/alat
        k(    1) = (   0.0000000   0.0000000   0.0000000), wk =   0.0246914
        k(    2) = (   0.0000000   0.1111111   0.0000000), wk =   0.0987654
        k(    3) = (   0.0000000   0.2222222   0.0000000), wk =   0.0987654
        k(    4) = (   0.0000000   0.3333333   0.0000000), wk =   0.0987654
        k(    5) = (   0.0000000   0.4444444   0.0000000), wk =   0.0987654
        k(    6) = (   0.1111111   0.1111111   0.0000000), wk =   0.0987654
        k(    7) = (   0.1111111   0.2222222   0.0000000), wk =   0.1975309
        k(    8) = (   0.1111111   0.3333333   0.0000000), wk =   0.1975309
        k(    9) = (   0.1111111   0.4444444   0.0000000), wk =   0.1975309
        k(   10) = (   0.2222222   0.2222222   0.0000000), wk =   0.0987654
        k(   11) = (   0.2222222   0.3333333   0.0000000), wk =   0.1975309
        k(   12) = (   0.2222222   0.4444444   0.0000000), wk =   0.1975309
        k(   13) = (   0.3333333   0.3333333   0.0000000), wk =   0.0987654
        k(   14) = (   0.3333333   0.4444444   0.0000000), wk =   0.1975309
        k(   15) = (   0.4444444   0.4444444   0.0000000), wk =   0.0987654

     Dense  grid:    73805 G-vectors     FFT dimensions: (  30,  30, 180)

     Estimated max dynamical RAM per process >      28.12 MB

     Estimated total dynamical RAM >     224.96 MB

     Initial potential from superposition of free atoms

     starting charge      37.9860, renormalised to      38.0000
     Starting wfcs are   36 randomized atomic wfcs

     total cpu time spent up to now is        2.2 secs

     Self-consistent Calculation

     iteration #  1     ecut=    80.00 Ry     beta= 0.70
     Davidson diagonalization with overlap
     ethr =  1.00E-02,  avg # of iterations =  4.0

     total cpu time spent up to now is        3.5 secs

     total energy              =     -94.15690087 Ry
     estimated scf accuracy    <       2.17534840 Ry

     iteration #  2     ecut=    80.00 Ry     beta= 0.70
     Davidson diagonalization with overlap
     ethr =  5.72E-03,  avg # of iterations = 11.1

     total cpu time spent up to now is        5.5 secs

     total energy              =     -85.09467747 Ry
     estimated scf accuracy    <     366.51696731 Ry

     iteration #  3     ecut=    80.00 Ry     beta= 0.70
     Davidson diagonalization with overlap
     ethr =  5.72E-03,  avg # of iterations =  8.0

     total cpu time spent up to now is        7.4 secs

     total energy              =     -95.13911293 Ry
     estimated scf accuracy    <      14.32928975 Ry

     iteration #  4     ecut=    80.00 Ry     beta= 0.70
     Davidson diagonalization with overlap
     ethr =  5.72E-03,  avg # of iterations =  3.5

     total cpu time spent up to now is        8.4 secs

     total energy              =     -95.98626301 Ry
     estimated scf accuracy    <       0.79812540 Ry

     iteration #  5     ecut=    80.00 Ry     beta= 0.70
     Davidson diagonalization with overlap
     ethr =  2.10E-03,  avg # of iterations =  2.4

     total cpu time spent up to now is        9.3 secs

     total energy              =     -96.01210415 Ry
     estimated scf accuracy    <       0.13031534 Ry

     iteration #  6     ecut=    80.00 Ry     beta= 0.70
     Davidson diagonalization with overlap
     ethr =  3.43E-04,  avg # of iterations =  5.5

     total cpu time spent up to now is       10.4 secs

     total energy              =     -96.04374149 Ry
     estimated scf accuracy    <       0.41708812 Ry

     iteration #  7     ecut=    80.00 Ry     beta= 0.70
     Davidson diagonalization with overlap
     ethr =  3.43E-04,  avg # of iterations =  1.3

     total cpu time spent up to now is       11.1 secs

     total energy              =     -96.03242472 Ry
     estimated scf accuracy    <       0.18379577 Ry

     iteration #  8     ecut=    80.00 Ry     beta= 0.70
     Davidson diagonalization with overlap
     ethr =  3.43E-04,  avg # of iterations =  1.8

     total cpu time spent up to now is       11.9 secs

     total energy              =     -96.03983258 Ry
     estimated scf accuracy    <       0.00272588 Ry

     iteration #  9     ecut=    80.00 Ry     beta= 0.70
     Davidson diagonalization with overlap
     ethr =  7.17E-06,  avg # of iterations =  9.5

     total cpu time spent up to now is       13.2 secs

     total energy              =     -96.04055207 Ry
     estimated scf accuracy    <       0.00078606 Ry

     iteration # 10     ecut=    80.00 Ry     beta= 0.70
     Davidson diagonalization with overlap
     ethr =  2.07E-06,  avg # of iterations =  2.2

     total cpu time spent up to now is       14.0 secs

     total energy              =     -96.04058247 Ry
     estimated scf accuracy    <       0.00004975 Ry

     iteration # 11     ecut=    80.00 Ry     beta= 0.70
     Davidson diagonalization with overlap
     c_bands:  1 eigenvalues not converged
     ethr =  1.31E-07,  avg # of iterations =  5.6

     total cpu time spent up to now is       15.1 secs

     total energy              =     -96.04075025 Ry
     estimated scf accuracy    <       0.00062150 Ry

     iteration # 12     ecut=    80.00 Ry     beta= 0.70
     Davidson diagonalization with overlap
     ethr =  1.31E-07,  avg # of iterations =  1.1

     total cpu time spent up to now is       15.8 secs

     total energy              =     -96.04074148 Ry
     estimated scf accuracy    <       0.00076016 Ry

     iteration # 13     ecut=    80.00 Ry     beta= 0.70
     Davidson diagonalization with overlap
     ethr =  1.31E-07,  avg # of iterations =  1.1

     total cpu time spent up to now is       16.6 secs

     total energy              =     -96.04070910 Ry
     estimated scf accuracy    <       0.00063434 Ry

     iteration # 14     ecut=    80.00 Ry     beta= 0.70
     Davidson diagonalization with overlap
     ethr =  1.31E-07,  avg # of iterations =  3.1

     total cpu time spent up to now is       17.4 secs

     total energy              =     -96.04070814 Ry
     estimated scf accuracy    <       0.00018869 Ry

     iteration # 15     ecut=    80.00 Ry     beta= 0.70
     Davidson diagonalization with overlap
     ethr =  1.31E-07,  avg # of iterations =  1.0

     total cpu time spent up to now is       18.2 secs

     total energy              =     -96.04070153 Ry
     estimated scf accuracy    <       0.00012917 Ry

     iteration # 16     ecut=    80.00 Ry     beta= 0.70
     Davidson diagonalization with overlap
     ethr =  1.31E-07,  avg # of iterations =  1.1

     total cpu time spent up to now is       18.9 secs

     total energy              =     -96.04069356 Ry
     estimated scf accuracy    <       0.00008808 Ry

     iteration # 17     ecut=    80.00 Ry     beta= 0.70
     Davidson diagonalization with overlap
     ethr =  1.31E-07,  avg # of iterations =  1.7

     total cpu time spent up to now is       19.7 secs

     total energy              =     -96.04069652 Ry
     estimated scf accuracy    <       0.00000616 Ry

     iteration # 18     ecut=    80.00 Ry     beta= 0.70
     Davidson diagonalization with overlap
     ethr =  1.62E-08,  avg # of iterations =  4.8

     total cpu time spent up to now is       20.7 secs

     total energy              =     -96.04069783 Ry
     estimated scf accuracy    <       0.00000533 Ry

     iteration # 19     ecut=    80.00 Ry     beta= 0.70
     Davidson diagonalization with overlap
     ethr =  1.40E-08,  avg # of iterations =  1.1

     total cpu time spent up to now is       21.4 secs

     total energy              =     -96.04069794 Ry
     estimated scf accuracy    <       0.00000133 Ry

     iteration # 20     ecut=    80.00 Ry     beta= 0.70
     Davidson diagonalization with overlap
     ethr =  3.50E-09,  avg # of iterations =  1.7

     total cpu time spent up to now is       22.1 secs

     total energy              =     -96.04069786 Ry
     estimated scf accuracy    <       0.00000161 Ry

     iteration # 21     ecut=    80.00 Ry     beta= 0.70
     Davidson diagonalization with overlap
     ethr =  3.50E-09,  avg # of iterations =  1.7

     total cpu time spent up to now is       22.8 secs

     total energy              =     -96.04069790 Ry
     estimated scf accuracy    <       0.00000008 Ry

     iteration # 22     ecut=    80.00 Ry     beta= 0.70
     Davidson diagonalization with overlap
     ethr =  2.02E-10,  avg # of iterations =  4.5

     total cpu time spent up to now is       23.7 secs

     total energy              =     -96.04069793 Ry
     estimated scf accuracy    <       0.00000015 Ry

     iteration # 23     ecut=    80.00 Ry     beta= 0.70
     Davidson diagonalization with overlap
     ethr =  2.02E-10,  avg # of iterations =  2.1

     total cpu time spent up to now is       24.5 secs

     total energy              =     -96.04069792 Ry
     estimated scf accuracy    <       0.00000051 Ry

     iteration # 24     ecut=    80.00 Ry     beta= 0.70
     Davidson diagonalization with overlap
     ethr =  2.02E-10,  avg # of iterations =  1.1

     total cpu time spent up to now is       25.2 secs

     total energy              =     -96.04069791 Ry
     estimated scf accuracy    <       0.00000022 Ry

     iteration # 25     ecut=    80.00 Ry     beta= 0.70
     Davidson diagonalization with overlap
     ethr =  2.02E-10,  avg # of iterations =  2.1

     total cpu time spent up to now is       26.0 secs

     total energy              =     -96.04069791 Ry
     estimated scf accuracy    <       0.00000009 Ry

     iteration # 26     ecut=    80.00 Ry     beta= 0.70
     Davidson diagonalization with overlap
     ethr =  2.02E-10,  avg # of iterations =  1.3

     total cpu time spent up to now is       26.7 secs

     total energy              =     -96.04069791 Ry
     estimated scf accuracy    <       0.00000002 Ry

     iteration # 27     ecut=    80.00 Ry     beta= 0.70
     Davidson diagonalization with overlap
     ethr =  5.91E-11,  avg # of iterations =  3.1

     total cpu time spent up to now is       27.5 secs

     End of self-consistent calculation

          k = 0.0000 0.0000 0.0000 (  9117 PWs)   bands (ev):

   -33.7872 -33.7474  -4.5211  -3.9691  -3.0885  -1.7539  -0.2516   1.6602
     3.7210   6.1168   7.1160  10.4239  11.5276  14.5789  14.5789  15.0465
    15.0465  15.2616  15.5558  15.7758  15.7758  15.7962  16.6356

          k = 0.0000 0.1111 0.0000 (  9164 PWs)   bands (ev):

   -33.7815 -33.7442  -4.2612  -3.7102  -2.8314  -1.4995  -0.0013   1.9055
     3.9533   6.3313   7.3071  10.6302  11.2176  11.8337  11.8466  12.6328
    13.8677  14.8029  15.1347  15.2708  15.7962  16.0008  16.9331

          k = 0.0000 0.2222 0.0000 (  9212 PWs)   bands (ev):

   -33.7668 -33.7364  -3.4834  -2.9356  -2.0623  -0.7384   0.7469   2.6375
     4.6419   6.9414   7.7896   7.8040   8.3555   9.1195  10.3817  11.3743
    11.6018  12.5338  13.6326  15.2765  15.4749  15.9439  16.4888

          k = 0.0000 0.3333 0.0000 (  9282 PWs)   bands (ev):

   -33.7487 -33.7288  -2.1944  -1.6519  -0.7878   0.5220   1.9837   3.8374
     4.6163   5.1298   5.7261   5.9375   7.2155   7.8002   8.8334   8.8588
    10.6708  12.1541  12.5060  13.6865  15.0063  15.6231  16.5950

          k = 0.0000 0.4444 0.0000 (  9270 PWs)   bands (ev):

   -33.7338 -33.7269  -0.4049   0.1296   0.9790   1.8674   2.2626   2.3930
     3.2513   3.7035   4.4916   5.3671   6.0382   7.0436   8.0702   8.8711
    10.2586  10.4660  12.5992  12.8769  14.4409  15.5447  16.7306

          k = 0.1111 0.1111 0.0000 (  9190 PWs)   bands (ev):

   -33.7760 -33.7409  -4.0016  -3.4516  -2.5747  -1.2453   0.2487   2.1506
     4.1857   6.5474   7.5020  10.8517  11.0171  11.5169  11.7049  12.2988
    12.6513  12.9071  13.5308  13.6801  14.8023  14.9260  16.1114

          k = 0.1111 0.2222 0.0000 (  9224 PWs)   bands (ev):

   -33.7616 -33.7330  -3.2249  -2.6781  -1.8066  -0.4851   0.9962   2.8823
     4.8745   7.1640   7.9951   8.0184   8.5518   9.3176  10.5770  11.5755
    11.7934  12.3313  12.9887  13.0949  13.7794  13.8760  15.1221

          k = 0.1111 0.3333 0.0000 (  9252 PWs)   bands (ev):

   -33.7439 -33.7253  -1.9378  -1.3963  -0.5338   0.7738   2.2316   4.0820
     4.8558   5.3685   5.9620   6.1753   7.4509   8.0380   9.0550   9.0733
    10.8756  12.3663  12.7302  13.5362  14.0855  14.2223  14.9988

          k = 0.1111 0.4444 0.0000 (  9254 PWs)   bands (ev):

   -33.7295 -33.7231  -0.1512   0.3825   1.2303   2.1166   2.5123   2.6414
     3.4979   3.9499   4.7367   5.6148   6.2753   7.2877   8.2982   9.1162
    10.4928  10.6720  12.7708  13.0729  14.6239  15.2403  15.8475

          k = 0.2222 0.2222 0.0000 (  9238 PWs)   bands (ev):

   -33.7481 -33.7248  -2.4516  -1.9078  -1.0416   0.2725   1.7411   3.6131
     5.5649   7.8115   8.1079   8.6086   8.6444   9.3921   9.6116  10.1760
    10.6269  10.9846  11.9023  12.0543  12.5817  13.0674  13.6970

          k = 0.2222 0.3333 0.0000 (  9261 PWs)   bands (ev):

   -33.7317 -33.7165  -1.1703  -0.6316   0.2257   1.5267   2.9723   4.8122
     5.5496   6.0590   6.6635   6.8617   8.1288   8.7343   9.6599   9.6743
    10.2265  10.7645  11.4317  11.5584  12.8131  12.9812  13.5203

          k = 0.2222 0.4444 0.0000 (  9281 PWs)   bands (ev):

   -33.7187 -33.7134   0.6071   1.1382   1.9810   2.8588   3.2577   3.3810
     4.2307   4.6840   5.4662   6.3545   6.9777   8.0150   8.9686   9.8453
    11.1712  11.2377  11.8749  12.3794  13.1693  13.2114  13.6337

          k = 0.3333 0.3333 0.0000 (  9242 PWs)   bands (ev):

   -33.7171 -33.7072   0.1005   0.6343   1.4827   2.7721   4.1953   6.0134
     6.1695   6.6697   7.4524   7.6635   7.7816   8.2086   8.6858   8.9875
     9.9592   9.9806  10.1576  11.0287  11.7566  11.9190  13.3653

          k = 0.3333 0.4444 0.0000 (  9275 PWs)   bands (ev):

   -33.7061 -33.7026   1.8592   2.3854   3.2192   4.0624   4.4863   4.5786
     5.4112   5.8866   6.6437   7.5696   8.0905   8.7698   9.1539   9.3299
     9.9967  10.0865  10.9065  11.0417  11.3205  11.4310  11.9510

          k = 0.4444 0.4444 0.0000 (  9300 PWs)   bands (ev):

   -33.6973 -33.6961   3.5685   4.0863   4.9034   5.2015   5.7013   6.1510
     6.4831   6.6649   7.1553   7.5522   7.7153   8.0474   8.2748   8.7955
     8.9866   9.2037   9.2550   9.6932  10.6889  10.7841  10.9282

     the Fermi energy is    12.4235 ev

!    total energy              =     -96.04069791 Ry
     estimated scf accuracy    <          9.2E-10 Ry
     smearing contrib. (-TS)   =      -0.00074920 Ry
     internal energy E=F+TS    =     -96.03994871 Ry

     The total energy is F=E-TS. E is the sum of the following terms:
     one-electron contribution =      21.47758704 Ry
     hartree contribution      =      10.08932716 Ry
     xc contribution           =     -33.26015130 Ry
     ewald contribution        =     -94.34671161 Ry

     convergence has been achieved in  27 iterations

     Forces acting on atoms (cartesian axes, Ry/au):

     atom    1 type  1   force =     0.00000000    0.00000000   -0.00961554
     atom    2 type  1   force =     0.00000000    0.00000000    0.00961554
     atom    3 type  1   force =     0.00000000    0.00000000    0.00379353
     atom    4 type  1   force =     0.00000000    0.00000000   -0.00379353
     atom    5 type  1   force =     0.00000000    0.00000000    0.00554573
     atom    6 type  1   force =     0.00000000    0.00000000   -0.00554573
     atom    7 type  1   force =     0.00000000    0.00000000   -0.01840810
     atom    8 type  1   force =     0.00000000    0.00000000    0.01840810
     atom    9 type  2   force =     0.00000000    0.00000000   -0.04500596
     atom   10 type  2   force =     0.00000000    0.00000000    0.04500596
     The non-local contrib.  to forces
     atom    1 type  1   force =     0.00000000    0.00000000   -0.01195983
     atom    2 type  1   force =     0.00000000    0.00000000    0.01195983
     atom    3 type  1   force =     0.00000000    0.00000000   -0.07760600
     atom    4 type  1   force =     0.00000000    0.00000000    0.07760600
     atom    5 type  1   force =     0.00000000    0.00000000   -0.01291510
     atom    6 type  1   force =     0.00000000    0.00000000    0.01291510
     atom    7 type  1   force =     0.00000000    0.00000000   -0.02914634
     atom    8 type  1   force =     0.00000000    0.00000000    0.02914634
     atom    9 type  2   force =     0.00000000    0.00000000   -0.03400291
     atom   10 type  2   force =     0.00000000    0.00000000    0.03400291
     The ionic contribution  to forces
     atom    1 type  1   force =     0.00000000   -0.00000000    1.19828774
     atom    2 type  1   force =     0.00000000   -0.00000000   -1.19828774
     atom    3 type  1   force =    -0.00000000   -0.00000000    2.97774060
     atom    4 type  1   force =     0.00000000    0.00000000   -2.97774060
     atom    5 type  1   force =     0.00000000    0.00000000   -2.09445204
     atom    6 type  1   force =    -0.00000000    0.00000000    2.09445204
     atom    7 type  1   force =    -0.00000000   -0.00000000   -0.49281183
     atom    8 type  1   force =    -0.00000000    0.00000000    0.49281183
     atom    9 type  2   force =    -0.00000000   -0.00000000   -2.18225978
     atom   10 type  2   force =    -0.00000000   -0.00000000    2.18225978
     The local contribution  to forces
     atom    1 type  1   force =    -0.00000000   -0.00000000   -1.19687386
     atom    2 type  1   force =    -0.00000000    0.00000000    1.19687386
     atom    3 type  1   force =     0.00000000    0.00000000   -2.89863171
     atom    4 type  1   force =     0.00000000    0.00000000    2.89863171
     atom    5 type  1   force =    -0.00000000   -0.00000000    2.11185782
     atom    6 type  1   force =     0.00000000   -0.00000000   -2.11185782
     atom    7 type  1   force =    -0.00000000   -0.00000000    0.50150742
     atom    8 type  1   force =    -0.00000000   -0.00000000   -0.50150742
     atom    9 type  2   force =     0.00000000    0.00000000    2.17125685
     atom   10 type  2   force =     0.00000000    0.00000000   -2.17125685
     The core correction contribution to forces
     atom    1 type  1   force =    -0.00000000    0.00000000    0.00093800
     atom    2 type  1   force =    -0.00000000   -0.00000000   -0.00093800
     atom    3 type  1   force =    -0.00000000    0.00000000    0.00229998
     atom    4 type  1   force =    -0.00000000   -0.00000000   -0.00229998
     atom    5 type  1   force =     0.00000000   -0.00000000    0.00102366
     atom    6 type  1   force =    -0.00000000   -0.00000000   -0.00102366
     atom    7 type  1   force =     0.00000000   -0.00000000    0.00202191
     atom    8 type  1   force =    -0.00000000   -0.00000000   -0.00202191
     atom    9 type  2   force =     0.00000000    0.00000000    0.00000000
     atom   10 type  2   force =     0.00000000    0.00000000    0.00000000
     The Hubbard contrib.    to forces
     atom    1 type  1   force =     0.00000000    0.00000000    0.00000000
     atom    2 type  1   force =     0.00000000    0.00000000    0.00000000
     atom    3 type  1   force =     0.00000000    0.00000000    0.00000000
     atom    4 type  1   force =     0.00000000    0.00000000    0.00000000
     atom    5 type  1   force =     0.00000000    0.00000000    0.00000000
     atom    6 type  1   force =     0.00000000    0.00000000    0.00000000
     atom    7 type  1   force =     0.00000000    0.00000000    0.00000000
     atom    8 type  1   force =     0.00000000    0.00000000    0.00000000
     atom    9 type  2   force =     0.00000000    0.00000000    0.00000000
     atom   10 type  2   force =     0.00000000    0.00000000    0.00000000
     The SCF correction term to forces
     atom    1 type  1   force =     0.00000000   -0.00000000   -0.00000758
     atom    2 type  1   force =     0.00000000   -0.00000000    0.00000758
     atom    3 type  1   force =     0.00000000    0.00000000   -0.00000934
     atom    4 type  1   force =     0.00000000    0.00000000    0.00000934
     atom    5 type  1   force =     0.00000000    0.00000000    0.00003139
     atom    6 type  1   force =     0.00000000    0.00000000   -0.00003139
     atom    7 type  1   force =    -0.00000000   -0.00000000    0.00002074
     atom    8 type  1   force =     0.00000000    0.00000000   -0.00002074
     atom    9 type  2   force =    -0.00000000    0.00000000   -0.00000012
     atom   10 type  2   force =    -0.00000000    0.00000000    0.00000012

     Total force =     0.070739     Total SCF correction =     0.000056


     Computing stress (Cartesian axis) and pressure

          total   stress  (Ry/bohr**3)                   (kbar)     P=      303.78
   0.00199671   0.00000000   0.00000000          293.73        0.00        0.00
   0.00000000   0.00199671   0.00000000            0.00      293.73        0.00
   0.00000000   0.00000000   0.00220170            0.00        0.00      323.88


     BFGS Geometry Optimization
     Energy error            =      0.0E+00 Ry
     Gradient error          =      4.5E-02 Ry/Bohr
     Cell gradient error     =      2.1E+02 kbar

     number of scf cycles    =   1
     number of bfgs steps    =   0

     enthalpy           new  =     -93.4392452805 Ry

     new trust radius        =       0.1939644370 bohr
ibrav =      6
 celldm(1) =      4.78613535
 celldm(3) =      6.30559533
Input lattice vectors:
     0.96494457     0.00000000     0.00000000
     0.00000000     0.96494457     0.00000000
     0.00000000     0.00000000     6.08454996
New lattice vectors in INITIAL alat:
     0.96494457     0.00000000     0.00000000
     0.00000000     0.96494457     0.00000000
     0.00000000     0.00000000     6.08454996
New lattice vectors in NEW alat (for information only):
     1.00000000     0.00000000     0.00000000
     0.00000000     1.00000000     0.00000000
     0.00000000     0.00000000     6.30559533
Discrepancy in bohr =     0.000000    0.000000    0.000000
     new conv_thr            =       0.0000000100 Ry

     new unit-cell volume =    691.32303 a.u.^3 (   102.44350 Ang^3 )
     density =      3.86699 g/cm^3

CELL_PARAMETERS (alat=  4.96001067)
   0.964944568   0.000000000   0.000000000
   0.000000000   0.964944568   0.000000000
   0.000000000   0.000000000   6.084549958

ATOMIC_POSITIONS (crystal)
Si            0.0000000000        0.5000000000        0.1501284239
Si            0.5000000000        0.0000000000        0.8498715761
Si            0.0000000000        0.5000000000        0.3498664370
Si            0.5000000000        0.0000000000        0.6501335630
Si            0.0000000000        0.5000000000        0.7506607587
Si            0.5000000000        0.0000000000        0.2493392413
Si            0.0000000000        0.5000000000        0.9503158013
Si            0.5000000000        0.0000000000        0.0496841987
Li            0.0000000000        0.5000000000        0.5605888559
Li            0.5000000000        0.0000000000        0.4394111441



     Writing config-only to output data dir ./output/SiLi.save/
     NEW-OLD atomic charge density approx. for the potential
     extrapolated charge   33.93115, renormalised to   38.00000

     total cpu time spent up to now is       32.0 secs

     Self-consistent Calculation

     iteration #  1     ecut=    80.00 Ry     beta= 0.70
     Davidson diagonalization with overlap
     c_bands:  1 eigenvalues not converged
     c_bands:  1 eigenvalues not converged
     c_bands:  1 eigenvalues not converged
     c_bands:  2 eigenvalues not converged
     c_bands:  2 eigenvalues not converged
     c_bands:  1 eigenvalues not converged
     c_bands:  2 eigenvalues not converged
     ethr =  1.00E-06,  avg # of iterations = 17.6

     total cpu time spent up to now is       35.4 secs

     total energy              =     -68.98844918 Ry
     estimated scf accuracy    <      28.86449643 Ry

     iteration #  2     ecut=    80.00 Ry     beta= 0.70
     Davidson diagonalization with overlap
     c_bands:  2 eigenvalues not converged
     ethr =  1.00E-02,  avg # of iterations = 15.9

     total cpu time spent up to now is       38.7 secs

     total energy              =     -78.43634495 Ry
     estimated scf accuracy    <    1372.92141022 Ry

     iteration #  3     ecut=    80.00 Ry     beta= 0.70
     Davidson diagonalization with overlap
     ethr =  1.00E-02,  avg # of iterations =  7.5

     total cpu time spent up to now is       40.7 secs

     total energy              =     -95.36750334 Ry
     estimated scf accuracy    <     338.01448934 Ry

     iteration #  4     ecut=    80.00 Ry     beta= 0.70
     Davidson diagonalization with overlap
     ethr =  1.00E-02,  avg # of iterations =  6.2

     total cpu time spent up to now is       42.1 secs

     total energy              =     -97.62934034 Ry
     estimated scf accuracy    <     137.12741143 Ry

     iteration #  5     ecut=    80.00 Ry     beta= 0.70
     Davidson diagonalization with overlap
     ethr =  1.00E-02,  avg # of iterations =  2.5

     total cpu time spent up to now is       43.0 secs

     total energy              =     -94.50191879 Ry
     estimated scf accuracy    <      85.50683477 Ry

     iteration #  6     ecut=    80.00 Ry     beta= 0.70
     Davidson diagonalization with overlap
     ethr =  1.00E-02,  avg # of iterations =  3.9

     total cpu time spent up to now is       44.0 secs

     total energy              =     -95.53844033 Ry
     estimated scf accuracy    <       8.23469695 Ry

     iteration #  7     ecut=    80.00 Ry     beta= 0.70
     Davidson diagonalization with overlap
     ethr =  1.00E-02,  avg # of iterations =  2.9

     total cpu time spent up to now is       44.9 secs

     total energy              =     -95.81691625 Ry
     estimated scf accuracy    <       0.20382683 Ry

     iteration #  8     ecut=    80.00 Ry     beta= 0.70
     Davidson diagonalization with overlap
     ethr =  5.36E-04,  avg # of iterations =  5.9

     total cpu time spent up to now is       46.0 secs

     total energy              =     -95.85183512 Ry
     estimated scf accuracy    <       0.15010946 Ry

     iteration #  9     ecut=    80.00 Ry     beta= 0.70
     Davidson diagonalization with overlap
     ethr =  3.95E-04,  avg # of iterations =  1.0

     total cpu time spent up to now is       46.8 secs

     total energy              =     -95.82816122 Ry
     estimated scf accuracy    <       0.12574897 Ry

     iteration # 10     ecut=    80.00 Ry     beta= 0.70
     Davidson diagonalization with overlap
     ethr =  3.31E-04,  avg # of iterations =  3.8

     total cpu time spent up to now is       47.7 secs

     total energy              =     -95.85735339 Ry
     estimated scf accuracy    <       1.09983524 Ry

     iteration # 11     ecut=    80.00 Ry     beta= 0.70
     Davidson diagonalization with overlap
     ethr =  3.31E-04,  avg # of iterations =  1.1

     total cpu time spent up to now is       48.4 secs

     total energy              =     -95.82119514 Ry
     estimated scf accuracy    <       0.67898242 Ry

     iteration # 12     ecut=    80.00 Ry     beta= 0.70
     Davidson diagonalization with overlap
     ethr =  3.31E-04,  avg # of iterations =  2.4

     total cpu time spent up to now is       49.2 secs

     total energy              =     -95.83884354 Ry
     estimated scf accuracy    <       0.01037203 Ry

     iteration # 13     ecut=    80.00 Ry     beta= 0.70
     Davidson diagonalization with overlap
     ethr =  2.73E-05,  avg # of iterations =  6.3

     total cpu time spent up to now is       50.3 secs

     total energy              =     -95.84043062 Ry
     estimated scf accuracy    <       0.01740471 Ry

     iteration # 14     ecut=    80.00 Ry     beta= 0.70
     Davidson diagonalization with overlap
     ethr =  2.73E-05,  avg # of iterations =  1.3

     total cpu time spent up to now is       51.0 secs

     total energy              =     -95.84063951 Ry
     estimated scf accuracy    <       0.00107666 Ry

     iteration # 15     ecut=    80.00 Ry     beta= 0.70
     Davidson diagonalization with overlap
     ethr =  2.83E-06,  avg # of iterations =  6.0

     total cpu time spent up to now is       52.1 secs

     total energy              =     -95.84114330 Ry
     estimated scf accuracy    <       0.01242586 Ry

     iteration # 16     ecut=    80.00 Ry     beta= 0.70
     Davidson diagonalization with overlap
     ethr =  2.83E-06,  avg # of iterations =  1.3

     total cpu time spent up to now is       52.9 secs

     total energy              =     -95.84053069 Ry
     estimated scf accuracy    <       0.00729294 Ry

     iteration # 17     ecut=    80.00 Ry     beta= 0.70
     Davidson diagonalization with overlap
     ethr =  2.83E-06,  avg # of iterations =  4.6

     total cpu time spent up to now is       53.8 secs

     total energy              =     -95.84094136 Ry
     estimated scf accuracy    <       0.00061391 Ry

     iteration # 18     ecut=    80.00 Ry     beta= 0.70
     Davidson diagonalization with overlap
     ethr =  1.62E-06,  avg # of iterations =  1.1

     total cpu time spent up to now is       54.5 secs

     total energy              =     -95.84095671 Ry
     estimated scf accuracy    <       0.00003752 Ry

     iteration # 19     ecut=    80.00 Ry     beta= 0.70
     Davidson diagonalization with overlap
     ethr =  9.87E-08,  avg # of iterations =  3.7

     total cpu time spent up to now is       55.3 secs

     total energy              =     -95.84096376 Ry
     estimated scf accuracy    <       0.00002045 Ry

     iteration # 20     ecut=    80.00 Ry     beta= 0.70
     Davidson diagonalization with overlap
     ethr =  5.38E-08,  avg # of iterations =  1.0

     total cpu time spent up to now is       56.0 secs

     total energy              =     -95.84096285 Ry
     estimated scf accuracy    <       0.00001155 Ry

     iteration # 21     ecut=    80.00 Ry     beta= 0.70
     Davidson diagonalization with overlap
     ethr =  3.04E-08,  avg # of iterations =  1.8

     total cpu time spent up to now is       56.7 secs

     total energy              =     -95.84096356 Ry
     estimated scf accuracy    <       0.00000001 Ry

     iteration # 22     ecut=    80.00 Ry     beta= 0.70
     Davidson diagonalization with overlap
     c_bands:  1 eigenvalues not converged
     ethr =  3.10E-11,  avg # of iterations =  8.1

     total cpu time spent up to now is       57.9 secs

     total energy              =     -95.84096362 Ry
     estimated scf accuracy    <       0.00000001 Ry

     iteration # 23     ecut=    80.00 Ry     beta= 0.70
     Davidson diagonalization with overlap
     ethr =  3.10E-11,  avg # of iterations =  2.5

     total cpu time spent up to now is       58.7 secs

     total energy              =     -95.84096361 Ry
     estimated scf accuracy    <       0.00000009 Ry

     iteration # 24     ecut=    80.00 Ry     beta= 0.70
     Davidson diagonalization with overlap
     ethr =  3.10E-11,  avg # of iterations =  3.5

     total cpu time spent up to now is       59.6 secs

     total energy              =     -95.84096362 Ry
     estimated scf accuracy    <       0.00000001 Ry

     iteration # 25     ecut=    80.00 Ry     beta= 0.70
     Davidson diagonalization with overlap
     ethr =  3.10E-11,  avg # of iterations =  1.5

     total cpu time spent up to now is       60.4 secs

     End of self-consistent calculation

          k = 0.0000 0.0000 0.0000 (  9117 PWs)   bands (ev):

   -32.2939 -32.2302  -4.1090  -3.5350  -2.5467  -1.1813   0.4691   2.4681
     4.6754   7.1959   8.2414  11.7250  12.8280  16.4619  16.4619  16.5257
    16.9373  16.9373  17.0147  17.0840  17.7562  17.7562  18.0373

          k = 0.0000 0.1151 0.0000 (  9164 PWs)   bands (ev):

   -32.2856 -32.2257  -3.8304  -3.2576  -2.2715  -0.9092   0.7366   2.7296
     4.9225   7.4212   8.4398  11.9201  12.4934  13.3224  13.3493  14.1845
    15.4557  16.6979  16.8374  17.1739  17.2782  17.9939  18.4570

          k = 0.0000 0.2303 0.0000 (  9212 PWs)   bands (ev):

   -32.2637 -32.2149  -2.9974  -2.4283  -1.4485  -0.0955   1.5358   3.5097
     5.6527   8.0329   8.9597   9.0490   9.6007  10.4691  11.7265  12.7574
    13.0874  13.9730  15.2353  16.9440  17.4067  17.8842  18.0541

          k = 0.0000 0.3454 0.0000 (  9282 PWs)   bands (ev):

   -32.2366 -32.2048  -1.6183  -1.0553  -0.0861   1.2506   2.8552   4.7811
     5.6342   6.1311   6.8737   7.1077   8.3761   9.0180  10.0359  10.1491
    12.0360  13.6166  13.9364  15.2116  16.7220  17.2006  18.5902

          k = 0.0000 0.4606 0.0000 (  9270 PWs)   bands (ev):

   -32.2141 -32.2030   0.2932   0.8469   1.7985   2.7120   3.1048   3.2554
     4.2265   4.6858   5.5137   6.4736   7.1507   8.2205   9.2784  10.1218
    11.5176  11.8011  14.0550  14.3369  16.0608  17.1382  18.5055

          k = 0.1151 0.1151 0.0000 (  9190 PWs)   bands (ev):

   -32.2774 -32.2211  -3.5523  -2.9807  -1.9967  -0.6374   1.0037   2.9909
     5.1694   7.6485   8.6424  12.1442  12.3469  12.8643  12.9120  13.7500
    14.6763  14.6803  14.9981  15.5054  16.4136  16.8359  17.7994

          k = 0.1151 0.2303 0.0000 (  9224 PWs)   bands (ev):

   -32.2561 -32.2102  -2.7207  -2.1528  -1.1751   0.1751   1.8017   3.7703
     5.8994   8.2702   9.1821   9.2483   9.7945  10.6623  11.9218  12.9295
    13.2248  13.6934  14.8099  14.9117  15.3709  15.6561  16.9539

          k = 0.1151 0.3454 0.0000 (  9252 PWs)   bands (ev):

   -32.2298 -32.1998  -1.3440  -0.7822   0.1850   1.5191   3.1190   5.0407
     5.8857   6.3810   7.1228   7.3569   8.6232   9.2673  10.2672  10.3728
    12.2524  13.8179  14.1486  14.9746  15.9894  16.0152  16.8227

          k = 0.1151 0.4606 0.0000 (  9254 PWs)   bands (ev):

   -32.2080 -32.1975   0.5638   1.1164   2.0660   2.9766   3.3698   3.5188
     4.4870   4.9446   5.7763   6.7370   7.4026   8.4790   9.5195  10.3812
    11.7641  12.0177  14.2405  14.5344  16.2142  16.8066  17.7699

          k = 0.2303 0.2303 0.0000 (  9238 PWs)   bands (ev):

   -32.2362 -32.1988  -1.8935  -1.3291  -0.3575   0.9839   2.5962   4.5477
     6.6301   8.9576   9.2439   9.7604   9.8327  10.6444  11.1387  11.7262
    11.8925  12.6771  13.3072  13.5389  14.3245  14.8127  15.1663

          k = 0.2303 0.3454 0.0000 (  9261 PWs)   bands (ev):

   -32.2120 -32.1875  -0.5242   0.0342   0.9953   2.3213   3.9069   5.8151
     6.6065   7.1017   7.8511   8.0639   9.3235   9.9736  10.9066  10.9599
    11.7387  12.2962  12.8282  13.1965  14.4048  14.4931  15.1144

          k = 0.2303 0.4606 0.0000 (  9281 PWs)   bands (ev):

   -32.1923 -32.1838   1.3716   1.9209   2.8643   3.7629   4.1608   4.3014
     5.2598   5.7159   6.5533   7.5202   8.1460   9.2454  10.2239  11.1441
    12.4710  12.5840  13.4721  14.0038  14.6814  14.8760  15.1423

          k = 0.3454 0.3454 0.0000 (  9242 PWs)   bands (ev):

   -32.1906 -32.1746   0.8313   1.3839   2.3345   3.6461   5.2054   7.0854
     7.1817   7.6969   8.5781   8.8739   9.0164   9.7784   9.8237  10.5647
    11.2329  11.4012  11.6204  12.4833  13.0935  13.6006  14.7942

          k = 0.3454 0.4606 0.0000 (  9275 PWs)   bands (ev):

   -32.1742 -32.1686   2.7022   3.2456   4.1781   5.0276   5.4612   5.5584
     6.4932   6.9790   7.7836   8.7833   9.3055  10.1274  10.3218  10.8316
    11.3443  11.6355  12.3843  12.3923  12.8213  12.9595  13.4649

          k = 0.4606 0.4606 0.0000 (  9300 PWs)   bands (ev):

   -32.1614 -32.1595   4.5051   5.0380   5.9508   6.1532   6.6676   7.2081
     7.5470   7.9905   8.4214   8.7907   8.7948   9.4087   9.6136  10.1444
    10.1960  10.6310  10.6602  11.1958  11.9435  12.0558  12.3859

     the Fermi energy is    13.8913 ev

!    total energy              =     -95.84096362 Ry
     estimated scf accuracy    <          6.0E-12 Ry
     smearing contrib. (-TS)   =       0.00056371 Ry
     internal energy E=F+TS    =     -95.84152733 Ry

     The total energy is F=E-TS. E is the sum of the following terms:
     one-electron contribution =      26.02381097 Ry
     hartree contribution      =       9.85215730 Ry
     xc contribution           =     -33.96265038 Ry
     ewald contribution        =     -97.75484522 Ry

     convergence has been achieved in  25 iterations

     Forces acting on atoms (cartesian axes, Ry/au):

     atom    1 type  1   force =     0.00000000    0.00000000   -0.00848730
     atom    2 type  1   force =     0.00000000    0.00000000    0.00848730
     atom    3 type  1   force =     0.00000000    0.00000000    0.02493806
     atom    4 type  1   force =     0.00000000    0.00000000   -0.02493806
     atom    5 type  1   force =     0.00000000    0.00000000    0.00301695
     atom    6 type  1   force =     0.00000000    0.00000000   -0.00301695
     atom    7 type  1   force =     0.00000000    0.00000000   -0.00901497
     atom    8 type  1   force =     0.00000000    0.00000000    0.00901497
     atom    9 type  2   force =     0.00000000    0.00000000   -0.05760615
     atom   10 type  2   force =     0.00000000    0.00000000    0.05760615
     The non-local contrib.  to forces
     atom    1 type  1   force =     0.00000000    0.00000000   -0.00944239
     atom    2 type  1   force =     0.00000000    0.00000000    0.00944239
     atom    3 type  1   force =     0.00000000    0.00000000   -0.06306134
     atom    4 type  1   force =     0.00000000    0.00000000    0.06306134
     atom    5 type  1   force =     0.00000000    0.00000000   -0.01526750
     atom    6 type  1   force =     0.00000000    0.00000000    0.01526750
     atom    7 type  1   force =     0.00000000    0.00000000   -0.02227451
     atom    8 type  1   force =     0.00000000    0.00000000    0.02227451
     atom    9 type  2   force =     0.00000000    0.00000000   -0.02972475
     atom   10 type  2   force =     0.00000000    0.00000000    0.02972475
     The ionic contribution  to forces
     atom    1 type  1   force =     0.00000000   -0.00000000    1.31879474
     atom    2 type  1   force =    -0.00000000    0.00000000   -1.31879474
     atom    3 type  1   force =     0.00000000   -0.00000000    3.15548250
     atom    4 type  1   force =    -0.00000000    0.00000000   -3.15548250
     atom    5 type  1   force =     0.00000000   -0.00000000   -2.27782170
     atom    6 type  1   force =     0.00000000    0.00000000    2.27782170
     atom    7 type  1   force =     0.00000000    0.00000000   -0.47088514
     atom    8 type  1   force =    -0.00000000    0.00000000    0.47088514
     atom    9 type  2   force =     0.00000000   -0.00000000   -2.20913198
     atom   10 type  2   force =    -0.00000000    0.00000000    2.20913198
     The local contribution  to forces
     atom    1 type  1   force =     0.00000000    0.00000000   -1.31853088
     atom    2 type  1   force =     0.00000000    0.00000000    1.31853088
     atom    3 type  1   force =     0.00000000    0.00000000   -3.06798964
     atom    4 type  1   force =    -0.00000000    0.00000000    3.06798964
     atom    5 type  1   force =     0.00000000   -0.00000000    2.29487082
     atom    6 type  1   force =    -0.00000000    0.00000000   -2.29487082
     atom    7 type  1   force =     0.00000000   -0.00000000    0.48278542
     atom    8 type  1   force =     0.00000000   -0.00000000   -0.48278542
     atom    9 type  2   force =    -0.00000000   -0.00000000    2.18125091
     atom   10 type  2   force =    -0.00000000   -0.00000000   -2.18125091
     The core correction contribution to forces
     atom    1 type  1   force =     0.00000000    0.00000000    0.00069489
     atom    2 type  1   force =     0.00000000    0.00000000   -0.00069489
     atom    3 type  1   force =     0.00000000    0.00000000    0.00050565
     atom    4 type  1   force =     0.00000000    0.00000000   -0.00050565
     atom    5 type  1   force =     0.00000000    0.00000000    0.00123395
     atom    6 type  1   force =     0.00000000    0.00000000   -0.00123395
     atom    7 type  1   force =     0.00000000   -0.00000000    0.00135722
     atom    8 type  1   force =     0.00000000    0.00000000   -0.00135722
     atom    9 type  2   force =     0.00000000    0.00000000    0.00000000
     atom   10 type  2   force =     0.00000000    0.00000000    0.00000000
     The Hubbard contrib.    to forces
     atom    1 type  1   force =     0.00000000    0.00000000    0.00000000
     atom    2 type  1   force =     0.00000000    0.00000000    0.00000000
     atom    3 type  1   force =     0.00000000    0.00000000    0.00000000
     atom    4 type  1   force =     0.00000000    0.00000000    0.00000000
     atom    5 type  1   force =     0.00000000    0.00000000    0.00000000
     atom    6 type  1   force =     0.00000000    0.00000000    0.00000000
     atom    7 type  1   force =     0.00000000    0.00000000    0.00000000
     atom    8 type  1   force =     0.00000000    0.00000000    0.00000000
     atom    9 type  2   force =     0.00000000    0.00000000    0.00000000
     atom   10 type  2   force =     0.00000000    0.00000000    0.00000000
     The SCF correction term to forces
     atom    1 type  1   force =    -0.00000000   -0.00000000   -0.00000365
     atom    2 type  1   force =     0.00000000    0.00000000    0.00000365
     atom    3 type  1   force =    -0.00000000   -0.00000000    0.00000089
     atom    4 type  1   force =     0.00000000   -0.00000000   -0.00000089
     atom    5 type  1   force =     0.00000000   -0.00000000    0.00000139
     atom    6 type  1   force =     0.00000000    0.00000000   -0.00000139
     atom    7 type  1   force =    -0.00000000    0.00000000    0.00000203
     atom    8 type  1   force =    -0.00000000   -0.00000000   -0.00000203
     atom    9 type  2   force =    -0.00000000    0.00000000   -0.00000033
     atom   10 type  2   force =     0.00000000    0.00000000    0.00000033

     Total force =     0.090585     Total SCF correction =     0.000006


     Computing stress (Cartesian axis) and pressure

          total   stress  (Ry/bohr**3)                   (kbar)     P=      532.58
   0.00350227   0.00000000   0.00000000          515.20        0.00        0.00
   0.00000000   0.00350227   0.00000000            0.00      515.20        0.00
   0.00000000   0.00000000   0.00385658            0.00        0.00      567.32

     Energy error            =      5.2E-02 Ry
     Gradient error          =      5.8E-02 Ry/Bohr
     Cell gradient error     =      6.7E+01 kbar

     number of scf cycles    =   2
     number of bfgs steps    =   1

     enthalpy           old  =     -93.4392452805 Ry
     enthalpy           new  =     -93.4912044012 Ry

     CASE: enthalpy          _new < enthalpy          _old

     new trust radius        =       0.0536335807 bohr
ibrav =      6
 celldm(1) =      4.78243760
 celldm(3) =      6.35778936
Input lattice vectors:
     0.96419906     0.00000000     0.00000000
     0.00000000     0.96419906     0.00000000
     0.00000000     0.00000000     6.13017449
New lattice vectors in INITIAL alat:
     0.96419906     0.00000000     0.00000000
     0.00000000     0.96419906     0.00000000
     0.00000000     0.00000000     6.13017449
New lattice vectors in NEW alat (for information only):
     1.00000000     0.00000000     0.00000000
     0.00000000     1.00000000     0.00000000
     0.00000000     0.00000000     6.35778936
Discrepancy in bohr =     0.000000    0.000000    0.000000
     new conv_thr            =       0.0000000058 Ry

     new unit-cell volume =    695.43104 a.u.^3 (   103.05225 Ang^3 )
     density =      3.84415 g/cm^3

CELL_PARAMETERS (alat=  4.96001067)
   0.964199055   0.000000000   0.000000000
   0.000000000   0.964199055   0.000000000
   0.000000000   0.000000000   6.130174492

ATOMIC_POSITIONS (crystal)
Si            0.0000000000        0.5000000000        0.1498584534
Si            0.5000000000        0.0000000000        0.8501415466
Si            0.0000000000        0.5000000000        0.3505930082
Si            0.5000000000        0.0000000000        0.6494069918
Si            0.0000000000        0.5000000000        0.7507625244
Si            0.5000000000        0.0000000000        0.2492374756
Si            0.0000000000        0.5000000000        0.9500067070
Si            0.5000000000        0.0000000000        0.0499932930
Li            0.0000000000        0.5000000000        0.5588116992
Li            0.5000000000        0.0000000000        0.4411883008



     Writing config-only to output data dir ./output/SiLi.save/
     NEW-OLD atomic charge density approx. for the potential
     extrapolated charge   38.22439, renormalised to   38.00000

     total cpu time spent up to now is       64.7 secs

     Self-consistent Calculation

     iteration #  1     ecut=    80.00 Ry     beta= 0.70
     Davidson diagonalization with overlap
     ethr =  1.00E-06,  avg # of iterations =  9.3

     total cpu time spent up to now is       66.7 secs

     total energy              =     -95.75082851 Ry
     estimated scf accuracy    <       0.12316527 Ry

     iteration #  2     ecut=    80.00 Ry     beta= 0.70
     Davidson diagonalization with overlap
     ethr =  3.24E-04,  avg # of iterations =  9.5

     total cpu time spent up to now is       68.3 secs

     total energy              =     -94.35286403 Ry
     estimated scf accuracy    <      55.74482760 Ry

     iteration #  3     ecut=    80.00 Ry     beta= 0.70
     Davidson diagonalization with overlap
     ethr =  3.24E-04,  avg # of iterations =  8.8

     total cpu time spent up to now is       69.9 secs

     total energy              =     -95.84155475 Ry
     estimated scf accuracy    <       0.34308093 Ry

     iteration #  4     ecut=    80.00 Ry     beta= 0.70
     Davidson diagonalization with overlap
     ethr =  3.24E-04,  avg # of iterations =  2.5

     total cpu time spent up to now is       70.8 secs

     total energy              =     -95.85972133 Ry
     estimated scf accuracy    <       0.11434927 Ry

     iteration #  5     ecut=    80.00 Ry     beta= 0.70
     Davidson diagonalization with overlap
     ethr =  3.01E-04,  avg # of iterations =  1.0

     total cpu time spent up to now is       71.6 secs

     total energy              =     -95.85965092 Ry
     estimated scf accuracy    <       0.05367000 Ry

     iteration #  6     ecut=    80.00 Ry     beta= 0.70
     Davidson diagonalization with overlap
     ethr =  1.41E-04,  avg # of iterations =  1.1

     total cpu time spent up to now is       72.3 secs

     total energy              =     -95.85839186 Ry
     estimated scf accuracy    <       0.02428189 Ry

     iteration #  7     ecut=    80.00 Ry     beta= 0.70
     Davidson diagonalization with overlap
     ethr =  6.39E-05,  avg # of iterations =  2.6

     total cpu time spent up to now is       73.1 secs

     total energy              =     -95.85980752 Ry
     estimated scf accuracy    <       0.00066415 Ry

     iteration #  8     ecut=    80.00 Ry     beta= 0.70
     Davidson diagonalization with overlap
     c_bands:  1 eigenvalues not converged
     ethr =  1.75E-06,  avg # of iterations =  9.3

     total cpu time spent up to now is       74.4 secs

     total energy              =     -95.86367156 Ry
     estimated scf accuracy    <       0.01463034 Ry

     iteration #  9     ecut=    80.00 Ry     beta= 0.70
     Davidson diagonalization with overlap
     ethr =  1.75E-06,  avg # of iterations =  4.2

     total cpu time spent up to now is       75.4 secs

     total energy              =     -95.86397216 Ry
     estimated scf accuracy    <       0.00073772 Ry

     iteration # 10     ecut=    80.00 Ry     beta= 0.70
     Davidson diagonalization with overlap
     ethr =  1.75E-06,  avg # of iterations =  1.0

     total cpu time spent up to now is       76.1 secs

     total energy              =     -95.86404648 Ry
     estimated scf accuracy    <       0.00062817 Ry

     iteration # 11     ecut=    80.00 Ry     beta= 0.70
     Davidson diagonalization with overlap
     ethr =  1.65E-06,  avg # of iterations =  1.8

     total cpu time spent up to now is       76.9 secs

     total energy              =     -95.86427188 Ry
     estimated scf accuracy    <       0.00435039 Ry

     iteration # 12     ecut=    80.00 Ry     beta= 0.70
     Davidson diagonalization with overlap
     ethr =  1.65E-06,  avg # of iterations =  1.5

     total cpu time spent up to now is       77.6 secs

     total energy              =     -95.86464783 Ry
     estimated scf accuracy    <       0.00685098 Ry

     iteration # 13     ecut=    80.00 Ry     beta= 0.70
     Davidson diagonalization with overlap
     ethr =  1.65E-06,  avg # of iterations =  2.1

     total cpu time spent up to now is       78.4 secs

     total energy              =     -95.86387806 Ry
     estimated scf accuracy    <       0.01165584 Ry

     iteration # 14     ecut=    80.00 Ry     beta= 0.70
     Davidson diagonalization with overlap
     ethr =  1.65E-06,  avg # of iterations =  2.4

     total cpu time spent up to now is       79.3 secs

     total energy              =     -95.86387772 Ry
     estimated scf accuracy    <       0.00407342 Ry

     iteration # 15     ecut=    80.00 Ry     beta= 0.70
     Davidson diagonalization with overlap
     ethr =  1.65E-06,  avg # of iterations =  2.1

     total cpu time spent up to now is       80.1 secs

     total energy              =     -95.86393586 Ry
     estimated scf accuracy    <       0.00170043 Ry

     iteration # 16     ecut=    80.00 Ry     beta= 0.70
     Davidson diagonalization with overlap
     ethr =  1.65E-06,  avg # of iterations =  1.0

     total cpu time spent up to now is       80.8 secs

     total energy              =     -95.86394589 Ry
     estimated scf accuracy    <       0.00175042 Ry

     iteration # 17     ecut=    80.00 Ry     beta= 0.70
     Davidson diagonalization with overlap
     ethr =  1.65E-06,  avg # of iterations =  1.0

     total cpu time spent up to now is       81.4 secs

     total energy              =     -95.86390934 Ry
     estimated scf accuracy    <       0.00178100 Ry

     iteration # 18     ecut=    80.00 Ry     beta= 0.70
     Davidson diagonalization with overlap
     ethr =  1.65E-06,  avg # of iterations =  1.0

     total cpu time spent up to now is       82.2 secs

     total energy              =     -95.86381975 Ry
     estimated scf accuracy    <       0.00078313 Ry

     iteration # 19     ecut=    80.00 Ry     beta= 0.70
     Davidson diagonalization with overlap
     ethr =  1.65E-06,  avg # of iterations =  3.2

     total cpu time spent up to now is       83.0 secs

     total energy              =     -95.86390738 Ry
     estimated scf accuracy    <       0.00147667 Ry

     iteration # 20     ecut=    80.00 Ry     beta= 0.70
     Davidson diagonalization with overlap
     ethr =  1.65E-06,  avg # of iterations =  1.1

     total cpu time spent up to now is       83.8 secs

     total energy              =     -95.86390784 Ry
     estimated scf accuracy    <       0.00053384 Ry

     iteration # 21     ecut=    80.00 Ry     beta= 0.70
     Davidson diagonalization with overlap
     ethr =  1.40E-06,  avg # of iterations =  1.0

     total cpu time spent up to now is       84.5 secs

     total energy              =     -95.86390077 Ry
     estimated scf accuracy    <       0.00026229 Ry

     iteration # 22     ecut=    80.00 Ry     beta= 0.70
     Davidson diagonalization with overlap
     ethr =  6.90E-07,  avg # of iterations =  1.2

     total cpu time spent up to now is       85.2 secs

     total energy              =     -95.86390106 Ry
     estimated scf accuracy    <       0.00009086 Ry

     iteration # 23     ecut=    80.00 Ry     beta= 0.70
     Davidson diagonalization with overlap
     ethr =  2.39E-07,  avg # of iterations =  1.5

     total cpu time spent up to now is       86.0 secs

     total energy              =     -95.86390062 Ry
     estimated scf accuracy    <       0.00003383 Ry

     iteration # 24     ecut=    80.00 Ry     beta= 0.70
     Davidson diagonalization with overlap
     ethr =  8.90E-08,  avg # of iterations =  1.9

     total cpu time spent up to now is       86.8 secs

     total energy              =     -95.86390179 Ry
     estimated scf accuracy    <       0.00001133 Ry

     iteration # 25     ecut=    80.00 Ry     beta= 0.70
     Davidson diagonalization with overlap
     ethr =  2.98E-08,  avg # of iterations =  2.7

     total cpu time spent up to now is       87.6 secs

     total energy              =     -95.86390258 Ry
     estimated scf accuracy    <       0.00000016 Ry

     iteration # 26     ecut=    80.00 Ry     beta= 0.70
     Davidson diagonalization with overlap
     ethr =  4.29E-10,  avg # of iterations =  6.5

     total cpu time spent up to now is       88.7 secs

     total energy              =     -95.86390262 Ry
     estimated scf accuracy    <       0.00000098 Ry

     iteration # 27     ecut=    80.00 Ry     beta= 0.70
     Davidson diagonalization with overlap
     ethr =  4.29E-10,  avg # of iterations =  3.1

     total cpu time spent up to now is       89.6 secs

     total energy              =     -95.86390269 Ry
     estimated scf accuracy    <       0.00000008 Ry

     iteration # 28     ecut=    80.00 Ry     beta= 0.70
     Davidson diagonalization with overlap
     ethr =  2.16E-10,  avg # of iterations =  1.4

     total cpu time spent up to now is       90.3 secs

     total energy              =     -95.86390268 Ry
     estimated scf accuracy    <       0.00000019 Ry

     iteration # 29     ecut=    80.00 Ry     beta= 0.70
     Davidson diagonalization with overlap
     ethr =  2.16E-10,  avg # of iterations =  1.0

     total cpu time spent up to now is       91.1 secs

     total energy              =     -95.86390268 Ry
     estimated scf accuracy    <       0.00000004 Ry

     iteration # 30     ecut=    80.00 Ry     beta= 0.70
     Davidson diagonalization with overlap
     ethr =  1.14E-10,  avg # of iterations =  1.0

     total cpu time spent up to now is       91.8 secs

     total energy              =     -95.86390268 Ry
     estimated scf accuracy    <       0.00000003 Ry

     iteration # 31     ecut=    80.00 Ry     beta= 0.70
     Davidson diagonalization with overlap
     ethr =  7.57E-11,  avg # of iterations =  1.3

     total cpu time spent up to now is       92.5 secs

     End of self-consistent calculation

          k = 0.0000 0.0000 0.0000 (  9117 PWs)   bands (ev):

   -32.3705 -32.2986  -4.1313  -3.5505  -2.5551  -1.2433   0.3938   2.3396
     4.5226   7.0044   8.0693  11.5834  12.5776  16.4841  16.4841  16.5301
    16.7079  16.9712  16.9712  17.0986  17.8062  17.8062  18.0629

          k = 0.0000 0.1152 0.0000 (  9164 PWs)   bands (ev):

   -32.3619 -32.2943  -3.8523  -3.2726  -2.2793  -0.9704   0.6622   2.6024
     4.7717   7.2333   8.2711  11.7790  12.4095  13.1969  13.3328  14.2090
    15.4312  16.7206  16.7993  16.9843  17.2083  18.0445  18.2281

          k = 0.0000 0.2305 0.0000 (  9212 PWs)   bands (ev):

   -32.3393 -32.2842  -3.0178  -2.4416  -1.4544  -0.1546   1.4642   3.3862
     5.5089   7.8677   8.8200   9.0396   9.5923  10.4875  11.6755  12.6050
    13.0147  13.7589  15.1419  16.8102  17.4309  17.7643  17.9202

          k = 0.0000 0.3457 0.0000 (  9282 PWs)   bands (ev):

   -32.3112 -32.2752  -1.6361  -1.0657  -0.0887   1.1953   2.7884   4.6665
     5.6290   6.1287   6.7532   7.1186   8.3287   8.8892   9.8923  10.0670
    11.9048  13.4669  13.7557  14.9882  16.5815  16.9971  18.6166

          k = 0.0000 0.4609 0.0000 (  9270 PWs)   bands (ev):

   -32.2872 -32.2747   0.2789   0.8407   1.8010   2.7019   3.0566   3.2528
     4.2329   4.6298   5.4659   6.3777   7.0829   8.1213   9.1476  10.0072
    11.3601  11.6207  13.8461  14.1486  15.8764  16.8711  18.3031

          k = 0.1152 0.1152 0.0000 (  9190 PWs)   bands (ev):

   -32.3535 -32.2900  -3.5736  -2.9951  -2.0039  -0.6979   0.9302   2.8649
     5.0206   7.4639   8.4766  11.9988  12.3538  12.7433  12.8823  13.7819
    14.6033  14.6843  14.9748  15.5234  16.3889  16.8125  17.4762

          k = 0.1152 0.2305 0.0000 (  9224 PWs)   bands (ev):

   -32.3315 -32.2797  -2.7406  -2.1655  -1.1803   0.1167   1.7310   3.6480
     5.7574   8.1066   9.0419   9.2405   9.7891  10.6824  11.8759  12.7801
    13.1469  13.6121  14.7954  14.8143  15.2821  15.6758  16.9271

          k = 0.1152 0.3457 0.0000 (  9252 PWs)   bands (ev):

   -32.3041 -32.2703  -1.3614  -0.7920   0.1831   1.4645   3.0532   4.9272
     5.8810   6.3792   7.0036   7.3686   8.5770   9.1390  10.1238  10.2938
    12.1258  13.6764  13.9732  14.8662  15.9062  15.9965  16.6947

          k = 0.1152 0.4609 0.0000 (  9254 PWs)   bands (ev):

   -32.2811 -32.2693   0.5499   1.1107   2.0691   2.9670   3.3223   3.5168
     4.4943   4.8897   5.7289   6.6417   7.3360   8.3802   9.3906  10.2675
    11.6076  11.8409  14.0404  14.3518  16.0400  16.7042  17.6410

          k = 0.2305 0.2305 0.0000 (  9238 PWs)   bands (ev):

   -32.3111 -32.2689  -1.9118  -1.3401  -0.3608   0.9278   2.5283   4.4290
     6.4942   8.7997   9.2457   9.6885   9.7732  10.6706  11.1342  11.7240
    11.8647  12.6902  13.2775  13.3984  14.2462  14.6241  15.0791

          k = 0.2305 0.3457 0.0000 (  9261 PWs)   bands (ev):

   -32.2860 -32.2584  -0.5401   0.0260   0.9953   2.2690   3.8439   5.7050
     6.6033   7.1028   7.7351   8.0786   9.2817   9.8507  10.7721  10.8985
    11.7347  12.3000  12.7193  13.2161  14.3372  14.3662  14.9477

          k = 0.2305 0.4609 0.0000 (  9281 PWs)   bands (ev):

   -32.2653 -32.2557   1.3593   1.9169   2.8695   3.7548   4.1154   4.3011
     5.2694   5.6642   6.5077   7.4269   8.0834   9.1483  10.1018  11.0346
    12.3224  12.4325  13.4668  14.0157  14.5247  14.8609  15.0226

          k = 0.3457 0.3457 0.0000 (  9242 PWs)   bands (ev):

   -32.2640 -32.2460   0.8179   1.3786   2.3379   3.5976   5.1472   6.9816
     7.1800   7.7061   8.6005   8.7846   9.0182   9.7625   9.7929  10.5620
    11.1998  11.2807  11.5395  12.3722  13.0046  13.5354  14.6947

          k = 0.3457 0.4609 0.0000 (  9275 PWs)   bands (ev):

   -32.2469 -32.2407   2.6924   3.2444   4.1867   5.0219   5.4193   5.5613
     6.5072   6.9324   7.7419   8.6959   9.2523  10.1312  10.2658  10.8023
    11.2422  11.6504  12.3078  12.3924  12.7816  12.9384  13.3660

          k = 0.4609 0.4609 0.0000 (  9300 PWs)   bands (ev):

   -32.2340 -32.2318   4.4987   5.0410   5.9647   6.1497   6.6749   7.1715
     7.5674   7.9908   8.4094   8.7582   8.7766   9.4283   9.6158  10.1505
    10.1612  10.5651  10.6112  11.2033  11.9304  11.9661  12.2848

     the Fermi energy is    13.7743 ev

!    total energy              =     -95.86390267 Ry
     estimated scf accuracy    <          4.8E-09 Ry
     smearing contrib. (-TS)   =       0.00064388 Ry
     internal energy E=F+TS    =     -95.86454655 Ry

     The total energy is F=E-TS. E is the sum of the following terms:
     one-electron contribution =      26.27352093 Ry
     hartree contribution      =       9.61163409 Ry
     xc contribution           =     -33.90566734 Ry
     ewald contribution        =     -97.84403423 Ry

     convergence has been achieved in  31 iterations

     Forces acting on atoms (cartesian axes, Ry/au):

     atom    1 type  1   force =     0.00000000    0.00000000   -0.00469471
     atom    2 type  1   force =     0.00000000    0.00000000    0.00469471
     atom    3 type  1   force =     0.00000000    0.00000000    0.02323339
     atom    4 type  1   force =     0.00000000    0.00000000   -0.02323339
     atom    5 type  1   force =     0.00000000    0.00000000    0.00072974
     atom    6 type  1   force =     0.00000000    0.00000000   -0.00072974
     atom    7 type  1   force =     0.00000000    0.00000000   -0.00426638
     atom    8 type  1   force =     0.00000000    0.00000000    0.00426638
     atom    9 type  2   force =     0.00000000    0.00000000   -0.04865596
     atom   10 type  2   force =     0.00000000    0.00000000    0.04865596
     The non-local contrib.  to forces
     atom    1 type  1   force =     0.00000000    0.00000000   -0.00474564
     atom    2 type  1   force =     0.00000000    0.00000000    0.00474564
     atom    3 type  1   force =     0.00000000    0.00000000   -0.06566468
     atom    4 type  1   force =     0.00000000    0.00000000    0.06566468
     atom    5 type  1   force =     0.00000000    0.00000000   -0.01637990
     atom    6 type  1   force =     0.00000000    0.00000000    0.01637990
     atom    7 type  1   force =     0.00000000    0.00000000   -0.01793069
     atom    8 type  1   force =     0.00000000    0.00000000    0.01793069
     atom    9 type  2   force =     0.00000000    0.00000000   -0.02692006
     atom   10 type  2   force =     0.00000000    0.00000000    0.02692006
     The ionic contribution  to forces
     atom    1 type  1   force =     0.00000000    0.00000000    1.35192897
     atom    2 type  1   force =    -0.00000000    0.00000000   -1.35192897
     atom    3 type  1   force =     0.00000000    0.00000000    3.03265068
     atom    4 type  1   force =    -0.00000000    0.00000000   -3.03265068
     atom    5 type  1   force =     0.00000000    0.00000000   -2.28833957
     atom    6 type  1   force =     0.00000000    0.00000000    2.28833957
     atom    7 type  1   force =     0.00000000   -0.00000000   -0.44261718
     atom    8 type  1   force =     0.00000000    0.00000000    0.44261718
     atom    9 type  2   force =     0.00000000    0.00000000   -2.03698217
     atom   10 type  2   force =     0.00000000    0.00000000    2.03698217
     The local contribution  to forces
     atom    1 type  1   force =    -0.00000000    0.00000000   -1.35226233
     atom    2 type  1   force =     0.00000000    0.00000000    1.35226233
     atom    3 type  1   force =     0.00000000    0.00000000   -2.94468732
     atom    4 type  1   force =     0.00000000    0.00000000    2.94468732
     atom    5 type  1   force =     0.00000000   -0.00000000    2.30413821
     atom    6 type  1   force =    -0.00000000    0.00000000   -2.30413821
     atom    7 type  1   force =     0.00000000    0.00000000    0.45540689
     atom    8 type  1   force =     0.00000000    0.00000000   -0.45540689
     atom    9 type  2   force =    -0.00000000   -0.00000000    2.01526585
     atom   10 type  2   force =    -0.00000000   -0.00000000   -2.01526585
     The core correction contribution to forces
     atom    1 type  1   force =     0.00000000   -0.00000000    0.00030961
     atom    2 type  1   force =     0.00000000    0.00000000   -0.00030961
     atom    3 type  1   force =     0.00000000   -0.00000000    0.00085103
     atom    4 type  1   force =     0.00000000    0.00000000   -0.00085103
     atom    5 type  1   force =     0.00000000   -0.00000000    0.00141001
     atom    6 type  1   force =    -0.00000000    0.00000000   -0.00141001
     atom    7 type  1   force =     0.00000000    0.00000000    0.00090893
     atom    8 type  1   force =     0.00000000    0.00000000   -0.00090893
     atom    9 type  2   force =     0.00000000    0.00000000    0.00000000
     atom   10 type  2   force =     0.00000000    0.00000000    0.00000000
     The Hubbard contrib.    to forces
     atom    1 type  1   force =     0.00000000    0.00000000    0.00000000
     atom    2 type  1   force =     0.00000000    0.00000000    0.00000000
     atom    3 type  1   force =     0.00000000    0.00000000    0.00000000
     atom    4 type  1   force =     0.00000000    0.00000000    0.00000000
     atom    5 type  1   force =     0.00000000    0.00000000    0.00000000
     atom    6 type  1   force =     0.00000000    0.00000000    0.00000000
     atom    7 type  1   force =     0.00000000    0.00000000    0.00000000
     atom    8 type  1   force =     0.00000000    0.00000000    0.00000000
     atom    9 type  2   force =     0.00000000    0.00000000    0.00000000
     atom   10 type  2   force =     0.00000000    0.00000000    0.00000000
     The SCF correction term to forces
     atom    1 type  1   force =    -0.00000000    0.00000000    0.00007468
     atom    2 type  1   force =    -0.00000000   -0.00000000   -0.00007468
     atom    3 type  1   force =     0.00000000   -0.00000000    0.00008368
     atom    4 type  1   force =     0.00000000    0.00000000   -0.00008368
     atom    5 type  1   force =     0.00000000   -0.00000000   -0.00009902
     atom    6 type  1   force =    -0.00000000   -0.00000000    0.00009902
     atom    7 type  1   force =    -0.00000000   -0.00000000   -0.00003433
     atom    8 type  1   force =     0.00000000   -0.00000000    0.00003433
     atom    9 type  2   force =    -0.00000000   -0.00000000   -0.00001958
     atom   10 type  2   force =     0.00000000   -0.00000000    0.00001958

     Total force =     0.076785     Total SCF correction =     0.000219


     Computing stress (Cartesian axis) and pressure

          total   stress  (Ry/bohr**3)                   (kbar)     P=      510.51
   0.00335391   0.00000000   0.00000000          493.38        0.00        0.00
   0.00000000   0.00335391   0.00000000            0.00      493.38        0.00
   0.00000000   0.00000000   0.00370330            0.00        0.00      544.77

     Energy error            =      9.0E-03 Ry
     Gradient error          =      4.9E-02 Ry/Bohr
     Cell gradient error     =      4.5E+01 kbar

     number of scf cycles    =   3
     number of bfgs steps    =   2

     enthalpy           old  =     -93.4912044012 Ry
     enthalpy           new  =     -93.5001806079 Ry

     CASE: enthalpy          _new < enthalpy          _old


     WARNING: bfgs curvature condition failed, Theta= 0.977
     new trust radius        =       0.0594393228 bohr
ibrav =      6
 celldm(1) =      4.76602300
 celldm(3) =      6.42179754
Input lattice vectors:
     0.96088967     0.00000000     0.00000000
     0.00000000     0.96088967     0.00000000
     0.00000000     0.00000000     6.17063889
New lattice vectors in INITIAL alat:
     0.96088967     0.00000000     0.00000000
     0.00000000     0.96088967     0.00000000
     0.00000000     0.00000000     6.17063889
New lattice vectors in NEW alat (for information only):
     1.00000000     0.00000000     0.00000000
     0.00000000     1.00000000     0.00000000
     0.00000000     0.00000000     6.42179754
Discrepancy in bohr =     0.000000    0.000000    0.000000
     new conv_thr            =       0.0000000049 Ry

     new unit-cell volume =    695.22441 a.u.^3 (   103.02163 Ang^3 )
     density =      3.84529 g/cm^3

CELL_PARAMETERS (alat=  4.96001067)
   0.960889667   0.000000000   0.000000000
   0.000000000   0.960889667   0.000000000
   0.000000000   0.000000000   6.170638894

ATOMIC_POSITIONS (crystal)
Si            0.0000000000        0.5000000000        0.1496262204
Si            0.5000000000        0.0000000000        0.8503737796
Si            0.0000000000        0.5000000000        0.3514501289
Si            0.5000000000        0.0000000000        0.6485498711
Si            0.0000000000        0.5000000000        0.7508267984
Si            0.5000000000        0.0000000000        0.2491732016
Si            0.0000000000        0.5000000000        0.9497549319
Si            0.5000000000        0.0000000000        0.0502450681
Li            0.0000000000        0.5000000000        0.5568568269
Li            0.5000000000        0.0000000000        0.4431431731



     Writing config-only to output data dir ./output/SiLi.save/
     NEW-OLD atomic charge density approx. for the potential
     extrapolated charge   37.98871, renormalised to   38.00000

     total cpu time spent up to now is       96.8 secs

     Self-consistent Calculation

     iteration #  1     ecut=    80.00 Ry     beta= 0.70
     Davidson diagonalization with overlap
     ethr =  1.00E-06,  avg # of iterations =  7.4

     total cpu time spent up to now is       98.6 secs

     total energy              =     -95.86954756 Ry
     estimated scf accuracy    <       0.00268802 Ry

     iteration #  2     ecut=    80.00 Ry     beta= 0.70
     Davidson diagonalization with overlap
     ethr =  7.07E-06,  avg # of iterations =  6.7

     total cpu time spent up to now is       99.9 secs

     total energy              =     -95.86039875 Ry
     estimated scf accuracy    <       0.19309557 Ry

     iteration #  3     ecut=    80.00 Ry     beta= 0.70
     Davidson diagonalization with overlap
     ethr =  7.07E-06,  avg # of iterations =  7.3

     total cpu time spent up to now is      101.1 secs

     total energy              =     -95.86631109 Ry
     estimated scf accuracy    <       0.12868543 Ry

     iteration #  4     ecut=    80.00 Ry     beta= 0.70
     Davidson diagonalization with overlap
     ethr =  7.07E-06,  avg # of iterations =  4.9

     total cpu time spent up to now is      102.1 secs

     total energy              =     -95.87099371 Ry
     estimated scf accuracy    <       0.00285845 Ry

     iteration #  5     ecut=    80.00 Ry     beta= 0.70
     Davidson diagonalization with overlap
     ethr =  7.07E-06,  avg # of iterations =  2.1

     total cpu time spent up to now is      102.9 secs

     total energy              =     -95.87127942 Ry
     estimated scf accuracy    <       0.00010258 Ry

     iteration #  6     ecut=    80.00 Ry     beta= 0.70
     Davidson diagonalization with overlap
     ethr =  2.70E-07,  avg # of iterations =  3.6

     total cpu time spent up to now is      103.9 secs

     total energy              =     -95.87130045 Ry
     estimated scf accuracy    <       0.00001292 Ry

     iteration #  7     ecut=    80.00 Ry     beta= 0.70
     Davidson diagonalization with overlap
     ethr =  3.40E-08,  avg # of iterations =  3.0

     total cpu time spent up to now is      104.7 secs

     total energy              =     -95.87130167 Ry
     estimated scf accuracy    <       0.00000146 Ry

     iteration #  8     ecut=    80.00 Ry     beta= 0.70
     Davidson diagonalization with overlap
     ethr =  3.85E-09,  avg # of iterations =  3.7

     total cpu time spent up to now is      105.6 secs

     total energy              =     -95.87130197 Ry
     estimated scf accuracy    <       0.00000009 Ry

     iteration #  9     ecut=    80.00 Ry     beta= 0.70
     Davidson diagonalization with overlap
     ethr =  2.28E-10,  avg # of iterations =  4.3

     total cpu time spent up to now is      106.5 secs

     total energy              =     -95.87130199 Ry
     estimated scf accuracy    <       0.00000004 Ry

     iteration # 10     ecut=    80.00 Ry     beta= 0.70
     Davidson diagonalization with overlap
     ethr =  1.17E-10,  avg # of iterations =  1.8

     total cpu time spent up to now is      107.3 secs

     End of self-consistent calculation

          k = 0.0000 0.0000 0.0000 (  9117 PWs)   bands (ev):

   -32.3547 -32.2708  -4.1314  -3.5346  -2.5292  -1.2645   0.3552   2.2519
     4.4146   6.8671   7.9523  11.5215  12.3747  16.4573  16.6236  16.6448
    16.6448  17.1516  17.1516  17.2113  18.0053  18.0053  18.1898

          k = 0.0000 0.1156 0.0000 (  9164 PWs)   bands (ev):

   -32.3456 -32.2667  -3.8504  -3.2548  -2.2513  -0.9895   0.6259   2.5171
     4.6670   7.1006   8.1585  11.7155  12.3455  13.1750  13.4548  14.3480
    15.5276  16.7454  16.8686  16.8827  17.3901  18.0567  18.2450

          k = 0.0000 0.2313 0.0000 (  9212 PWs)   bands (ev):

   -32.3215 -32.2572  -3.0102  -2.4179  -1.4202  -0.1673   1.4347   3.3085
     5.4147   7.7565   8.7343   9.1194   9.6832  10.6032  11.7187  12.5434
    13.0070  13.6357  15.1519  16.7732  17.5335  17.5972  18.1063

          k = 0.0000 0.3469 0.0000 (  9282 PWs)   bands (ev):

   -32.2912 -32.2492  -1.6191  -1.0323  -0.0444   1.1930   2.7702   4.6030
     5.6928   6.1916   6.7042   7.2137   8.3671   8.8238   9.8151  10.0695
    11.8571  13.3999  13.6587  14.8342  16.5444  16.8828  18.7905

          k = 0.0000 0.4625 0.0000 (  9270 PWs)   bands (ev):

   -32.2650 -32.2504   0.3090   0.8876   1.8595   2.7480   3.0693   3.3143
     4.3076   4.6303   5.4954   6.3460   7.0845   8.0909   9.0858   9.9660
    11.2744  11.5144  13.7170  14.0396  15.7836  16.6807  18.1943

          k = 0.1156 0.1156 0.0000 (  9190 PWs)   bands (ev):

   -32.3367 -32.2625  -3.5699  -2.9753  -1.9738  -0.7149   0.8961   2.7821
     4.9192   7.3356   8.3679  11.9307  12.4548  12.6104  13.0030  13.9197
    14.6785  14.8174  15.0645  15.6732  16.4699  16.9324  17.2334

          k = 0.1156 0.2313 0.0000 (  9224 PWs)   bands (ev):

   -32.3133 -32.2528  -2.7311  -2.1398  -1.1441   0.1061   1.7037   3.5727
     5.6663   7.9986   8.9570   9.3213   9.8823  10.7996  11.9257  12.7165
    13.1244  13.6095  14.8265  14.9463  15.2973  15.8275  17.0402

          k = 0.1156 0.3469 0.0000 (  9252 PWs)   bands (ev):

   -32.2839 -32.2444  -1.3424  -0.7566   0.2294   1.4643   3.0372   4.8660
     5.9463   6.4436   6.9569   7.4654   8.6175   9.0752  10.0476  10.3002
    12.0836  13.6162  13.8793  14.8076  15.9470  16.1337  16.6736

          k = 0.1156 0.4625 0.0000 (  9254 PWs)   bands (ev):

   -32.2586 -32.2449   0.5818   1.1595   2.1296   3.0148   3.3370   3.5800
     4.5709   4.8925   5.7601   6.6118   7.3400   8.3513   9.3319  10.2284
    11.5236  11.7390  13.9210  14.2490  15.9542  16.6433  17.6547

          k = 0.2313 0.2313 0.0000 (  9238 PWs)   bands (ev):

   -32.2916 -32.2423  -1.8966  -1.3086  -0.3186   0.9233   2.5076   4.3611
     6.4126   8.7021   9.3271   9.6065   9.8740  10.7881  11.2338  11.8348
    11.9347  12.8239  13.3382  13.3423  14.3057  14.5091  15.0878

          k = 0.2313 0.3469 0.0000 (  9261 PWs)   bands (ev):

   -32.2648 -32.2326  -0.5156   0.0671   1.0476   2.2748   3.8343   5.6508
     6.6723   7.1746   7.6920   8.1800   9.3291   9.7936  10.7055  10.9215
    11.8369  12.4195  12.6968  13.3543  14.3290  14.3610  14.9055

          k = 0.2313 0.4625 0.0000 (  9281 PWs)   bands (ev):

   -32.2423 -32.2311   1.3965   1.9712   2.9358   3.8075   4.1359   4.3694
     5.3516   5.6736   6.5440   7.4024   8.0944   9.1239  10.0530  11.0024
    12.2477  12.3536  13.5750  14.1501  14.4483  14.8576  15.0997

          k = 0.3469 0.3469 0.0000 (  9242 PWs)   bands (ev):

   -32.2416 -32.2205   0.8515   1.4291   2.4000   3.6136   5.1485   6.9393
     7.2485   7.7938   8.7045   8.7531   9.1113   9.8499   9.8651  10.6658
    11.2473  11.2522  11.5423  12.3683  13.0016  13.5813  14.6821

          k = 0.3469 0.4625 0.0000 (  9275 PWs)   bands (ev):

   -32.2232 -32.2159   2.7382   3.3076   4.2624   5.0818   5.4493   5.6375
[...]
     c_bands:  2 eigenvalues not converged
     c_bands:  1 eigenvalues not converged
     c_bands:  2 eigenvalues not converged
     c_bands:  1 eigenvalues not converged
     c_bands:  1 eigenvalues not converged
     c_bands:  2 eigenvalues not converged
     c_bands:  1 eigenvalues not converged
     c_bands:  3 eigenvalues not converged
     c_bands:  4 eigenvalues not converged
     ethr =  1.00E-06,  avg # of iterations = 19.7

     total cpu time spent up to now is      372.0 secs

     total energy              =     -88.04717165 Ry
     estimated scf accuracy    <       9.11893603 Ry

     iteration #  2     ecut=    80.00 Ry     beta= 0.70
     Davidson diagonalization with overlap
     ethr =  1.00E-02,  avg # of iterations = 14.7

     total cpu time spent up to now is      374.3 secs

     total energy              =     -62.29723448 Ry
     estimated scf accuracy    <    1103.33792253 Ry

     iteration #  3     ecut=    80.00 Ry     beta= 0.70
     Davidson diagonalization with overlap
     ethr =  1.00E-02,  avg # of iterations =  8.9

     total cpu time spent up to now is      376.1 secs

     total energy              =     -92.08645156 Ry
     estimated scf accuracy    <      67.64271526 Ry

     iteration #  4     ecut=    80.00 Ry     beta= 0.70
     Davidson diagonalization with overlap
     ethr =  1.00E-02,  avg # of iterations =  4.5

     total cpu time spent up to now is      377.0 secs

     total energy              =     -95.62091080 Ry
     estimated scf accuracy    <       9.04058675 Ry

     iteration #  5     ecut=    80.00 Ry     beta= 0.70
     Davidson diagonalization with overlap
     ethr =  1.00E-02,  avg # of iterations =  2.3

     total cpu time spent up to now is      377.7 secs

     total energy              =     -95.76889008 Ry
     estimated scf accuracy    <       2.32207568 Ry

     iteration #  6     ecut=    80.00 Ry     beta= 0.70
     Davidson diagonalization with overlap
     ethr =  6.11E-03,  avg # of iterations =  1.8

     total cpu time spent up to now is      378.4 secs

     total energy              =     -95.82401880 Ry
     estimated scf accuracy    <       0.18243130 Ry

     iteration #  7     ecut=    80.00 Ry     beta= 0.70
     Davidson diagonalization with overlap
     ethr =  4.80E-04,  avg # of iterations =  6.5

     total cpu time spent up to now is      379.3 secs

     total energy              =     -95.87218775 Ry
     estimated scf accuracy    <       0.62972827 Ry

     iteration #  8     ecut=    80.00 Ry     beta= 0.70
     Davidson diagonalization with overlap
     ethr =  4.80E-04,  avg # of iterations =  1.6

     total cpu time spent up to now is      379.9 secs

     total energy              =     -95.87411158 Ry
     estimated scf accuracy    <       0.10584335 Ry

     iteration #  9     ecut=    80.00 Ry     beta= 0.70
     Davidson diagonalization with overlap
     ethr =  2.79E-04,  avg # of iterations =  2.0

     total cpu time spent up to now is      380.5 secs

     total energy              =     -95.87993816 Ry
     estimated scf accuracy    <       0.00028516 Ry

     iteration # 10     ecut=    80.00 Ry     beta= 0.70
     Davidson diagonalization with overlap
     c_bands:  1 eigenvalues not converged
     ethr =  7.50E-07,  avg # of iterations = 11.9

     total cpu time spent up to now is      381.9 secs

     total energy              =     -95.88020395 Ry
     estimated scf accuracy    <       0.02701707 Ry

     iteration # 11     ecut=    80.00 Ry     beta= 0.70
     Davidson diagonalization with overlap
     ethr =  7.50E-07,  avg # of iterations =  4.6

     total cpu time spent up to now is      382.7 secs

     total energy              =     -95.88050029 Ry
     estimated scf accuracy    <       0.00170939 Ry

     iteration # 12     ecut=    80.00 Ry     beta= 0.70
     Davidson diagonalization with overlap
     ethr =  7.50E-07,  avg # of iterations =  3.9

     total cpu time spent up to now is      383.5 secs

     total energy              =     -95.88060501 Ry
     estimated scf accuracy    <       0.00018003 Ry

     iteration # 13     ecut=    80.00 Ry     beta= 0.70
     Davidson diagonalization with overlap
     ethr =  4.74E-07,  avg # of iterations =  1.2

     total cpu time spent up to now is      384.0 secs

     total energy              =     -95.88060621 Ry
     estimated scf accuracy    <       0.00005668 Ry

     iteration # 14     ecut=    80.00 Ry     beta= 0.70
     Davidson diagonalization with overlap
     ethr =  1.49E-07,  avg # of iterations =  1.5

     total cpu time spent up to now is      384.6 secs

     total energy              =     -95.88060625 Ry
     estimated scf accuracy    <       0.00001313 Ry

     iteration # 15     ecut=    80.00 Ry     beta= 0.70
     Davidson diagonalization with overlap
     ethr =  3.46E-08,  avg # of iterations =  2.9

     total cpu time spent up to now is      385.3 secs

     total energy              =     -95.88060704 Ry
     estimated scf accuracy    <       0.00000002 Ry

     iteration # 16     ecut=    80.00 Ry     beta= 0.70
     Davidson diagonalization with overlap
     ethr =  5.73E-11,  avg # of iterations =  7.7

     total cpu time spent up to now is      386.3 secs

     total energy              =     -95.88060717 Ry
     estimated scf accuracy    <       0.00000022 Ry

     iteration # 17     ecut=    80.00 Ry     beta= 0.70
     Davidson diagonalization with overlap
     ethr =  5.73E-11,  avg # of iterations =  1.2

     total cpu time spent up to now is      386.9 secs

     total energy              =     -95.88060717 Ry
     estimated scf accuracy    <       0.00000011 Ry

     iteration # 18     ecut=    80.00 Ry     beta= 0.70
     Davidson diagonalization with overlap
     ethr =  5.73E-11,  avg # of iterations =  3.5

     total cpu time spent up to now is      387.6 secs

     total energy              =     -95.88060717 Ry
     estimated scf accuracy    <          6.4E-09 Ry

     iteration # 19     ecut=    80.00 Ry     beta= 0.70
     Davidson diagonalization with overlap
     ethr =  1.69E-11,  avg # of iterations =  1.1

     total cpu time spent up to now is      388.2 secs

     total energy              =     -95.88060717 Ry
     estimated scf accuracy    <          6.1E-09 Ry

     iteration # 20     ecut=    80.00 Ry     beta= 0.70
     Davidson diagonalization with overlap
     ethr =  1.61E-11,  avg # of iterations =  1.1

     total cpu time spent up to now is      388.8 secs

     total energy              =     -95.88060717 Ry
     estimated scf accuracy    <          1.5E-09 Ry

     iteration # 21     ecut=    80.00 Ry     beta= 0.70
     Davidson diagonalization with overlap
     ethr =  3.87E-12,  avg # of iterations =  2.1

     total cpu time spent up to now is      389.4 secs

     End of self-consistent calculation

          k = 0.0000 0.0000 0.0000 (  8269 PWs)   bands (ev):

   -32.1286 -31.7693  -3.4288  -2.9735  -2.1458  -1.1035   0.1511   1.7052
     3.5383   5.7315   6.9350  10.1612  11.2801  14.6455  15.4405  18.5017
    18.9347  19.3858  19.3858  19.7022  19.7607  19.7607  20.1767

          k = 0.0000 0.1204 0.0000 (  8253 PWs)   bands (ev):

   -32.1080 -31.7701  -3.1238  -2.6696  -1.8438  -0.8041   0.4464   1.9964
     3.8201   6.0025   7.1769  10.4128  11.4449  14.8617  14.9770  15.4180
    15.4626  16.2819  17.0857  18.0415  19.5607  19.6415  20.0168

          k = 0.0000 0.2409 0.0000 (  8217 PWs)   bands (ev):

   -32.0519 -31.7760  -2.2122  -1.7610  -0.9407   0.0908   1.3288   2.8659
     4.6587   6.7999   7.8860  10.6676  11.1530  11.4374  12.0564  12.0647
    13.2036  14.0646  15.4560  16.0055  16.1024  17.3937  19.4322

          k = 0.0000 0.3613 0.0000 (  8233 PWs)   bands (ev):

   -31.9756 -31.7951  -0.7034  -0.2574   0.5537   1.5710   2.7868   4.2982
     6.0198   7.1699   7.6454   8.0780   8.4666   8.8501   9.5677  10.5044
    11.8691  12.3799  13.3383  13.7473  16.1426  16.1552  17.2451

          k = 0.0000 0.4817 0.0000 (  8197 PWs)   bands (ev):

   -31.8980 -31.8352   1.3863   1.8247   2.6215   3.6101   4.0358   4.4323
     4.8359   5.2524   6.2092   6.2618   7.3825   7.8380   8.8976   9.5907
    10.7274  10.8874  12.8593  13.2067  14.9542  15.2496  17.5043

          k = 0.1204 0.1204 0.0000 (  8245 PWs)   bands (ev):

   -32.0881 -31.7704  -2.8194  -2.3662  -1.5422  -0.5052   0.7412   2.2873
     4.1013   6.2742   7.4193  10.6687  11.6264  14.4225  14.8333  15.1199
    15.5581  15.7141  16.5065  16.8248  17.2545  17.4735  18.0659

          k = 0.1204 0.2409 0.0000 (  8226 PWs)   bands (ev):

   -32.0342 -31.7747  -1.9094  -1.4592  -0.6407   0.3884   1.6221   3.1560
     4.9380   7.0737   8.1313  10.9186  11.3874  11.6405  12.2475  12.2651
    13.3609  14.2482  15.6702  16.1302  16.2652  16.8191  17.2685

          k = 0.1204 0.3613 0.0000 (  8213 PWs)   bands (ev):

   -31.9610 -31.7913  -0.4034   0.0417   0.8509   1.8662   3.0772   4.5868
     6.2960   7.4427   7.9173   8.3587   8.7327   9.1160   9.8229  10.7610
    12.1379  12.6470  13.5493  13.9629  16.3200  16.3977  17.4193

          k = 0.1204 0.4817 0.0000 (  8212 PWs)   bands (ev):

   -31.8871 -31.8281   1.6819   2.1195   2.9143   3.9015   4.3239   4.7196
     5.1214   5.5366   6.4959   6.5515   7.6606   8.1149   9.1759   9.8771
    10.9917  11.1411  13.1151  13.4636  15.1754  15.4509  17.7071

          k = 0.2409 0.2409 0.0000 (  8251 PWs)   bands (ev):

   -31.9864 -31.7745  -1.0043  -0.5570   0.2559   1.2778   2.4980   4.0220
     5.7691   7.8821   8.8555  11.0617  11.4722  12.0229  12.1937  12.5747
    13.1477  13.7993  14.1060  14.1553  14.5538  15.6325  15.7273

          k = 0.2409 0.3613 0.0000 (  8227 PWs)   bands (ev):

   -31.9222 -31.7836   0.4929   0.9353   1.7388   2.7481   3.9441   5.4481
     7.1182   8.2231   8.6864   9.1798   9.4808   9.9021  10.5359  11.4667
    12.8918  13.2084  13.8240  14.1969  14.5983  14.7142  15.1156

          k = 0.2409 0.4817 0.0000 (  8192 PWs)   bands (ev):

   -31.8591 -31.8109   2.5640   2.9990   3.7877   4.7706   5.1788   5.5731
     5.9699   6.3787   7.3446   7.4128   8.4808   8.9355   9.9975  10.7276
    11.7701  11.8692  13.8505  14.2004  15.4594  15.7539  16.2377

          k = 0.3613 0.3613 0.0000 (  8191 PWs)   bands (ev):

   -31.8718 -31.7811   1.9739   2.4117   3.2052   4.2039   5.3727   6.8651
     8.4583   8.8251   9.2350   9.9530  10.3589  10.9092  11.1147  11.2697
    11.6477  11.8568  12.3778  13.3567  13.4000  14.3789  14.5869

          k = 0.3613 0.4817 0.0000 (  8164 PWs)   bands (ev):

   -31.8248 -31.7933   4.0146   4.4451   5.2224   6.1982   6.5440   6.9421
     7.3499   7.7183   8.6889   8.8114   9.7605  10.2481  11.2809  11.9106
    12.3860  12.6008  12.9350  13.0424  13.4588  14.3311  14.6095

          k = 0.4817 0.4817 0.0000 (  8120 PWs)   bands (ev):

   -31.7976 -31.7867   5.9700   6.3924   7.1484   7.7093   8.1138   8.1189
     8.8346   9.1603   9.7914   9.9008  10.3381  10.5690  10.7322  11.2888
    11.6177  11.8597  12.0165  12.2045  12.2829  12.8932  13.1454

     the Fermi energy is    14.1802 ev

!    total energy              =     -95.88060717 Ry
     estimated scf accuracy    <          6.4E-12 Ry
     smearing contrib. (-TS)   =      -0.00103167 Ry
     internal energy E=F+TS    =     -95.87957550 Ry

     The total energy is F=E-TS. E is the sum of the following terms:
     one-electron contribution =      34.60835497 Ry
     hartree contribution      =       6.04214623 Ry
     xc contribution           =     -33.84038184 Ry
     ewald contribution        =    -102.68969486 Ry

     convergence has been achieved in  21 iterations

     Forces acting on atoms (cartesian axes, Ry/au):

     atom    1 type  1   force =     0.00000000    0.00000000   -0.00084707
     atom    2 type  1   force =     0.00000000    0.00000000    0.00084707
     atom    3 type  1   force =     0.00000000    0.00000000   -0.00055824
     atom    4 type  1   force =     0.00000000    0.00000000    0.00055824
     atom    5 type  1   force =     0.00000000    0.00000000   -0.00066760
     atom    6 type  1   force =     0.00000000    0.00000000    0.00066760
     atom    7 type  1   force =     0.00000000    0.00000000   -0.00027082
     atom    8 type  1   force =     0.00000000    0.00000000    0.00027082
     atom    9 type  2   force =     0.00000000    0.00000000   -0.00073046
     atom   10 type  2   force =     0.00000000    0.00000000    0.00073046
     The non-local contrib.  to forces
     atom    1 type  1   force =     0.00000000    0.00000000    0.01109575
     atom    2 type  1   force =     0.00000000    0.00000000   -0.01109575
     atom    3 type  1   force =     0.00000000    0.00000000   -0.10133091
     atom    4 type  1   force =     0.00000000    0.00000000    0.10133091
     atom    5 type  1   force =     0.00000000    0.00000000    0.02202582
     atom    6 type  1   force =     0.00000000    0.00000000   -0.02202582
     atom    7 type  1   force =     0.00000000    0.00000000    0.00217063
     atom    8 type  1   force =     0.00000000    0.00000000   -0.00217063
     atom    9 type  2   force =     0.00000000    0.00000000   -0.02972890
     atom   10 type  2   force =     0.00000000    0.00000000    0.02972890
     The ionic contribution  to forces
     atom    1 type  1   force =     0.00000000   -0.00000000   -0.36520027
     atom    2 type  1   force =    -0.00000000    0.00000000    0.36520027
     atom    3 type  1   force =     0.00000000   -0.00000000   -0.65684484
     atom    4 type  1   force =    -0.00000000    0.00000000    0.65684484
     atom    5 type  1   force =     0.00000000   -0.00000000    0.44337704
     atom    6 type  1   force =    -0.00000000    0.00000000   -0.44337704
     atom    7 type  1   force =     0.00000000   -0.00000000    0.12733313
     atom    8 type  1   force =    -0.00000000    0.00000000   -0.12733313
     atom    9 type  2   force =     0.00000000   -0.00000000   -0.00282986
     atom   10 type  2   force =    -0.00000000    0.00000000    0.00282986
     The local contribution  to forces
     atom    1 type  1   force =    -0.00000000    0.00000000    0.35362698
     atom    2 type  1   force =     0.00000000   -0.00000000   -0.35362698
     atom    3 type  1   force =    -0.00000000    0.00000000    0.75299421
     atom    4 type  1   force =     0.00000000    0.00000000   -0.75299421
     atom    5 type  1   force =    -0.00000000    0.00000000   -0.46534438
     atom    6 type  1   force =     0.00000000    0.00000000    0.46534438
     atom    7 type  1   force =    -0.00000000    0.00000000   -0.12963778
     atom    8 type  1   force =     0.00000000   -0.00000000    0.12963778
     atom    9 type  2   force =     0.00000000   -0.00000000    0.03182943
     atom   10 type  2   force =    -0.00000000    0.00000000   -0.03182943
     The core correction contribution to forces
     atom    1 type  1   force =    -0.00000000    0.00000000   -0.00037320
     atom    2 type  1   force =     0.00000000   -0.00000000    0.00037320
     atom    3 type  1   force =    -0.00000000    0.00000000    0.00462094
     atom    4 type  1   force =     0.00000000   -0.00000000   -0.00462094
     atom    5 type  1   force =    -0.00000000    0.00000000   -0.00072437
     atom    6 type  1   force =     0.00000000   -0.00000000    0.00072437
     atom    7 type  1   force =    -0.00000000    0.00000000   -0.00013491
     atom    8 type  1   force =     0.00000000   -0.00000000    0.00013491
     atom    9 type  2   force =     0.00000000    0.00000000    0.00000000
     atom   10 type  2   force =     0.00000000    0.00000000    0.00000000
     The Hubbard contrib.    to forces
     atom    1 type  1   force =     0.00000000    0.00000000    0.00000000
     atom    2 type  1   force =     0.00000000    0.00000000    0.00000000
     atom    3 type  1   force =     0.00000000    0.00000000    0.00000000
     atom    4 type  1   force =     0.00000000    0.00000000    0.00000000
     atom    5 type  1   force =     0.00000000    0.00000000    0.00000000
     atom    6 type  1   force =     0.00000000    0.00000000    0.00000000
     atom    7 type  1   force =     0.00000000    0.00000000    0.00000000
     atom    8 type  1   force =     0.00000000    0.00000000    0.00000000
     atom    9 type  2   force =     0.00000000    0.00000000    0.00000000
     atom   10 type  2   force =     0.00000000    0.00000000    0.00000000
     The SCF correction term to forces
     atom    1 type  1   force =    -0.00000000   -0.00000000    0.00000367
     atom    2 type  1   force =     0.00000000    0.00000000   -0.00000367
     atom    3 type  1   force =    -0.00000000   -0.00000000    0.00000237
     atom    4 type  1   force =    -0.00000000    0.00000000   -0.00000237
     atom    5 type  1   force =     0.00000000    0.00000000   -0.00000172
     atom    6 type  1   force =    -0.00000000    0.00000000    0.00000172
     atom    7 type  1   force =     0.00000000    0.00000000   -0.00000189
     atom    8 type  1   force =     0.00000000   -0.00000000    0.00000189
     atom    9 type  2   force =     0.00000000   -0.00000000   -0.00000113
     atom   10 type  2   force =     0.00000000   -0.00000000    0.00000113

     Total force =     0.002040     Total SCF correction =     0.000007


     Computing stress (Cartesian axis) and pressure

          total   stress  (Ry/bohr**3)                   (kbar)     P=      499.88
   0.00339851   0.00000000   0.00000000          499.94        0.00        0.00
   0.00000000   0.00339851   0.00000000            0.00      499.94        0.00
   0.00000000   0.00000000   0.00339731            0.00        0.00      499.76


     Writing all to output data dir ./output/SiLi.save/

     init_run     :      2.36s CPU      3.08s WALL (       2 calls)
     electrons    :    274.59s CPU    303.63s WALL (      21 calls)
     update_pot   :     14.72s CPU     14.90s WALL (      19 calls)
     forces       :     11.42s CPU     11.62s WALL (      21 calls)
     stress       :     56.20s CPU     58.30s WALL (      21 calls)

     Called by init_run:
     wfcinit      :      0.82s CPU      1.17s WALL (       2 calls)
     potinit      :      0.64s CPU      0.86s WALL (       2 calls)
     hinit0       :      0.79s CPU      0.86s WALL (       2 calls)

     Called by electrons:
     c_bands      :    245.55s CPU    269.63s WALL (     312 calls)
     sum_band     :     24.73s CPU     28.62s WALL (     312 calls)
     v_of_rho     :      3.85s CPU      4.77s WALL (     333 calls)
     mix_rho      :      0.54s CPU      0.62s WALL (     312 calls)

     Called by c_bands:
     init_us_2    :      4.77s CPU      5.57s WALL (   10020 calls)
     init_us_2:cp :      4.75s CPU      5.55s WALL (   10020 calls)
     cegterg      :    222.98s CPU    244.78s WALL (    4680 calls)

     Called by *egterg:
     cdiaghg      :     14.01s CPU     14.33s WALL (   23435 calls)
     h_psi        :    177.35s CPU    198.60s WALL (   23750 calls)
     g_psi        :      0.82s CPU      0.84s WALL (   19040 calls)

     Called by h_psi:
     h_psi:calbec :     28.17s CPU     29.53s WALL (   23750 calls)
     vloc_psi     :    122.56s CPU    141.98s WALL (   23750 calls)
     add_vuspsi   :     25.95s CPU     26.41s WALL (   23750 calls)

     General routines
     calbec       :     32.96s CPU     34.39s WALL (   25325 calls)
     fft          :      2.56s CPU      3.64s WALL (    3853 calls)
     ffts         :      0.12s CPU      0.19s WALL (     312 calls)
     fftw         :    127.57s CPU    147.80s WALL (  725686 calls)

     Parallel routines

     PWSCF        :   5m59.71s CPU   6m32.48s WALL


   This run was terminated on:  21:48:55  29Dec2024            

=------------------------------------------------------------------------------=
   JOB DONE.
=------------------------------------------------------------------------------=
