
     Program PWSCF v.7.2 starts on 21Jan2025 at 23: 4:49 

     This program is part of the open-source Quantum ESPRESSO suite
     for quantum simulation of materials; please cite
         "P. Giannozzi et al., J. Phys.:Condens. Matter 21 395502 (2009);
         "P. Giannozzi et al., J. Phys.:Condens. Matter 29 465901 (2017);
         "P. Giannozzi et al., J. Chem. Phys. 152 154105 (2020);
          URL http://www.quantum-espresso.org", 
     in publications or presentations arising from this work. More details at
     http://www.quantum-espresso.org/quote

     Parallel version (MPI & OpenMP), running on       8 processor cores
     Number of MPI processes:                 8
     Threads/MPI process:                     1

     MPI processes distributed on     1 nodes
     481234 MiB available memory on the printing compute node when the environment starts

     Waiting for input...
     Reading input from standard input

     Current dimensions of program PWSCF are:
     Max number of different atomic species (ntypx) = 10
     Max number of k-points (npk) =  40000
     Max angular momentum in pseudopotentials (lmaxx) =  4

     R & G space division:  proc/nbgrp/npool/nimage =       8
     Subspace diagonalization in iterative solution of the eigenvalue problem:
     a serial algorithm will be used


     Parallelization info
     --------------------
     sticks:   dense  smooth     PW     G-vecs:    dense   smooth      PW
     Min         193     193     66                 2724     2724     554
     Max         194     194     67                 2725     2725     555
     Sum        1551    1551    535                21795    21795    4439

     Using Slab Decomposition



     bravais-lattice index     =            7
     lattice parameter (alat)  =      12.3100  a.u.
     unit-cell volume          =     346.4389 (a.u.)^3
     number of atoms/cell      =            5
     number of atomic types    =            2
     number of electrons       =        19.00
     number of Kohn-Sham states=           14
     kinetic-energy cutoff     =      60.0000  Ry
     charge density cutoff     =     240.0000  Ry
     scf convergence threshold =      1.0E-08
     mixing beta               =       0.8000
     number of iterations used =            8  plain     mixing
     energy convergence thresh.=      5.0E-03
     force convergence thresh. =      1.0E-02
     press convergence thresh. =      2.0E+00
     Exchange-correlation= PBE
                           (   1   4   3   4   0   0   0)
     nstep                     =           50


     celldm(1)=  12.310036  celldm(2)=   0.000000  celldm(3)=   0.371431
     celldm(4)=   0.000000  celldm(5)=   0.000000  celldm(6)=   0.000000

     crystal axes: (cart. coord. in units of alat)
               a(1) = (   0.500000  -0.500000   0.185716 )  
               a(2) = (   0.500000   0.500000   0.185716 )  
               a(3) = (  -0.500000  -0.500000   0.185716 )  

     reciprocal axes: (cart. coord. in units 2 pi/alat)
               b(1) = (  1.000000 -1.000000  0.000000 )  
               b(2) = (  0.000000  1.000000  2.692287 )  
               b(3) = ( -1.000000  0.000000  2.692287 )  


     PseudoPot. # 1 for Si read from file:
     ../pseudo/Si_ONCV_PBE_sr.upf
     MD5 check sum: e543d271109d17c80368dfa7c482276d
     Pseudo is Norm-conserving + core correction, Zval =  4.0
     Generated using ONCVPSP code by D. R. Hamann
     Using radial grid of 1510 points,  6 beta functions with: 
                l(1) =   0
                l(2) =   0
                l(3) =   1
                l(4) =   1
                l(5) =   2
                l(6) =   2

     PseudoPot. # 2 for Li read from file:
     ../pseudo/Li_ONCV_PBE_sr.upf
     MD5 check sum: 50ff420e78310ffa21704f3361e624a4
     Pseudo is Norm-conserving, Zval =  3.0
     Generated using ONCVPSP code by D. R. Hamann
     Using radial grid of 1944 points,  4 beta functions with: 
                l(1) =   0
                l(2) =   0
                l(3) =   1
                l(4) =   1

     atomic species   valence    mass     pseudopotential
        Si             4.00    28.08550     Si( 1.00)
        Li             3.00     6.94100     Li( 1.00)

      8 Sym. Ops., with inversion, found



   Cartesian axes

     site n.     atom                  positions (alat units)
         1           Si  tau(   1) = (   0.0818565   0.2796575   0.1857157  )
         2           Si  tau(   2) = (   0.9181435   0.7203425   0.1857157  )
         3           Si  tau(   3) = (   0.7203425   0.0818565   0.1857157  )
         4           Si  tau(   4) = (   0.2796575   0.9181435   0.1857157  )
         5           Li  tau(   5) = (   0.0000000   0.0000000   0.0000000  )

     number of k points=    92  Marzari-Vanderbilt smearing, width (Ry)=  0.0200
                       cart. coord. in units 2pi/alat
        k(    1) = (   0.0000000   0.0000000   0.0000000), wk =   0.0178571
        k(    2) = (  -0.1428571   0.0000000   0.3846124), wk =   0.0357143
        k(    3) = (  -0.2857143   0.0000000   0.7692248), wk =   0.0357143
        k(    4) = (  -0.4285714   0.0000000   1.1538372), wk =   0.0357143
        k(    5) = (   0.0000000   0.2500000   0.6730717), wk =   0.0714286
        k(    6) = (  -0.1428571   0.2500000   1.0576841), wk =   0.0178571
        k(    7) = (  -0.2857143   0.2500000   1.4422965), wk =   0.0178571
        k(    8) = (  -0.4285714   0.2500000   1.8269089), wk =   0.0178571
        k(    9) = (   0.4285714   0.2500000  -0.4807655), wk =   0.0178571
        k(   10) = (   0.2857143   0.2500000  -0.0961531), wk =   0.0178571
        k(   11) = (   0.1428571   0.2500000   0.2884593), wk =   0.0178571
        k(   12) = (   0.0000000  -0.5000000  -1.3461434), wk =   0.0357143
        k(   13) = (  -0.1428571  -0.5000000  -0.9615310), wk =   0.0178571
        k(   14) = (  -0.2857143  -0.5000000  -0.5769186), wk =   0.0178571
        k(   15) = (  -0.4285714  -0.5000000  -0.1923062), wk =   0.0178571
        k(   16) = (   0.2500000  -0.2500000   0.0000000), wk =   0.0357143
        k(   17) = (   0.1071429  -0.2500000   0.3846124), wk =   0.0178571
        k(   18) = (  -0.0357143  -0.2500000   0.7692248), wk =   0.0178571
        k(   19) = (  -0.1785714  -0.2500000   1.1538372), wk =   0.0178571
        k(   20) = (   0.6785714  -0.2500000  -1.1538372), wk =   0.0178571
        k(   21) = (   0.5357143  -0.2500000  -0.7692248), wk =   0.0178571
        k(   22) = (   0.3928571  -0.2500000  -0.3846124), wk =   0.0178571
        k(   23) = (   0.1071429   0.0000000   1.0576841), wk =   0.0357143
        k(   24) = (  -0.0357143   0.0000000   1.4422965), wk =   0.0357143
        k(   25) = (  -0.1785714   0.0000000   1.8269089), wk =   0.0357143
        k(   26) = (   0.6785714   0.0000000  -0.4807655), wk =   0.0357143
        k(   27) = (   0.5357143   0.0000000  -0.0961531), wk =   0.0357143
        k(   28) = (   0.3928571   0.0000000   0.2884593), wk =   0.0357143
        k(   29) = (   0.2500000  -0.7500000  -1.3461434), wk =   0.0357143
        k(   30) = (   0.1071429  -0.7500000  -0.9615310), wk =   0.0178571
        k(   31) = (  -0.0357143  -0.7500000  -0.5769186), wk =   0.0178571
        k(   32) = (  -0.1785714  -0.7500000  -0.1923062), wk =   0.0178571
        k(   33) = (   0.6785714  -0.7500000  -2.4999806), wk =   0.0178571
        k(   34) = (   0.5357143  -0.7500000  -2.1153682), wk =   0.0178571
        k(   35) = (   0.3928571  -0.7500000  -1.7307558), wk =   0.0178571
        k(   36) = (   0.2500000  -0.5000000  -0.6730717), wk =   0.0357143
        k(   37) = (   0.1071429  -0.5000000  -0.2884593), wk =   0.0178571
        k(   38) = (  -0.0357143  -0.5000000   0.0961531), wk =   0.0178571
        k(   39) = (  -0.1785714  -0.5000000   0.4807655), wk =   0.0178571
        k(   40) = (   0.6785714  -0.5000000  -1.8269089), wk =   0.0178571
        k(   41) = (   0.5357143  -0.5000000  -1.4422965), wk =   0.0178571
        k(   42) = (   0.3928571  -0.5000000  -1.0576841), wk =   0.0178571
        k(   43) = (  -0.5000000   0.5000000   0.0000000), wk =   0.0178571
        k(   44) = (  -0.6428571   0.5000000   0.3846124), wk =   0.0178571
        k(   45) = (  -0.7857143   0.5000000   0.7692248), wk =   0.0178571
        k(   46) = (  -0.9285714   0.5000000   1.1538372), wk =   0.0178571
        k(   47) = (  -0.6428571   0.7500000   1.0576841), wk =   0.0178571
        k(   48) = (  -0.7857143   0.7500000   1.4422965), wk =   0.0178571
        k(   49) = (  -0.9285714   0.7500000   1.8269089), wk =   0.0178571
        k(   50) = (  -0.0714286   0.7500000  -0.4807655), wk =   0.0178571
        k(   51) = (  -0.2142857   0.7500000  -0.0961531), wk =   0.0178571
        k(   52) = (  -0.3571429   0.7500000   0.2884593), wk =   0.0178571
        k(   53) = (  -0.6428571   0.0000000  -0.9615310), wk =   0.0357143
        k(   54) = (  -0.7857143   0.0000000  -0.5769186), wk =   0.0357143
        k(   55) = (  -0.9285714   0.0000000  -0.1923062), wk =   0.0357143
        k(   56) = (   0.2500000  -0.1428571  -1.0576841), wk =   0.0178571
        k(   57) = (   0.2500000  -0.2857143  -1.4422965), wk =   0.0178571
        k(   58) = (   0.2500000  -0.4285714  -1.8269089), wk =   0.0178571
        k(   59) = (   0.2500000   0.4285714   0.4807655), wk =   0.0178571
        k(   60) = (   0.2500000   0.2857143   0.0961531), wk =   0.0178571
        k(   61) = (   0.2500000   0.1428571  -0.2884593), wk =   0.0178571
        k(   62) = (  -0.5000000  -0.1428571   0.9615310), wk =   0.0178571
        k(   63) = (  -0.5000000  -0.2857143   0.5769186), wk =   0.0178571
        k(   64) = (  -0.5000000  -0.4285714   0.1923062), wk =   0.0178571
        k(   65) = (  -0.2500000   0.1071429  -0.3846124), wk =   0.0178571
        k(   66) = (  -0.2500000  -0.0357143  -0.7692248), wk =   0.0178571
        k(   67) = (  -0.2500000  -0.1785714  -1.1538372), wk =   0.0178571
        k(   68) = (  -0.2500000   0.6785714   1.1538372), wk =   0.0178571
        k(   69) = (  -0.2500000   0.5357143   0.7692248), wk =   0.0178571
        k(   70) = (  -0.2500000   0.3928571   0.3846124), wk =   0.0178571
        k(   71) = (  -0.7500000   0.1071429   0.9615310), wk =   0.0178571
        k(   72) = (  -0.7500000  -0.0357143   0.5769186), wk =   0.0178571
        k(   73) = (  -0.7500000  -0.1785714   0.1923062), wk =   0.0178571
        k(   74) = (  -0.7500000   0.6785714   2.4999806), wk =   0.0178571
        k(   75) = (  -0.7500000   0.5357143   2.1153682), wk =   0.0178571
        k(   76) = (  -0.7500000   0.3928571   1.7307558), wk =   0.0178571
        k(   77) = (  -0.5000000   0.2500000   0.6730717), wk =   0.0357143
        k(   78) = (  -0.5000000   0.1071429   0.2884593), wk =   0.0178571
        k(   79) = (  -0.5000000  -0.0357143  -0.0961531), wk =   0.0178571
        k(   80) = (  -0.5000000  -0.1785714  -0.4807655), wk =   0.0178571
        k(   81) = (  -0.5000000   0.6785714   1.8269089), wk =   0.0178571
        k(   82) = (  -0.5000000   0.5357143   1.4422965), wk =   0.0178571
        k(   83) = (  -0.5000000   0.3928571   1.0576841), wk =   0.0178571
        k(   84) = (   0.5000000  -0.6428571  -0.3846124), wk =   0.0178571
        k(   85) = (   0.5000000  -0.7857143  -0.7692248), wk =   0.0178571
        k(   86) = (   0.5000000  -0.9285714  -1.1538372), wk =   0.0178571
        k(   87) = (   0.7500000  -0.6428571  -1.0576841), wk =   0.0178571
        k(   88) = (   0.7500000  -0.7857143  -1.4422965), wk =   0.0178571
        k(   89) = (   0.7500000  -0.9285714  -1.8269089), wk =   0.0178571
        k(   90) = (   0.7500000  -0.0714286   0.4807655), wk =   0.0178571
        k(   91) = (   0.7500000  -0.2142857   0.0961531), wk =   0.0178571
        k(   92) = (   0.7500000  -0.3571429  -0.2884593), wk =   0.0178571

     Dense  grid:    21795 G-vectors     FFT dimensions: (  45,  45,  45)

     Estimated max dynamical RAM per process >      19.49 MB

     Estimated total dynamical RAM >     155.96 MB

     Initial potential from superposition of free atoms

     starting charge      18.9930, renormalised to      19.0000
     Starting wfcs are   18 randomized atomic wfcs

     total cpu time spent up to now is        1.9 secs

     Self-consistent Calculation

     iteration #  1     ecut=    60.00 Ry     beta= 0.80
     Davidson diagonalization with overlap
     ethr =  1.00E-02,  avg # of iterations =  4.5

     Threshold (ethr) on eigenvalues was too large:
     Diagonalizing with lowered threshold

     Davidson diagonalization with overlap
     ethr =  6.44E-04,  avg # of iterations =  3.1

     total cpu time spent up to now is        6.1 secs

     total energy              =     -47.88363362 Ry
     estimated scf accuracy    <       0.12833728 Ry

     iteration #  2     ecut=    60.00 Ry     beta= 0.80
     Davidson diagonalization with overlap
     ethr =  6.75E-04,  avg # of iterations =  3.0

     total cpu time spent up to now is        7.9 secs

     total energy              =     -47.89185245 Ry
     estimated scf accuracy    <       0.26471907 Ry

     iteration #  3     ecut=    60.00 Ry     beta= 0.80
     Davidson diagonalization with overlap
     ethr =  6.75E-04,  avg # of iterations =  2.0

     total cpu time spent up to now is        9.7 secs

     total energy              =     -47.94366640 Ry
     estimated scf accuracy    <       0.00097762 Ry

     iteration #  4     ecut=    60.00 Ry     beta= 0.80
     Davidson diagonalization with overlap
     c_bands:  1 eigenvalues not converged
     ethr =  5.15E-06,  avg # of iterations =  7.8

     total cpu time spent up to now is       12.2 secs

     total energy              =     -47.94426719 Ry
     estimated scf accuracy    <       0.00030049 Ry

     iteration #  5     ecut=    60.00 Ry     beta= 0.80
     Davidson diagonalization with overlap
     c_bands:  1 eigenvalues not converged
     ethr =  1.58E-06,  avg # of iterations =  2.2

     total cpu time spent up to now is       13.6 secs

     total energy              =     -47.94429609 Ry
     estimated scf accuracy    <       0.00002535 Ry

     iteration #  6     ecut=    60.00 Ry     beta= 0.80
     Davidson diagonalization with overlap
     ethr =  1.33E-07,  avg # of iterations =  2.4

     total cpu time spent up to now is       15.2 secs

     total energy              =     -47.94430435 Ry
     estimated scf accuracy    <       0.00000105 Ry

     iteration #  7     ecut=    60.00 Ry     beta= 0.80
     Davidson diagonalization with overlap
     ethr =  5.51E-09,  avg # of iterations =  3.4

     total cpu time spent up to now is       16.8 secs

     total energy              =     -47.94430456 Ry
     estimated scf accuracy    <       0.00000015 Ry

     iteration #  8     ecut=    60.00 Ry     beta= 0.80
     Davidson diagonalization with overlap
     ethr =  7.76E-10,  avg # of iterations =  2.3

     total cpu time spent up to now is       18.4 secs

     End of self-consistent calculation

          k = 0.0000 0.0000 0.0000 (  2713 PWs)   bands (ev):

   -32.3119  -2.5378   3.3650   3.6298   3.6298   6.2136  10.2020  10.2020
    10.2635  12.9784  22.4040  22.4655  22.5436  22.5437

          k =-0.1429 0.0000 0.3846 (  2711 PWs)   bands (ev):

   -32.2950  -1.9881   3.0986   3.9258   4.9944   6.8685   9.3491  10.7216
    11.6721  13.6008  16.8993  17.5220  18.1423  19.9113

          k =-0.2857 0.0000 0.7692 (  2720 PWs)   bands (ev):

   -32.2574  -0.3472   3.8201   4.8805   7.4830   8.5719   9.3084  10.8790
    12.2709  12.7604  13.2441  13.8002  15.7132  17.3511

          k =-0.4286 0.0000 1.1538 (  2708 PWs)   bands (ev):

   -32.2266   2.3546   5.5893   6.0310   6.5353   8.4428   9.2024  10.4935
    11.4085  11.7900  13.3400  15.0392  15.4885  16.2560

          k = 0.0000 0.2500 0.6731 (  2714 PWs)   bands (ev):

   -32.2673  -0.8586   3.5376   4.5752   6.7853   8.1017   9.2496  11.5042
    12.1336  13.4200  13.7322  14.5136  15.5630  17.6097

          k =-0.1429 0.2500 1.0577 (  2708 PWs)   bands (ev):

   -32.2320   1.3733   5.2284   6.9233   7.6072   8.4726   9.0395  10.0579
    10.7656  11.4770  12.3109  13.9771  16.3493  17.7437

          k =-0.2857 0.2500 1.4423 (  2709 PWs)   bands (ev):

   -32.2233   4.0009   4.5135   5.0441   6.9572   7.9415   9.1447  10.8847
    11.9065  13.4290  13.8828  14.0701  14.8839  16.4208

          k =-0.4286 0.2500 1.8269 (  2712 PWs)   bands (ev):

   -32.2478   0.9708   2.5356   5.4670   7.3239   8.6699   9.6670  11.1052
    11.5995  13.3364  14.8242  16.0014  16.3249  16.8691

          k = 0.4286 0.2500-0.4808 (  2727 PWs)   bands (ev):

   -32.2870  -1.1001   1.2565   4.4042   6.4113   7.2497   9.1389  10.4121
    14.4927  15.1659  15.3737  15.8212  18.8012  19.0177

          k = 0.2857 0.2500-0.0962 (  2731 PWs)   bands (ev):

   -32.3112  -2.1075   1.0568   4.0780   5.0739   7.2962   7.8169   9.5122
    13.9639  14.7346  17.6451  20.4038  21.1354  22.3408

          k = 0.1429 0.2500 0.2885 (  2717 PWs)   bands (ev):

   -32.3023  -2.0262   1.9057   3.8871   5.3613   7.3221   8.2414   9.9501
    12.8570  14.6163  17.4406  18.5684  19.5947  20.3881

          k = 0.0000-0.5000-1.3461 (  2720 PWs)   bands (ev):

   -32.2225   3.9275   4.2604   6.5229   7.0108   7.5319   8.4753  10.8745
    11.5155  13.1172  13.7572  14.3961  14.9639  16.5820

          k =-0.1429-0.5000-0.9615 (  2710 PWs)   bands (ev):

   -32.2392   1.2749   3.6690   5.6555   7.7334   8.0755  10.3015  10.3674
    12.0140  12.4970  13.1469  15.2774  15.8654  17.2008

          k =-0.2857-0.5000-0.5769 (  2725 PWs)   bands (ev):

   -32.2775  -0.5611   1.2541   4.6911   6.6418   7.4477   9.6020  11.3408
    12.7964  14.5233  14.9386  17.5645  17.8566  18.8341

          k =-0.4286-0.5000-0.1923 (  2733 PWs)   bands (ev):

   -32.3079  -1.4396  -0.0281   4.6962   5.7233   5.8661   8.1460  11.6618
    12.8872  17.2369  18.1145  18.3961  19.1963  19.7227

          k = 0.2500-0.2500 0.0000 (  2727 PWs)   bands (ev):

   -32.3122  -2.1895   1.1735   4.0303   4.9612   7.4049   7.6937   9.4683
    13.6525  14.6360  17.8753  21.4130  21.9339  22.0515

          k = 0.1071-0.2500 0.3846 (  2714 PWs)   bands (ev):

   -32.2951  -1.8356   2.2670   3.9229   5.6440   7.4614   8.4203  10.2752
    12.8047  14.5526  16.4656  17.2276  18.8161  19.6992

          k =-0.0357-0.2500 0.7692 (  2715 PWs)   bands (ev):

   -32.2573  -0.3991   3.9500   5.0508   7.1748   8.5097   9.5167  11.0433
    11.9613  12.7270  13.3398  13.6878  15.3461  17.2601

          k =-0.1786-0.2500 1.1538 (  2713 PWs)   bands (ev):

   -32.2268   2.0922   5.7023   6.6321   7.3957   7.9942   9.3166   9.7714
    10.8574  11.6606  12.5001  14.1417  16.8119  17.1448

          k = 0.6786-0.2500-1.1538 (  2705 PWs)   bands (ev):

   -32.2266   3.1685   4.1838   5.6204   6.7954   7.7829   9.3198  11.5832
    12.4005  12.8827  13.4703  15.0351  15.4818  16.0477

          k = 0.5357-0.2500-0.7692 (  2711 PWs)   bands (ev):

   -32.2572   0.3569   2.1124   5.1385   7.1145   8.5140  10.2777  10.9737
    11.4590  13.4593  15.0922  15.6147  17.4491  17.7514

          k = 0.3929-0.2500-0.3846 (  2722 PWs)   bands (ev):

   -32.2953  -1.4532   1.1048   4.2653   6.1358   6.8980   8.8844  10.1254
    14.2097  15.3213  16.5705  17.0084  18.3330  20.0112

          k = 0.1071 0.0000 1.0577 (  2705 PWs)   bands (ev):

   -32.2320   1.1654   6.3790   6.9705   7.5017   8.4880   9.0157   9.2825
     9.6571  11.7827  13.1537  13.9606  14.8153  17.0050

          k =-0.0357 0.0000 1.4423 (  2725 PWs)   bands (ev):

   -32.2237   4.1902   5.1084   5.3034   5.4298   7.5208  10.1299  10.5296
    10.6590  13.0186  16.2312  16.6259  16.7138  17.3266

          k =-0.1786 0.0000 1.8269 (  2733 PWs)   bands (ev):

   -32.2483   1.8254   2.7653   3.4399   5.7870   8.2856  12.8417  13.4602
    13.5529  14.5923  14.7766  15.0180  15.7632  16.9237

          k = 0.6786 0.0000-0.4808 (  2722 PWs)   bands (ev):

   -32.2868  -0.4712   1.2822   2.3560   5.0258  10.0283  11.0591  12.2615
    12.9568  13.9474  16.1900  17.2557  17.8653  18.4003

          k = 0.5357 0.0000-0.0962 (  2725 PWs)   bands (ev):

   -32.3110  -1.6932   0.9147   2.1922   5.2238   7.9485   9.2636  11.1546
    12.4104  16.4470  17.3281  19.3500  19.5428  19.9098

          k = 0.3929 0.0000 0.2885 (  2713 PWs)   bands (ev):

   -32.3022  -1.8201   1.6736   2.9329   6.4294   6.8750   8.4787  10.9533
    12.2368  15.9713  16.9814  18.6214  19.3690  19.8664

          k = 0.2500-0.7500-1.3461 (  2714 PWs)   bands (ev):

   -32.2223   3.7050   4.8731   5.7111   6.7156   8.2057   9.3182  10.1389
    11.2107  13.3045  13.4064  14.3065  14.8965  16.7118

          k = 0.1071-0.7500-0.9615 (  2720 PWs)   bands (ev):

   -32.2395   2.0944   3.2387   4.5600   6.5029   7.4264  11.5511  12.1671
    13.6864  13.7722  14.4117  15.2167  15.8942  16.5775

          k =-0.0357-0.7500-0.5769 (  2729 PWs)   bands (ev):

   -32.2776   0.1443   1.4592   2.4284   4.9862  10.7568  11.9801  12.2251
    12.9959  13.8190  16.0416  16.6288  17.0218  17.7576

          k =-0.1786-0.7500-0.1923 (  2728 PWs)   bands (ev):

   -32.3077  -0.9040   0.1717   1.9999   4.3446   9.3532  10.7826  12.2138
    12.8550  15.1896  16.4549  17.5374  17.7588  20.1078

          k = 0.6786-0.7500-2.5000 (  2728 PWs)   bands (ev):

   -32.3077  -1.1414   0.0929   2.7012   4.7662   8.2960   9.7816  11.8201
    13.2225  15.4998  16.8117  18.5226  19.1118  20.2171

          k = 0.5357-0.7500-2.1154 (  2717 PWs)   bands (ev):

   -32.2773  -0.5051   1.2829   4.3066   6.3421   8.0603   9.8344  11.1428
    13.3270  14.2866  15.6823  15.8690  17.9592  19.5248

          k = 0.3929-0.7500-1.7308 (  2709 PWs)   bands (ev):

   -32.2392   1.1128   3.5955   6.6097   8.1102   8.5657   9.1765   9.8487
    11.2022  12.3874  13.1083  14.6931  17.1855  17.4562

          k = 0.2500-0.5000-0.6731 (  2719 PWs)   bands (ev):

   -32.2674  -0.1942   1.7609   4.8315   6.9071   8.1523   9.9246  10.8271
    12.5529  13.4969  15.9272  15.9428  16.7183  18.5560

          k = 0.1071-0.5000-0.2885 (  2728 PWs)   bands (ev):

   -32.3025  -1.5260   1.0679   2.8353   5.6977   7.6798   9.2954  10.6696
    13.3453  15.8824  16.6805  18.1957  19.3672  20.3602

          k =-0.0357-0.5000 0.0962 (  2729 PWs)   bands (ev):

   -32.3111  -1.7941   1.0021   2.3580   5.4714   7.5504   9.0470  10.9858
    12.3537  16.6962  17.2142  19.4498  19.7896  20.3025

          k =-0.1786-0.5000 0.4808 (  2722 PWs)   bands (ev):

   -32.2869  -0.9911   1.2986   3.6880   6.2226   7.6784   9.9637  10.7642
    13.5349  14.3075  16.3699  17.6263  17.7560  18.7892

          k = 0.6786-0.5000-1.8269 (  2720 PWs)   bands (ev):

   -32.2480   0.8580   2.4698   6.2522   7.8557   8.1858   9.6083  10.2614
    11.0253  13.4340  14.6333  15.8917  16.2932  17.1802

          k = 0.5357-0.5000-1.4423 (  2720 PWs)   bands (ev):

   -32.2236   3.6560   4.6435   5.3247   6.2790   9.6176  10.4502  10.8993
    11.3605  11.9749  12.2539  12.7279  15.2534  16.9099

          k = 0.3929-0.5000-1.0577 (  2719 PWs)   bands (ev):

   -32.2323   2.1502   3.4391   7.0631   7.4486   8.6218   9.2508   9.6189
    11.1641  13.3150  14.0792  14.4310  15.0901  16.2800

          k =-0.5000 0.5000 0.0000 (  2742 PWs)   bands (ev):

   -32.3125  -1.5456  -0.1934   4.9159   5.2939   5.7563   7.9636  11.8682
    12.4966  17.9869  17.9931  18.3664  19.8858  21.0600

          k =-0.6429 0.5000 0.3846 (  2724 PWs)   bands (ev):

   -32.2954  -1.1157   0.4608   4.5801   6.0205   6.6830   8.6307  11.3891
    13.7668  15.6917  16.6140  16.8706  19.4979  19.8376

          k =-0.7857 0.5000 0.7692 (  2715 PWs)   bands (ev):

   -32.2573   0.2339   2.3353   5.0356   7.2906   8.6929   9.7661  10.8639
    11.9726  12.8981  15.3797  15.6745  16.5671  17.7849

          k =-0.9286 0.5000 1.1538 (  2711 PWs)   bands (ev):

   -32.2267   2.5584   5.2204   5.8559   6.4090   8.7367   8.9337  10.3987
    11.9727  12.5907  13.6004  14.7796  15.2381  15.8912

          k =-0.6429 0.7500 1.0577 (  2700 PWs)   bands (ev):

   -32.2318   1.6728   4.3257   7.1881   7.4036   8.1375   9.3984  10.3817
    11.2078  11.7592  12.4351  14.3220  16.6399  17.1520

          k =-0.7857 0.7500 1.4423 (  2713 PWs)   bands (ev):

   -32.2234   4.1156   4.4477   5.0669   6.9045   7.7609   9.1153  10.8067
    11.7752  13.7854  14.0594  14.5947  14.7892  16.4807

          k =-0.9286 0.7500 1.8269 (  2725 PWs)   bands (ev):

   -32.2481   1.5220   2.7617   3.8683   6.0873   8.3571  12.2542  12.5321
    13.4552  13.8736  14.6291  15.0534  16.0968  17.2533

          k =-0.0714 0.7500-0.4808 (  2733 PWs)   bands (ev):

   -32.2871  -0.1998   1.0553   2.1891   4.7313  10.6315  11.6942  12.0496
    13.6150  14.1649  15.0384  17.1758  17.5425  18.1361

          k =-0.2143 0.7500-0.0962 (  2725 PWs)   bands (ev):

   -32.3109  -1.0375   0.0271   2.0808   4.3456   9.0524  10.3783  12.0969
    12.9873  15.1240  16.5806  17.9242  18.6308  20.1948

          k =-0.3571 0.7500 0.2885 (  2731 PWs)   bands (ev):

   -32.3025  -1.0701   0.2767   3.0250   5.0571   8.0820   9.8037  11.8009
    13.1637  15.4272  17.1464  18.1867  18.7491  19.2429

          k =-0.6429 0.0000-0.9615 (  2716 PWs)   bands (ev):

   -32.2393   1.6909   3.6563   4.6623   6.9931   7.5673  11.1767  11.8914
    12.2741  13.6507  14.3250  14.8086  15.8990  16.4164

          k =-0.7857 0.0000-0.5769 (  2732 PWs)   bands (ev):

   -32.2776   0.2922   1.4303   2.2411   4.8448  11.0714  12.0785  12.3980
    13.3424  13.8990  15.6228  16.5494  17.0285  17.5790

          k =-0.9286 0.0000-0.1923 (  2730 PWs)   bands (ev):

   -32.3077  -0.0688   0.3011   0.6062   3.7394  12.0883  12.4676  13.1155
    13.2820  13.7981  14.5912  15.1232  16.3699  19.5437

          k = 0.2500-0.1429-1.0577 (  2708 PWs)   bands (ev):

   -32.2320   1.3734   5.2187   7.1045   7.3959   8.3854   9.1128  10.4090
    10.5472  11.4147  12.2110  14.1164  16.1363  17.9905

          k = 0.2500-0.2857-1.4423 (  2709 PWs)   bands (ev):

   -32.2233   4.0019   4.5145   5.0359   7.0274   7.8082   9.2426  10.8943
    11.8498  13.3934  13.7613  14.3129  14.8441  16.3667

          k = 0.2500-0.4286-1.8269 (  2712 PWs)   bands (ev):

   -32.2478   0.9713   2.5329   5.4896   7.3021   8.4950  10.0697  10.9653
    11.4692  13.5419  14.4868  15.7104  16.4403  17.1525

          k = 0.2500 0.4286 0.4808 (  2727 PWs)   bands (ev):

   -32.2870  -1.1000   1.2554   4.4055   6.5783   6.9742   9.2923  10.4773
    14.0040  14.5640  15.9106  17.1002  17.9027  19.0915

          k = 0.2500 0.2857 0.0962 (  2731 PWs)   bands (ev):

   -32.3112  -2.1075   1.0565   4.0756   5.0877   7.2025   7.9119   9.5114
    13.8063  14.9338  17.5567  20.5386  21.0681  22.2469

          k = 0.2500 0.1429-0.2885 (  2717 PWs)   bands (ev):

   -32.3023  -2.0262   1.9064   3.8874   5.3450   7.4160   8.1568   9.9181
    13.0027  14.4755  17.6964  18.1124  19.8733  20.3139

          k =-0.5000-0.1429 0.9615 (  2710 PWs)   bands (ev):

   -32.2392   1.2745   3.6766   5.6139   7.7824   8.1850   9.9166  10.4925
    11.9597  12.5935  13.5488  14.7040  16.6153  16.8072

          k =-0.5000-0.2857 0.5769 (  2725 PWs)   bands (ev):

   -32.2775  -0.5613   1.2552   4.6873   6.5663   7.6259   9.4644  11.1339
    13.3781  14.1550  15.5389  16.1770  18.0838  19.2958

          k =-0.5000-0.4286 0.1923 (  2733 PWs)   bands (ev):

   -32.3079  -1.4397  -0.0279   4.7039   5.6120   5.9836   8.1284  11.6349
    12.9428  17.2061  17.8989  18.4684  19.4061  19.8314

          k =-0.2500 0.1071-0.3846 (  2714 PWs)   bands (ev):

   -32.2951  -1.8356   2.2660   3.9239   5.6589   7.3923   8.4725  10.3343
    12.6485  14.6780  16.3554  17.4530  18.6473  19.9051

          k =-0.2500-0.0357-0.7692 (  2715 PWs)   bands (ev):

   -32.2573  -0.3991   3.9519   5.0450   7.1858   8.5008   9.5500  10.8790
    12.2226  12.7126  13.1718  13.7313  15.3770  17.2198

          k =-0.2500-0.1786-1.1538 (  2713 PWs)   bands (ev):

   -32.2268   2.0921   5.7131   6.6628   7.1604   8.5601   8.8496   9.7757
    10.8758  11.8167  12.4401  14.1165  16.9247  17.0449

          k =-0.2500 0.6786 1.1538 (  2705 PWs)   bands (ev):

   -32.2266   3.1672   4.1888   5.6264   6.7106   7.9516   9.2160  11.3520
    12.8297  12.8914  13.5368  14.4855  15.7194  15.9996

          k =-0.2500 0.5357 0.7692 (  2711 PWs)   bands (ev):

   -32.2572   0.3566   2.1145   5.1236   7.1074   8.7764   9.7237  10.9337
    12.0546  13.0545  15.7029  16.0633  16.2201  18.0039

          k =-0.2500 0.3929 0.3846 (  2722 PWs)   bands (ev):

   -32.2953  -1.4533   1.1057   4.2665   6.0323   7.1057   8.7337  10.1036
    14.8359  15.2408  16.0072  16.4989  18.9861  20.0029

          k =-0.7500 0.1071 0.9615 (  2720 PWs)   bands (ev):

   -32.2395   2.0951   3.2349   4.5677   6.4975   7.4214  11.4719  12.5920
    13.0969  13.7465  14.8124  15.1273  15.6932  16.5118

          k =-0.7500-0.0357 0.5769 (  2729 PWs)   bands (ev):

   -32.2776   0.1442   1.4599   2.4276   4.9862  10.8662  11.7082  12.1426
    13.2525  14.0747  15.4689  16.6685  17.2045  17.8974

          k =-0.7500-0.1786 0.1923 (  2728 PWs)   bands (ev):

   -32.3077  -0.9042   0.1723   1.9992   4.3438   9.4120  10.6736  11.9959
    13.3888  14.8366  16.3587  17.5564  18.0026  20.1026

          k =-0.7500 0.6786 2.5000 (  2728 PWs)   bands (ev):

   -32.3077  -1.1412   0.0923   2.7019   4.7696   8.2469   9.8553  11.9873
    12.8515  15.7409  16.9836  18.4714  18.6680  20.3367

          k =-0.7500 0.5357 2.1154 (  2717 PWs)   bands (ev):

   -32.2773  -0.5048   1.2815   4.3110   6.3734   7.9127   9.9988  11.4218
    12.6664  14.4558  15.0949  17.3841  17.8957  18.9319

          k =-0.7500 0.3929 1.7308 (  2709 PWs)   bands (ev):

   -32.2392   1.1130   3.5917   6.7147   7.7733   8.6365   9.3453  10.0090
    11.0973  12.3649  12.9214  14.9464  16.6147  17.3790

          k =-0.5000 0.2500 0.6731 (  2719 PWs)   bands (ev):

   -32.2674  -0.1940   1.7592   4.8407   6.9558   7.9543  10.1595  11.2652
    11.6909  13.9864  14.9534  16.3643  17.8697  18.2539

          k =-0.5000 0.1071 0.2885 (  2728 PWs)   bands (ev):

   -32.3025  -1.5258   1.0663   2.8374   5.7250   7.5504   9.4475  10.7656
    12.9588  16.0146  17.2721  18.1289  19.1858  19.7173

          k =-0.5000-0.0357-0.0962 (  2729 PWs)   bands (ev):

   -32.3111  -1.7942   1.0029   2.3570   5.4622   7.6048   8.9852  10.9182
    12.5117  16.2232  17.7826  19.2047  19.7755  20.4168

          k =-0.5000-0.1786-0.4808 (  2722 PWs)   bands (ev):

   -32.2869  -0.9913   1.3004   3.6846   6.1792   7.8426   9.7799  10.6260
    14.1564  14.7838  15.4500  16.3485  18.5957  19.4923

          k =-0.5000 0.6786 1.8269 (  2720 PWs)   bands (ev):

   -32.2480   0.8577   2.4714   6.2137   7.8690   8.4855   9.1023  10.3987
    11.1477  13.3040  14.9192  15.8390  16.3443  17.0269

          k =-0.5000 0.5357 1.4423 (  2720 PWs)   bands (ev):

   -32.2236   3.6558   4.6438   5.3255   6.2764   9.6623  10.4000  10.8007
    11.4673  12.0114  12.3072  12.6307  15.2608  16.8996

          k =-0.5000 0.3929 1.0577 (  2719 PWs)   bands (ev):

   -32.2323   2.1505   3.4377   7.0506   7.6134   8.1978   9.6088   9.6635
    11.0483  13.1503  14.0592  14.8009  14.9447  16.2750

          k = 0.5000-0.6429-0.3846 (  2724 PWs)   bands (ev):

   -32.2954  -1.1156   0.4603   4.5762   6.1477   6.5099   8.6956  11.4500
    13.5899  15.3662  16.8870  17.9773  18.3791  19.5093

          k = 0.5000-0.7857-0.7692 (  2715 PWs)   bands (ev):

   -32.2573   0.2342   2.3327   5.0519   7.3090   8.4102  10.4182  10.9998
    11.1735  13.2841  14.9919  15.3627  17.2420  18.0027

          k = 0.5000-0.9286-1.1538 (  2711 PWs)   bands (ev):

   -32.2267   2.5588   5.2011   5.8331   6.5395   8.1934   9.4746  10.4798
    11.8220  12.4510  13.6746  14.4819  15.7443  16.1679

          k = 0.7500-0.6429-1.0577 (  2700 PWs)   bands (ev):

   -32.2318   1.6727   4.3309   7.0567   7.3835   8.7140   9.0399   9.9382
    11.6172  11.9368  12.3090  14.2129  16.5190  17.5530

          k = 0.7500-0.7857-1.4423 (  2713 PWs)   bands (ev):

   -32.2234   4.1148   4.4462   5.0756   6.8472   7.8709   9.0330  10.8050
    11.8136  13.8482  14.0543  14.4749  14.8076  16.5386

          k = 0.7500-0.9286-1.8269 (  2725 PWs)   bands (ev):

   -32.2481   1.5216   2.7642   3.8643   6.0896   8.3633  12.0932  12.7489
    13.2968  13.8715  14.7289  15.2998  16.0856  16.8975

          k = 0.7500-0.0714 0.4808 (  2733 PWs)   bands (ev):

   -32.2871  -0.1996   1.0544   2.1902   4.7316  10.4993  11.9187  12.4643
    13.0126  13.6597  16.2130  16.8305  17.3456  17.9749

          k = 0.7500-0.2143 0.0962 (  2725 PWs)   bands (ev):

   -32.3109  -1.0374   0.0268   2.0811   4.3462   9.0238  10.4281  12.3069
    12.6368  15.3521  16.5202  17.8439  18.6211  20.2026

          k = 0.7500-0.3571-0.2885 (  2731 PWs)   bands (ev):

   -32.3025  -1.0703   0.2775   3.0240   5.0503   8.1524   9.7039  11.6517
    13.5853  15.5486  16.1991  18.5939  18.8210  19.7159

     the Fermi energy is    13.5351 ev

!    total energy              =     -47.94430460 Ry
     estimated scf accuracy    <          3.5E-10 Ry
     smearing contrib. (-TS)   =      -0.00049102 Ry
     internal energy E=F+TS    =     -47.94381358 Ry

     The total energy is F=E-TS. E is the sum of the following terms:
     one-electron contribution =      16.71046391 Ry
     hartree contribution      =       3.11001029 Ry
     xc contribution           =     -16.80342477 Ry
     ewald contribution        =     -50.96086301 Ry

     convergence has been achieved in   8 iterations

     Forces acting on atoms (cartesian axes, Ry/au):

     atom    1 type  1   force =     0.00737355    0.02404379   -0.00000000
     atom    2 type  1   force =    -0.00737355   -0.02404379    0.00000000
     atom    3 type  1   force =    -0.02404379    0.00737355   -0.00000000
     atom    4 type  1   force =     0.02404379   -0.00737355   -0.00000000
     atom    5 type  2   force =     0.00000000    0.00000000    0.00000000
     The non-local contrib.  to forces
     atom    1 type  1   force =     0.02314795    0.05422713   -0.00000000
     atom    2 type  1   force =    -0.02314795   -0.05422713   -0.00000000
     atom    3 type  1   force =    -0.05422713    0.02314795   -0.00000000
     atom    4 type  1   force =     0.05422713   -0.02314795   -0.00000000
     atom    5 type  2   force =    -0.00000000    0.00000000    0.00000000
     The ionic contribution  to forces
     atom    1 type  1   force =     0.02863985    0.31691460    0.00000000
     atom    2 type  1   force =    -0.02863985   -0.31691460   -0.00000000
     atom    3 type  1   force =    -0.31691460    0.02863985    0.00000000
     atom    4 type  1   force =     0.31691460   -0.02863985    0.00000000
     atom    5 type  2   force =    -0.00000000   -0.00000000    0.00000000
     The local contribution  to forces
     atom    1 type  1   force =    -0.04320907   -0.34490029   -0.00000000
     atom    2 type  1   force =     0.04320907    0.34490029    0.00000000
     atom    3 type  1   force =     0.34490029   -0.04320907   -0.00000000
     atom    4 type  1   force =    -0.34490029    0.04320907    0.00000000
     atom    5 type  2   force =    -0.00000000    0.00000000    0.00000000
     The core correction contribution to forces
     atom    1 type  1   force =    -0.00120292   -0.00221370    0.00000000
     atom    2 type  1   force =     0.00120292    0.00221370    0.00000000
     atom    3 type  1   force =     0.00221370   -0.00120292   -0.00000000
     atom    4 type  1   force =    -0.00221370    0.00120292    0.00000000
     atom    5 type  2   force =     0.00000000    0.00000000    0.00000000
     The Hubbard contrib.    to forces
     atom    1 type  1   force =     0.00000000    0.00000000    0.00000000
     atom    2 type  1   force =     0.00000000    0.00000000    0.00000000
     atom    3 type  1   force =     0.00000000    0.00000000    0.00000000
     atom    4 type  1   force =     0.00000000    0.00000000    0.00000000
     atom    5 type  2   force =     0.00000000    0.00000000    0.00000000
     The SCF correction term to forces
     atom    1 type  1   force =    -0.00000225    0.00001605   -0.00000000
     atom    2 type  1   force =     0.00000225   -0.00001605    0.00000000
     atom    3 type  1   force =    -0.00001605   -0.00000225    0.00000000
     atom    4 type  1   force =     0.00001605    0.00000225   -0.00000000
     atom    5 type  2   force =    -0.00000000   -0.00000000    0.00000000

     Total force =     0.050298     Total SCF correction =     0.000032


     Computing stress (Cartesian axis) and pressure

          total   stress  (Ry/bohr**3)                   (kbar)     P=      479.14
   0.00321341  -0.00000000   0.00000000          472.71       -0.00        0.00
   0.00000000   0.00321341   0.00000000            0.00      472.71        0.00
   0.00000000   0.00000000   0.00334453            0.00        0.00      492.00


     BFGS Geometry Optimization
     Energy error            =      0.0E+00 Ry
     Gradient error          =      2.4E-02 Ry/Bohr
     Cell gradient error     =      2.7E+01 kbar

     number of scf cycles    =   1
     number of bfgs steps    =   0

     enthalpy           new  =     -46.7667828215 Ry

     new trust radius        =       0.0251490164 bohr
ibrav =      7
 celldm(1) =     12.25294235
 celldm(3) =      0.37265461
Input lattice vectors:
     0.49768103    -0.49768103     0.18546313
     0.49768103     0.49768103     0.18546313
    -0.49768103    -0.49768103     0.18546313
New lattice vectors in INITIAL alat:
     0.49768103    -0.49768103     0.18546313
     0.49768103     0.49768103     0.18546313
    -0.49768103    -0.49768103     0.18546313
New lattice vectors in NEW alat (for information only):
     0.50000000    -0.50000000     0.18632730
     0.50000000     0.50000000     0.18632730
    -0.50000000    -0.50000000     0.18632730
Discrepancy in bohr =     0.000000    0.000000    0.000000
     new conv_thr            =       0.0000000100 Ry

     new unit-cell volume =    342.76595 a.u.^3 (    50.79267 Ang^3 )
     density =      3.89966 g/cm^3

CELL_PARAMETERS (alat= 12.31003565)
   0.497681026  -0.497681026   0.185463127
   0.497681026   0.497681026   0.185463127
  -0.497681026  -0.497681026   0.185463127

ATOMIC_POSITIONS (crystal)
Si           -0.1991551988        0.7816106859        0.4175445129
Si            0.1991551988        1.2183893141       -0.4175445129
Si            0.6359338270        0.5824554871       -0.2183893141
Si           -0.6359338270        1.4175445129        0.2183893141
Li            0.0000000000        0.0000000000        0.0000000000



     Writing config-only to output data dir ./output/SiLi.save/
     NEW-OLD atomic charge density approx. for the potential
     extrapolated charge   18.79648, renormalised to   19.00000

     total cpu time spent up to now is       20.4 secs

     Self-consistent Calculation

     iteration #  1     ecut=    60.00 Ry     beta= 0.80
     Davidson diagonalization with overlap
     c_bands:  1 eigenvalues not converged
     ethr =  1.00E-06,  avg # of iterations =  7.5

     total cpu time spent up to now is       23.5 secs

     total energy              =     -47.93412092 Ry
     estimated scf accuracy    <       0.00028716 Ry

     iteration #  2     ecut=    60.00 Ry     beta= 0.80
     Davidson diagonalization with overlap
     ethr =  1.51E-06,  avg # of iterations =  2.2

     total cpu time spent up to now is       25.2 secs

     total energy              =     -47.93420672 Ry
     estimated scf accuracy    <       0.00031308 Ry

     iteration #  3     ecut=    60.00 Ry     beta= 0.80
     Davidson diagonalization with overlap
     ethr =  1.51E-06,  avg # of iterations =  2.0

     total cpu time spent up to now is       26.8 secs

     total energy              =     -47.93428212 Ry
     estimated scf accuracy    <       0.00002286 Ry

     iteration #  4     ecut=    60.00 Ry     beta= 0.80
     Davidson diagonalization with overlap
     ethr =  1.20E-07,  avg # of iterations =  1.1

     total cpu time spent up to now is       28.1 secs

     total energy              =     -47.93428165 Ry
     estimated scf accuracy    <       0.00000509 Ry

     iteration #  5     ecut=    60.00 Ry     beta= 0.80
     Davidson diagonalization with overlap
     ethr =  2.68E-08,  avg # of iterations =  1.9

     total cpu time spent up to now is       29.6 secs

     total energy              =     -47.93428209 Ry
     estimated scf accuracy    <       0.00000045 Ry

     iteration #  6     ecut=    60.00 Ry     beta= 0.80
     Davidson diagonalization with overlap
     ethr =  2.36E-09,  avg # of iterations =  2.3

     total cpu time spent up to now is       31.2 secs

     total energy              =     -47.93428223 Ry
     estimated scf accuracy    <       0.00000005 Ry

     iteration #  7     ecut=    60.00 Ry     beta= 0.80
     Davidson diagonalization with overlap
     ethr =  2.89E-10,  avg # of iterations =  2.0

     total cpu time spent up to now is       32.6 secs

     End of self-consistent calculation

          k = 0.0000 0.0000 0.0000 (  2713 PWs)   bands (ev):

   -32.1499  -2.5127   3.4750   3.7489   3.7489   6.2652  10.4042  10.4042
    10.4457  13.2181  22.4153  22.4527  22.6815  22.6815

          k =-0.1435 0.0000 0.3851 (  2711 PWs)   bands (ev):

   -32.1329  -1.9614   3.2067   4.0359   5.1165   6.9338   9.5360  10.9241
    11.8707  13.8258  16.9839  17.6648  18.2198  20.1755

          k =-0.2870 0.0000 0.7703 (  2720 PWs)   bands (ev):

   -32.0949  -0.3152   3.9246   4.9762   7.6054   8.6757   9.4814  10.9557
    12.4409  12.9064  13.4187  13.9282  15.9211  17.6107

          k =-0.4306 0.0000 1.1554 (  2708 PWs)   bands (ev):

   -32.0638   2.3954   5.6880   6.0897   6.6135   8.5623   9.3081  10.6274
    11.5697  11.9548  13.4898  15.2411  15.7002  16.4235

          k =-0.0000 0.2512 0.6740 (  2714 PWs)   bands (ev):

   -32.1048  -0.8283   3.6429   4.6740   6.9100   8.1922   9.4285  11.6523
    12.2973  13.5749  13.8663  14.6430  15.7385  17.8727

          k =-0.1435 0.2512 1.0591 (  2708 PWs)   bands (ev):

   -32.0693   1.4111   5.3298   7.0168   7.6587   8.6017   9.1532  10.1596
    10.9047  11.6226  12.4941  14.1966  16.5786  17.9765

          k =-0.2870 0.2512 1.4443 (  2709 PWs)   bands (ev):

   -32.0605   4.0261   4.5851   5.1287   7.0289   8.0529   9.3171  11.0191
    12.0182  13.5610  14.0602  14.2782  15.0485  16.6415

          k =-0.4306 0.2512 1.8294 (  2712 PWs)   bands (ev):

   -32.0852   0.9971   2.6336   5.5371   7.5069   8.7244   9.7978  11.2423
    11.7572  13.5142  14.9591  16.2032  16.5431  16.9950

          k = 0.4306 0.2512-0.4814 (  2727 PWs)   bands (ev):

   -32.1248  -1.0749   1.3490   4.4939   6.5158   7.4271   9.3068  10.5830
    14.5764  15.3445  15.5776  15.9965  18.9622  19.2589

          k = 0.2870 0.2512-0.0963 (  2731 PWs)   bands (ev):

   -32.1492  -2.0829   1.1498   4.1942   5.1525   7.4747   7.9482   9.7132
    14.1703  14.9716  17.8615  20.5021  21.3036  22.5931

          k = 0.1435 0.2512 0.2889 (  2717 PWs)   bands (ev):

   -32.1402  -2.0001   2.0038   3.9933   5.4697   7.4217   8.4176  10.1588
    13.0612  14.8483  17.5437  18.7073  19.8078  20.5127

          k = 0.0000-0.5023-1.3480 (  2720 PWs)   bands (ev):

   -32.0596   3.9851   4.2928   6.6073   7.1031   7.6614   8.5625  11.0215
    11.7055  13.2667  13.9589  14.5549  15.0468  16.8212

          k =-0.1435-0.5023-0.9628 (  2710 PWs)   bands (ev):

   -32.0765   1.3091   3.7654   5.7361   7.7956   8.2368  10.4133  10.4910
    12.1674  12.6916  13.2697  15.4623  16.0754  17.3998

          k =-0.2870-0.5023-0.5777 (  2725 PWs)   bands (ev):

   -32.1152  -0.5380   1.3487   4.7670   6.8288   7.5365   9.8162  11.4947
    12.8674  14.7061  15.0816  17.7325  18.1298  19.0175

          k =-0.4306-0.5023-0.1926 (  2733 PWs)   bands (ev):

   -32.1458  -1.4260   0.0694   4.7734   5.7941   6.0572   8.3711  11.8380
    13.0509  17.4348  18.3475  18.5898  19.3951  19.9123

          k = 0.2512-0.2512-0.0000 (  2727 PWs)   bands (ev):

   -32.1502  -2.1648   1.2674   4.1485   5.0429   7.5545   7.8432   9.6728
    13.8583  14.8754  18.0972  21.4738  22.0956  22.2488

          k = 0.1076-0.2512 0.3851 (  2714 PWs)   bands (ev):

   -32.1330  -1.8088   2.3668   4.0278   5.7533   7.5675   8.5877  10.4828
    13.0130  14.7716  16.5443  17.3765  18.9112  19.9679

          k =-0.0359-0.2512 0.7703 (  2715 PWs)   bands (ev):

   -32.0948  -0.3672   4.0550   5.1508   7.2966   8.6034   9.6917  11.1181
    12.1463  12.8670  13.4726  13.8521  15.5509  17.5227

          k =-0.1794-0.2512 1.1554 (  2713 PWs)   bands (ev):

   -32.0640   2.1326   5.8024   6.6681   7.4884   8.1251   9.4283   9.8719
    11.0317  11.7862  12.6919  14.3502  17.0408  17.3062

          k = 0.6817-0.2512-1.1554 (  2705 PWs)   bands (ev):

   -32.0638   3.1937   4.2929   5.6682   6.8507   7.9370   9.4719  11.7034
    12.5186  13.0476  13.6359  15.2430  15.6648  16.2250

          k = 0.5382-0.2512-0.7703 (  2711 PWs)   bands (ev):

   -32.0947   0.3830   2.2084   5.2109   7.3003   8.6061  10.3851  11.1500
    11.5845  13.6247  15.2683  15.7450  17.6278  18.0022

          k = 0.3947-0.2512-0.3851 (  2722 PWs)   bands (ev):

   -32.1332  -1.4283   1.1971   4.3574   6.2427   7.0543   9.0683  10.3014
    14.4026  15.4334  16.8012  17.1454  18.5662  20.1225

          k = 0.1076 0.0000 1.0591 (  2705 PWs)   bands (ev):

   -32.0693   1.2033   6.4834   7.0757   7.5854   8.6125   9.0771   9.4142
     9.7551  11.9195  13.3568  14.1798  15.0341  17.2469

          k =-0.0359 0.0000 1.4443 (  2725 PWs)   bands (ev):

   -32.0609   4.2438   5.1247   5.3981   5.4860   7.7115  10.2579  10.6715
    10.7988  13.1016  16.4549  16.8402  16.9392  17.4957

          k =-0.1794 0.0000 1.8294 (  2733 PWs)   bands (ev):

   -32.0857   1.8556   2.8588   3.4816   5.9887   8.3365  12.9724  13.5862
    13.7064  14.7633  14.9903  15.2382  15.9066  17.0864

          k = 0.6817-0.0000-0.4814 (  2722 PWs)   bands (ev):

   -32.1245  -0.4433   1.3747   2.4044   5.2150  10.1731  11.1788  12.4609
    13.1425  14.0946  16.3789  17.4498  18.0312  18.6135

          k = 0.5382-0.0000-0.0963 (  2725 PWs)   bands (ev):

   -32.1490  -1.6673   1.0090   2.2547   5.3997   8.0964   9.3716  11.3699
    12.6379  16.6469  17.5418  19.5657  19.7193  20.1570

          k = 0.3947-0.0000 0.2889 (  2713 PWs)   bands (ev):

   -32.1401  -1.7936   1.7724   3.0135   6.5702   7.0304   8.5919  11.1617
    12.4537  16.1938  17.0787  18.8055  19.6104  20.0214

          k = 0.2512-0.7535-1.3480 (  2714 PWs)   bands (ev):

   -32.0595   3.7533   4.8982   5.8194   6.8063   8.2895   9.4837  10.2831
    11.3261  13.4634  13.5735  14.5153  15.0329  16.9774

          k = 0.1076-0.7535-0.9628 (  2720 PWs)   bands (ev):

   -32.0768   2.1241   3.3341   4.6116   6.6940   7.4796  11.6722  12.2974
    13.8323  13.9404  14.6177  15.3881  16.0729  16.7228

          k =-0.0359-0.7535-0.5777 (  2729 PWs)   bands (ev):

   -32.1152   0.1721   1.5509   2.4721   5.1810  10.8705  12.1311  12.3138
    13.2287  14.0264  16.2108  16.8315  17.1946  18.0094

          k =-0.1794-0.7535-0.1926 (  2728 PWs)   bands (ev):

   -32.1456  -0.8859   0.2641   2.0467   4.5396   9.4647  11.0166  12.3854
    13.0267  15.3972  16.6905  17.7037  17.9460  20.3549

          k = 0.6817-0.7535-2.5034 (  2728 PWs)   bands (ev):

   -32.1456  -1.1251   0.1874   2.7549   4.9585   8.4001  10.0041  11.9933
    13.3961  15.7287  16.9866  18.7136  19.3178  20.4008

          k = 0.5382-0.7535-2.1182 (  2717 PWs)   bands (ev):

   -32.1150  -0.4814   1.3768   4.3792   6.5154   8.1774  10.0323  11.2757
    13.4244  14.4386  15.8725  16.0855  18.1040  19.7811

          k = 0.3947-0.7535-1.7331 (  2709 PWs)   bands (ev):

   -32.0765   1.1461   3.6926   6.7038   8.1574   8.6699   9.3549   9.9812
    11.3503  12.5568  13.2270  14.9087  17.3150  17.6826

          k = 0.2512-0.5023-0.6740 (  2719 PWs)   bands (ev):

   -32.1050  -0.1683   1.8552   4.9104   7.0685   8.2773  10.1127  10.9333
    12.6652  13.6445  16.1105  16.1779  16.8474  18.7934

          k = 0.1076-0.5023-0.2889 (  2728 PWs)   bands (ev):

   -32.1404  -1.5001   1.1602   2.9074   5.8644   7.8285   9.4030  10.8865
    13.5735  16.0753  16.7755  18.3927  19.6297  20.5996

          k =-0.0359-0.5023 0.0963 (  2729 PWs)   bands (ev):

   -32.1491  -1.7683   1.0968   2.4252   5.6445   7.6894   9.1624  11.1996
    12.5753  16.9058  17.4326  19.6847  19.9133  20.5715

          k =-0.1794-0.5023 0.4814 (  2722 PWs)   bands (ev):

   -32.1246  -0.9651   1.3909   3.7622   6.4032   7.7856  10.1364  10.9518
    13.6583  14.4639  16.5094  17.8315  18.0054  18.9384

          k = 0.6817-0.5023-1.8294 (  2720 PWs)   bands (ev):

   -32.0854   0.8832   2.5691   6.3293   8.0320   8.2682   9.6937  10.4234
    11.1798  13.6158  14.7587  16.0550  16.4687  17.3635

          k = 0.5382-0.5023-1.4443 (  2720 PWs)   bands (ev):

   -32.0607   3.6783   4.7649   5.3490   6.3858   9.7204  10.5205  11.1023
    11.5410  12.0817  12.3760  12.9316  15.5075  17.1191

          k = 0.3947-0.5023-1.0591 (  2719 PWs)   bands (ev):

   -32.0695   2.1740   3.5463   7.0948   7.5436   8.7407   9.3724   9.7856
    11.3500  13.4190  14.2485  14.6358  15.2247  16.5051

          k =-0.5023 0.5023 0.0000 (  2742 PWs)   bands (ev):

   -32.1504  -1.5337  -0.0951   5.0056   5.3448   5.9538   8.1890  12.0600
    12.6457  18.2362  18.2579  18.5744  20.1687  21.1194

          k =-0.6459 0.5023 0.3851 (  2724 PWs)   bands (ev):

   -32.1332  -1.0979   0.5564   4.6584   6.1574   6.8164   8.8454  11.5521
    13.9400  15.7730  16.8164  17.0589  19.7639  20.1313

          k =-0.7894 0.5023 0.7703 (  2715 PWs)   bands (ev):

   -32.0948   0.2625   2.4299   5.1151   7.4560   8.8106   9.8807  11.0077
    12.0959  13.0642  15.4976  15.8946  16.7801  18.0050

          k =-0.9329 0.5023 1.1554 (  2711 PWs)   bands (ev):

   -32.0639   2.5986   5.3180   5.9137   6.4820   8.8750   9.0472  10.5230
    12.1233  12.7718  13.7433  15.0025  15.4025  16.0441

          k =-0.6459 0.7535 1.0591 (  2700 PWs)   bands (ev):

   -32.0691   1.7090   4.4242   7.2321   7.4955   8.2613   9.5127  10.5413
    11.3439  11.9121  12.6004  14.5203  16.7975  17.3644

          k =-0.7894 0.7535 1.4443 (  2713 PWs)   bands (ev):

   -32.0606   4.1417   4.5120   5.1575   6.9596   7.9000   9.2773  10.9455
    11.8858  13.9303  14.2389  14.7385  14.9940  16.7244

          k =-0.9329 0.7535 1.8294 (  2725 PWs)   bands (ev):

   -32.0855   1.5521   2.8553   3.9171   6.2847   8.4090  12.3898  12.6463
    13.6332  14.0782  14.7701  15.2703  16.2477  17.4183

          k =-0.0718 0.7535-0.4814 (  2733 PWs)   bands (ev):

   -32.1248  -0.1739   1.1458   2.2338   4.9256  10.7663  11.8195  12.2532
    13.7426  14.3974  15.2118  17.3596  17.8160  18.2661

          k =-0.2153 0.7535-0.0963 (  2725 PWs)   bands (ev):

   -32.1488  -1.0212   0.1208   2.1287   4.5402   9.1608  10.6074  12.2749
    13.1560  15.3501  16.8267  18.0885  18.8407  20.3707

          k =-0.3588 0.7535 0.2889 (  2731 PWs)   bands (ev):

   -32.1404  -1.0524   0.3710   3.0813   5.2500   8.1808  10.0318  11.9701
    13.3332  15.5836  17.3457  18.4300  18.9521  19.4134

          k =-0.6459 0.0000-0.9628 (  2716 PWs)   bands (ev):

   -32.0767   1.7258   3.7529   4.7232   7.1635   7.6299  11.2927  12.0252
    12.4231  13.7780  14.5416  15.0348  16.0352  16.5926

          k =-0.7894 0.0000-0.5777 (  2732 PWs)   bands (ev):

   -32.1152   0.3200   1.5219   2.2817   5.0415  11.1711  12.2296  12.5056
    13.5676  14.1216  15.7977  16.7429  17.2399  17.7750

          k =-0.9329 0.0000-0.1926 (  2730 PWs)   bands (ev):

   -32.1456  -0.0487   0.3898   0.6443   3.9379  12.2339  12.5979  13.3287
    13.5156  14.0253  14.8085  15.3039  16.5244  19.7645

          k = 0.2512-0.1435-1.0591 (  2708 PWs)   bands (ev):

   -32.0693   1.4112   5.3199   7.2068   7.4492   8.4980   9.2298  10.5063
    10.6777  11.5830  12.3909  14.3280  16.3672  18.2373

          k = 0.2512-0.2870-1.4443 (  2709 PWs)   bands (ev):

   -32.0605   4.0269   4.5865   5.1201   7.0958   7.9251   9.4147  11.0309
    11.9547  13.5314  13.9588  14.4922  15.0117  16.6049

          k = 0.2512-0.4306-1.8294 (  2712 PWs)   bands (ev):

   -32.0852   0.9975   2.6310   5.5579   7.4902   8.5603  10.1625  11.1050
    11.6611  13.7208  14.6198  15.8788  16.5784  17.3921

          k = 0.2512 0.4306 0.4814 (  2727 PWs)   bands (ev):

   -32.1248  -1.0748   1.3481   4.4919   6.7153   7.1068   9.4865  10.6447
    14.1012  14.7415  16.0467  17.3383  18.1388  19.2149

          k = 0.2512 0.2870 0.0963 (  2731 PWs)   bands (ev):

   -32.1492  -2.0829   1.1496   4.1894   5.1714   7.3582   8.0661   9.7102
    14.0099  15.1759  17.7684  20.6274  21.2417  22.5225

          k = 0.2512 0.1435-0.2889 (  2717 PWs)   bands (ev):

   -32.1402  -2.0002   2.0043   3.9959   5.4465   7.5294   8.3202  10.1287
    13.2133  14.7014  17.7733  18.2814  20.1177  20.4214

          k =-0.5023-0.1435 0.9628 (  2710 PWs)   bands (ev):

   -32.0765   1.3087   3.7730   5.6954   7.8472   8.3391  10.0484  10.6137
    12.0958  12.7392  13.7275  14.9118  16.8376  16.9461

          k =-0.5023-0.2870 0.5777 (  2725 PWs)   bands (ev):

   -32.1152  -0.5381   1.3497   4.7658   6.7225   7.7517   9.6654  11.2706
    13.4617  14.3114  15.7177  16.4074  18.2220  19.5560

          k =-0.5023-0.4306 0.1926 (  2733 PWs)   bands (ev):

   -32.1458  -1.4260   0.0695   4.7835   5.6975   6.1591   8.3513  11.8102
    13.1085  17.4455  18.0347  18.6924  19.6403  20.0142

          k =-0.2512 0.1076-0.3851 (  2714 PWs)   bands (ev):

   -32.1330  -1.8088   2.3661   4.0269   5.7749   7.4863   8.6498  10.5421
    12.8486  14.9037  16.4428  17.5931  18.7612  20.1317

          k =-0.2512-0.0359-0.7703 (  2715 PWs)   bands (ev):

   -32.0948  -0.3672   4.0569   5.1454   7.3063   8.5968   9.7264  10.9694
    12.3587  12.8674  13.3621  13.8523  15.5834  17.4815

          k =-0.2512-0.1794-1.1554 (  2713 PWs)   bands (ev):

   -32.0640   2.1325   5.8132   6.6942   7.2650   8.6862   8.9704   9.8612
    11.0482  11.9513  12.6230  14.3365  17.0627  17.2879

          k =-0.2512 0.6817 1.1554 (  2705 PWs)   bands (ev):

   -32.0638   3.1926   4.2977   5.6746   6.7714   8.1019   9.3654  11.4697
    12.9694  13.0124  13.7385  14.6755  15.8846  16.1872

          k =-0.2512 0.5382 0.7703 (  2711 PWs)   bands (ev):

   -32.0947   0.3827   2.2104   5.1979   7.2824   8.8785   9.8511  11.0796
    12.1726  13.2286  15.8293  16.2505  16.4590  18.1842

          k =-0.2512 0.3947 0.3851 (  2722 PWs)   bands (ev):

   -32.1332  -1.4284   1.1978   4.3625   6.1207   7.2949   8.8891  10.2866
    15.0460  15.4372  16.0951  16.6649  19.2510  20.1299

          k =-0.7535 0.1076 0.9628 (  2720 PWs)   bands (ev):

   -32.0768   2.1248   3.3303   4.6189   6.6893   7.4743  11.5923  12.7085
    13.2499  13.9623  14.9769  15.2802  15.8852  16.6651

          k =-0.7535-0.0359 0.5777 (  2729 PWs)   bands (ev):

   -32.1152   0.1720   1.5515   2.4714   5.1808  10.9791  11.8442  12.2722
    13.4508  14.3055  15.6312  16.8678  17.3813  18.0617

          k =-0.7535-0.1794 0.1926 (  2728 PWs)   bands (ev):

   -32.1456  -0.8861   0.2647   2.0463   4.5382   9.5259  10.8947  12.1714
    13.5680  15.0595  16.5537  17.7254  18.2121  20.3560

          k =-0.7535 0.6817 2.5034 (  2728 PWs)   bands (ev):

   -32.1456  -1.1250   0.1869   2.7551   4.9635   8.3469  10.0864  12.1632
    13.0152  15.9486  17.2070  18.6441  18.8763  20.5229

          k =-0.7535 0.5382 2.1182 (  2717 PWs)   bands (ev):

   -32.1150  -0.4812   1.3755   4.3816   6.5605   8.0091  10.2114  11.5784
    12.7384  14.6448  15.2333  17.5757  18.1238  19.1376

          k =-0.7535 0.3947 1.7331 (  2709 PWs)   bands (ev):

   -32.0765   1.1463   3.6889   6.8091   7.8378   8.7661   9.4568  10.1466
    11.2798  12.5403  13.0211  15.1489  16.8234  17.5306

          k =-0.5023 0.2512 0.6740 (  2719 PWs)   bands (ev):

   -32.1050  -0.1681   1.8537   4.9173   7.1399   8.0497  10.3604  11.4159
    11.7611  14.1336  15.1438  16.4910  18.1334  18.4726

          k =-0.5023 0.1076 0.2889 (  2728 PWs)   bands (ev):

   -32.1404  -1.4999   1.1589   2.9081   5.9018   7.6720   9.5841  10.9778
    13.1672  16.1456  17.4904  18.3343  19.3526  19.9212

          k =-0.5023-0.0359-0.0963 (  2729 PWs)   bands (ev):

   -32.1491  -1.7684   1.0974   2.4248   5.6320   7.7564   9.0875  11.1334
    12.7400  16.4244  18.0065  19.4182  19.9196  20.6894

          k =-0.5023-0.1794-0.4814 (  2722 PWs)   bands (ev):

   -32.1246  -0.9653   1.3924   3.7607   6.3432   7.9804   9.9204  10.8166
    14.2786  14.9824  15.6082  16.5137  18.7431  19.7890

          k =-0.5023 0.6817 1.8294 (  2720 PWs)   bands (ev):

   -32.0854   0.8829   2.5707   6.2936   8.0244   8.5647   9.2401  10.5339
    11.2916  13.4837  15.0334  16.0497  16.5566  17.1336

          k =-0.5023 0.5382 1.4443 (  2720 PWs)   bands (ev):

   -32.0607   3.6782   4.7652   5.3499   6.3831   9.7647  10.4706  11.0016
    11.6516  12.1124  12.4209  12.8473  15.5143  17.1094

          k =-0.5023 0.3947 1.0591 (  2719 PWs)   bands (ev):

   -32.0695   2.1743   3.5449   7.0857   7.6928   8.3345   9.7070   9.8420
    11.2425  13.2676  14.2062  15.0025  15.1005  16.4856

          k = 0.5023-0.6459-0.3851 (  2724 PWs)   bands (ev):

   -32.1332  -1.0978   0.5560   4.6514   6.3375   6.5881   8.9183  11.6145
    13.7573  15.4690  17.0269  18.2443  18.6071  19.7754

          k = 0.5023-0.7894-0.7703 (  2715 PWs)   bands (ev):

   -32.0948   0.2628   2.4274   5.1296   7.4899   8.5071  10.5083  11.1745
    11.3166  13.4400  15.1262  15.5408  17.4341  18.2626

          k = 0.5023-0.9329-1.1554 (  2711 PWs)   bands (ev):

   -32.0639   2.5990   5.2997   5.8869   6.6152   8.3164   9.6041  10.6064
    11.9748  12.6188  13.8389  14.6370  15.9736  16.3488

          k = 0.7535-0.6459-1.0591 (  2700 PWs)   bands (ev):

   -32.0691   1.7088   4.4293   7.1252   7.4527   8.8544   9.1267  10.1065
    11.7620  12.0461  12.5079  14.4248  16.6416  17.8097

          k = 0.7535-0.7894-1.4443 (  2713 PWs)   bands (ev):

   -32.0606   4.1411   4.5102   5.1665   6.9066   8.0052   9.1940  10.9420
    11.9298  13.9817  14.2112  14.6968  14.9684  16.7598

          k = 0.7535-0.9329-1.8294 (  2725 PWs)   bands (ev):

   -32.0855   1.5518   2.8576   3.9133   6.2867   8.4149  12.2276  12.8808
    13.4431  14.0567  14.9236  15.5205  16.2235  17.1095

          k = 0.7535-0.0718 0.4814 (  2733 PWs)   bands (ev):

   -32.1248  -0.1738   1.1449   2.2347   4.9263  10.6277  12.0694  12.6862
    13.1309  13.8376  16.4298  17.0033  17.6100  18.1270

          k = 0.7535-0.2153 0.0963 (  2725 PWs)   bands (ev):

   -32.1488  -1.0211   0.1205   2.1289   4.5412   9.1309  10.6627  12.4970
    12.7885  15.5751  16.7753  18.0149  18.8172  20.3782

          k = 0.7535-0.3588-0.2889 (  2731 PWs)   bands (ev):

   -32.1404  -1.0526   0.3717   3.0812   5.2402   8.2582   9.9201  11.8203
    13.7641  15.7769  16.3097  18.8442  18.9801  19.9246

     the Fermi energy is    13.6993 ev

!    total energy              =     -47.93428224 Ry
     estimated scf accuracy    <          1.0E-09 Ry
     smearing contrib. (-TS)   =      -0.00047732 Ry
     internal energy E=F+TS    =     -47.93380491 Ry

     The total energy is F=E-TS. E is the sum of the following terms:
     one-electron contribution =      17.01403930 Ry
     hartree contribution      =       3.06918322 Ry
     xc contribution           =     -16.84436083 Ry
     ewald contribution        =     -51.17266660 Ry

     convergence has been achieved in   7 iterations

     Forces acting on atoms (cartesian axes, Ry/au):

     atom    1 type  1   force =     0.00835459    0.01678478   -0.00000000
     atom    2 type  1   force =    -0.00835459   -0.01678478   -0.00000000
     atom    3 type  1   force =    -0.01678478    0.00835459   -0.00000000
     atom    4 type  1   force =     0.01678478   -0.00835459    0.00000000
     atom    5 type  2   force =    -0.00000000    0.00000000    0.00000000
     The non-local contrib.  to forces
     atom    1 type  1   force =     0.02406071    0.04523605    0.00000000
     atom    2 type  1   force =    -0.02406071   -0.04523605   -0.00000000
     atom    3 type  1   force =    -0.04523605    0.02406071   -0.00000000
     atom    4 type  1   force =     0.04523605   -0.02406071    0.00000000
     atom    5 type  2   force =     0.00000000   -0.00000000   -0.00000000
     The ionic contribution  to forces
     atom    1 type  1   force =     0.03564927    0.22804331    0.00000000
     atom    2 type  1   force =    -0.03564927   -0.22804331   -0.00000000
     atom    3 type  1   force =    -0.22804331    0.03564927    0.00000000
     atom    4 type  1   force =     0.22804331   -0.03564927   -0.00000000
     atom    5 type  2   force =     0.00000000   -0.00000000    0.00000000
     The local contribution  to forces
     atom    1 type  1   force =    -0.05007570   -0.25510060    0.00000000
     atom    2 type  1   force =     0.05007570    0.25510060    0.00000000
     atom    3 type  1   force =     0.25510060   -0.05007570   -0.00000000
     atom    4 type  1   force =    -0.25510060    0.05007570    0.00000000
     atom    5 type  2   force =     0.00000000    0.00000000    0.00000000
     The core correction contribution to forces
     atom    1 type  1   force =    -0.00127875   -0.00141960   -0.00000000
     atom    2 type  1   force =     0.00127875    0.00141960    0.00000000
     atom    3 type  1   force =     0.00141960   -0.00127875   -0.00000000
     atom    4 type  1   force =    -0.00141960    0.00127875    0.00000000
     atom    5 type  2   force =     0.00000000    0.00000000    0.00000000
     The Hubbard contrib.    to forces
     atom    1 type  1   force =     0.00000000    0.00000000    0.00000000
     atom    2 type  1   force =     0.00000000    0.00000000    0.00000000
     atom    3 type  1   force =     0.00000000    0.00000000    0.00000000
     atom    4 type  1   force =     0.00000000    0.00000000    0.00000000
     atom    5 type  2   force =     0.00000000    0.00000000    0.00000000
     The SCF correction term to forces
     atom    1 type  1   force =    -0.00000095    0.00002562   -0.00000000
     atom    2 type  1   force =     0.00000095   -0.00002562    0.00000000
     atom    3 type  1   force =    -0.00002562   -0.00000095   -0.00000000
     atom    4 type  1   force =     0.00002562    0.00000095    0.00000000
     atom    5 type  2   force =    -0.00000000   -0.00000000   -0.00000000

     Total force =     0.037498     Total SCF correction =     0.000051


     Computing stress (Cartesian axis) and pressure

          total   stress  (Ry/bohr**3)                   (kbar)     P=      508.01
   0.00340605   0.00000000  -0.00000000          501.05        0.00       -0.00
  -0.00000000   0.00340605   0.00000000           -0.00      501.05        0.00
  -0.00000000   0.00000000   0.00354796           -0.00        0.00      521.92

     Energy error            =      2.5E-03 Ry
     Gradient error          =      1.7E-02 Ry/Bohr
     Cell gradient error     =      2.2E+01 kbar

     number of scf cycles    =   2
     number of bfgs steps    =   1

     enthalpy           old  =     -46.7667828215 Ry
     enthalpy           new  =     -46.7692444606 Ry

     CASE: enthalpy          _new < enthalpy          _old

     new trust radius        =       0.0375485649 bohr
ibrav =      7
 celldm(1) =     12.22416162
 celldm(3) =      0.37502137
Input lattice vectors:
     0.49651203    -0.49651203     0.18620262
     0.49651203     0.49651203     0.18620262
    -0.49651203    -0.49651203     0.18620262
New lattice vectors in INITIAL alat:
     0.49651203    -0.49651203     0.18620262
     0.49651203     0.49651203     0.18620262
    -0.49651203    -0.49651203     0.18620262
New lattice vectors in NEW alat (for information only):
     0.50000000    -0.50000000     0.18751069
     0.50000000     0.50000000     0.18751069
    -0.50000000    -0.50000000     0.18751069
Discrepancy in bohr =     0.000000    0.000000    0.000000
     new conv_thr            =            1.0E-10 Ry

     new unit-cell volume =    342.51790 a.u.^3 (    50.75592 Ang^3 )
     density =      3.90248 g/cm^3

CELL_PARAMETERS (alat= 12.31003565)
   0.496512032  -0.496512032   0.186202624
   0.496512032   0.496512032   0.186202624
  -0.496512032  -0.496512032   0.186202624

ATOMIC_POSITIONS (crystal)
Si           -0.2007783199        0.7844314267        0.4163468932
Si            0.2007783199        1.2155685733       -0.4163468932
Si            0.6319154665        0.5836531068       -0.2155685733
Si           -0.6319154665        1.4163468932        0.2155685733
Li           -0.0000000000        0.0000000000        0.0000000000



     Writing config-only to output data dir ./output/SiLi.save/
     NEW-OLD atomic charge density approx. for the potential
     extrapolated charge   18.98625, renormalised to   19.00000

     total cpu time spent up to now is       34.5 secs

     Self-consistent Calculation

     iteration #  1     ecut=    60.00 Ry     beta= 0.80
     Davidson diagonalization with overlap
     c_bands:  1 eigenvalues not converged
     ethr =  1.00E-06,  avg # of iterations =  8.9

     total cpu time spent up to now is       38.0 secs

     total energy              =     -47.93515901 Ry
     estimated scf accuracy    <       0.00115025 Ry

     iteration #  2     ecut=    60.00 Ry     beta= 0.80
     Davidson diagonalization with overlap
     ethr =  6.05E-06,  avg # of iterations =  2.8

     total cpu time spent up to now is       39.7 secs

     total energy              =     -47.93526159 Ry
     estimated scf accuracy    <       0.00288927 Ry

     iteration #  3     ecut=    60.00 Ry     beta= 0.80
     Davidson diagonalization with overlap
     ethr =  6.05E-06,  avg # of iterations =  2.0

     total cpu time spent up to now is       41.2 secs

     total energy              =     -47.93578362 Ry
     estimated scf accuracy    <       0.00000264 Ry

     iteration #  4     ecut=    60.00 Ry     beta= 0.80
     Davidson diagonalization with overlap
     ethr =  1.39E-08,  avg # of iterations =  4.9

     total cpu time spent up to now is       43.4 secs

     total energy              =     -47.93578971 Ry
     estimated scf accuracy    <       0.00000255 Ry

     iteration #  5     ecut=    60.00 Ry     beta= 0.80
     Davidson diagonalization with overlap
     ethr =  1.34E-08,  avg # of iterations =  1.3

     total cpu time spent up to now is       44.7 secs

     total energy              =     -47.93578987 Ry
     estimated scf accuracy    <       0.00000023 Ry

     iteration #  6     ecut=    60.00 Ry     beta= 0.80
     Davidson diagonalization with overlap
     ethr =  1.23E-09,  avg # of iterations =  2.4

     total cpu time spent up to now is       46.3 secs

     total energy              =     -47.93578994 Ry
     estimated scf accuracy    <          2.1E-09 Ry

     iteration #  7     ecut=    60.00 Ry     beta= 0.80
     Davidson diagonalization with overlap
     ethr =  1.09E-11,  avg # of iterations =  4.4

     total cpu time spent up to now is       48.3 secs

     total energy              =     -47.93578994 Ry
     estimated scf accuracy    <          1.7E-09 Ry

     iteration #  8     ecut=    60.00 Ry     beta= 0.80
     Davidson diagonalization with overlap
     ethr =  9.21E-12,  avg # of iterations =  1.7

     total cpu time spent up to now is       49.6 secs

     End of self-consistent calculation

          k = 0.0000 0.0000 0.0000 (  2713 PWs)   bands (ev):

   -32.1271  -2.5648   3.4987   3.7786   3.7786   6.2060  10.4956  10.5235
    10.5235  13.3529  22.0589  22.4841  22.4841  22.5193

          k =-0.1439 0.0000 0.3836 (  2711 PWs)   bands (ev):

   -32.1107  -2.0168   3.2265   4.0499   5.1411   6.8874   9.6197  11.0392
    11.9505  13.9401  16.7928  17.5626  18.0302  20.2642

          k =-0.2877 0.0000 0.7672 (  2720 PWs)   bands (ev):

   -32.0744  -0.3809   3.9298   4.9615   7.6116   8.6639   9.5465  10.8483
    12.4587  12.8875  13.4127  13.8767  15.9571  17.7327

          k =-0.4316 0.0000 1.1508 (  2708 PWs)   bands (ev):

   -32.0447   2.3137   5.6677   5.9939   6.5682   8.5481   9.2588  10.6268
    11.5650  11.9676  13.4820  15.3020  15.7670  16.3930

          k =-0.0000 0.2518 0.6713 (  2714 PWs)   bands (ev):

   -32.0839  -0.8908   3.6525   4.6664   6.9243   8.1679   9.5019  11.6540
    12.3330  13.5374  13.8084  14.5667  15.7336  17.9877

          k =-0.1439 0.2518 1.0549 (  2708 PWs)   bands (ev):

   -32.0499   1.3349   5.3167   6.9868   7.5520   8.6055   9.1045  10.1121
    10.8897  11.6190  12.5273  14.2810  16.6491  18.0424

          k =-0.2877 0.2518 1.4385 (  2709 PWs)   bands (ev):

   -32.0415   3.9123   4.5132   5.0969   6.9712   8.0306   9.3626  10.9921
    11.9601  13.5296  14.0830  14.3447  15.0236  16.6707

          k =-0.4316 0.2518 1.8221 (  2712 PWs)   bands (ev):

   -32.0651   0.9136   2.6357   5.4857   7.6011   8.6158   9.7897  11.2030
    11.7985  13.5284  14.8868  16.2549  16.5813  16.9201

          k = 0.4316 0.2518-0.4795 (  2727 PWs)   bands (ev):

   -32.1030  -1.1391   1.3586   4.4766   6.5268   7.4966   9.3789  10.6460
    14.4237  15.3523  15.6447  16.0086  18.8385  19.3415

          k = 0.2877 0.2518-0.0959 (  2731 PWs)   bands (ev):

   -32.1264  -2.1383   1.1642   4.2148   5.1296   7.5589   7.9840   9.8224
    14.2465  15.0975  17.9422  20.2962  21.1910  22.6342

          k = 0.1439 0.2518 0.2877 (  2717 PWs)   bands (ev):

   -32.1177  -2.0553   2.0186   4.0039   5.4749   7.4226   8.4896  10.2804
    13.1450  14.9663  17.4001  18.5977  19.7832  20.4002

          k = 0.0000-0.5035-1.3426 (  2720 PWs)   bands (ev):

   -32.0407   3.9065   4.1856   6.5741   7.0538   7.6652   8.4928  11.0283
    11.7559  13.2556  13.9807  14.5543  14.9537  16.8980

          k =-0.1439-0.5035-0.9590 (  2710 PWs)   bands (ev):

   -32.0568   1.2311   3.7570   5.6941   7.6938   8.3067  10.3597  10.4693
    12.1487  12.7700  13.2025  15.4801  16.1426  17.3759

          k =-0.2877-0.5035-0.5754 (  2725 PWs)   bands (ev):

   -32.0938  -0.6096   1.3593   4.7322   6.9328   7.5071   9.9344  11.5275
    12.7289  14.7328  15.0254  17.6779  18.2522  19.0098

          k =-0.4316-0.5035-0.1918 (  2733 PWs)   bands (ev):

   -32.1231  -1.4985   0.0943   4.7423   5.7532   6.1789   8.5148  11.8996
    13.0832  17.4599  18.4517  18.5907  19.3888  19.8677

          k = 0.2518-0.2518-0.0000 (  2727 PWs)   bands (ev):

   -32.1273  -2.2194   1.2823   4.1731   5.0219   7.6068   7.8983   9.7880
    13.9369  15.0048  18.1857  21.1806  21.9423  22.2576

          k = 0.1079-0.2518 0.3836 (  2714 PWs)   bands (ev):

   -32.1108  -1.8651   2.3809   4.0345   5.7612   7.5636   8.6571  10.6002
    13.1019  14.8719  16.3558  17.3037  18.7315  20.0596

          k =-0.0360-0.2518 0.7672 (  2715 PWs)   bands (ev):

   -32.0743  -0.4326   4.0599   5.1407   7.3032   8.5805   9.7575  11.0043
    12.2066  12.8228  13.3954  13.8647  15.5864  17.6471

          k =-0.1798-0.2518 1.1508 (  2713 PWs)   bands (ev):

   -32.0448   2.0522   5.7836   6.5486   7.4463   8.1324   9.3832   9.8047
    11.0694  11.7766  12.7248  14.4223  17.0658  17.3025

          k = 0.6833-0.2518-1.1508 (  2705 PWs)   bands (ev):

   -32.0446   3.0877   4.2911   5.5649   6.7719   7.9826   9.4794  11.6579
    12.4712  13.0365  13.6765  15.2679  15.6567  16.2305

          k = 0.5395-0.2518-0.7672 (  2711 PWs)   bands (ev):

   -32.0742   0.3055   2.2125   5.1661   7.4001   8.5687  10.3073  11.2060
    11.5741  13.6051  15.2766  15.6797  17.6097  18.0621

          k = 0.3956-0.2518-0.3836 (  2722 PWs)   bands (ev):

   -32.1110  -1.4894   1.2084   4.3473   6.2368   7.1303   9.1479  10.3781
    14.4609  15.3405  16.8934  17.0524  18.6047  19.9700

          k = 0.1079-0.0000 1.0549 (  2705 PWs)   bands (ev):

   -32.0499   1.1286   6.4691   7.0614   7.5356   8.6039   8.9685   9.3777
     9.6915  11.9233  13.4040  14.2723  15.0942  17.3542

          k =-0.0360-0.0000 1.4385 (  2725 PWs)   bands (ev):

   -32.0419   4.1564   4.9760   5.3717   5.4299   7.8157  10.2266  10.6497
    10.7755  13.0149  16.5163  16.8949  17.0045  17.4774

          k =-0.1798 0.0000 1.8221 (  2733 PWs)   bands (ev):

   -32.0656   1.7684   2.8548   3.4118   6.1096   8.2198  12.9465  13.5411
    13.6835  14.7453  15.0656  15.3250  15.8576  17.0491

          k = 0.6833-0.0000-0.4795 (  2722 PWs)   bands (ev):

   -32.1027  -0.5092   1.3858   2.3518   5.3323  10.1896  11.1651  12.5405
    13.1880  14.0788  16.4144  17.4691  17.9559  18.6212

          k = 0.5395-0.0000-0.0959 (  2725 PWs)   bands (ev):

   -32.1261  -1.7238   1.0275   2.2212   5.5041   8.1320   9.3583  11.5006
    12.7523  16.7053  17.6058  19.5415  19.7274  20.2710

          k = 0.3956-0.0000 0.2877 (  2713 PWs)   bands (ev):

   -32.1176  -1.8496   1.7905   2.9965   6.6280   7.0790   8.5897  11.2839
    12.5533  16.2859  16.9318  18.7882  19.6440  19.9492

          k = 0.2518-0.7553-1.3426 (  2714 PWs)   bands (ev):

   -32.0405   3.6658   4.7770   5.8050   6.7721   8.2308   9.5218  10.2661
    11.2850  13.4562  13.6051  14.5723  14.9776  17.0674

          k = 0.1079-0.7553-0.9590 (  2720 PWs)   bands (ev):

   -32.0570   2.0341   3.3270   4.5429   6.7799   7.3916  11.6165  12.2809
    13.7737  13.9647  14.6616  15.3827  16.1091  16.6848

          k =-0.0360-0.7553-0.5754 (  2729 PWs)   bands (ev):

   -32.0938   0.1000   1.5581   2.4140   5.3033  10.8381  12.1237  12.2371
    13.3665  14.1025  16.2004  16.8622  17.1585  18.0998

          k =-0.1798-0.7553-0.1918 (  2728 PWs)   bands (ev):

   -32.1229  -0.9579   0.2834   1.9992   4.6683   9.4492  11.1535  12.4366
    13.0747  15.4816  16.7760  17.7053  17.9600  20.3810

          k = 0.6833-0.7553-2.4934 (  2728 PWs)   bands (ev):

   -32.1230  -1.1971   0.2090   2.7100   5.0838   8.3792  10.1395  12.0493
    13.4407  15.8379  16.9752  18.7220  19.3499  20.3611

          k = 0.5395-0.7553-2.1098 (  2717 PWs)   bands (ev):

   -32.0936  -0.5528   1.3866   4.3415   6.6096   8.1676  10.1374  11.2754
    13.3031  14.4244  15.8759  16.1837  18.0010  19.8544

          k = 0.3956-0.7553-1.7262 (  2709 PWs)   bands (ev):

   -32.0568   1.0683   3.6853   6.6758   8.0425   8.6487   9.4120   9.9561
    11.3798  12.5391  13.1666  14.9786  17.2223  17.7274

          k = 0.2518-0.5035-0.6713 (  2719 PWs)   bands (ev):

   -32.0841  -0.2407   1.8612   4.8757   7.1437   8.2760  10.1988  10.8931
    12.5786  13.6146  16.1305  16.2868  16.7394  18.8434

          k = 0.1079-0.5035-0.2877 (  2728 PWs)   bands (ev):

   -32.1179  -1.5587   1.1736   2.8808   5.9568   7.8600   9.3976  11.0115
    13.6879  16.1240  16.6309  18.4119  19.7256  20.5643

          k =-0.0360-0.5035 0.0959 (  2729 PWs)   bands (ev):

   -32.1263  -1.8243   1.1151   2.3967   5.7445   7.7187   9.1574  11.3294
    12.6822  16.9743  17.5088  19.7582  19.7714  20.7062

          k =-0.1798-0.5035 0.4795 (  2722 PWs)   bands (ev):

   -32.1028  -1.0292   1.4002   3.7325   6.5039   7.7768  10.1887  11.0457
    13.5925  14.4679  16.4185  17.8336  18.1113  18.8805

          k = 0.6833-0.5035-1.8221 (  2720 PWs)   bands (ev):

   -32.0653   0.7994   2.5731   6.2816   8.1004   8.2316   9.5971  10.4406
    11.2161  13.6339  14.6800  16.0507  16.4577  17.3289

          k = 0.5395-0.5035-1.4385 (  2720 PWs)   bands (ev):

   -32.0417   3.5639   4.7712   5.2227   6.3705   9.6807  10.4373  11.1667
    11.5876  12.0211  12.3323  12.9862  15.5776  17.1681

          k = 0.3956-0.5035-1.0549 (  2719 PWs)   bands (ev):

   -32.0501   2.0757   3.5496   6.9682   7.5085   8.7147   9.3556   9.8264
    11.4228  13.3216  14.2422  14.6680  15.1889  16.5522

          k =-0.5035 0.5035 0.0000 (  2742 PWs)   bands (ev):

   -32.1276  -1.6068  -0.0679   4.9831   5.2933   6.0797   8.3345  12.1466
    12.6561  18.3484  18.3964  18.6479  20.3134  20.8274

          k =-0.6474 0.5035 0.3836 (  2724 PWs)   bands (ev):

   -32.1111  -1.1694   0.5752   4.6267   6.2037   6.8488   8.9773  11.5967
    13.9782  15.6114  16.8245  17.1022  19.8527  20.2632

          k =-0.7912 0.5035 0.7672 (  2715 PWs)   bands (ev):

   -32.0743   0.1889   2.4311   5.0787   7.5320   8.7944   9.8414  11.0361
    12.0350  13.0626  15.3985  15.9718  16.8406  18.0408

          k =-0.9351 0.5035 1.1508 (  2711 PWs)   bands (ev):

   -32.0447   2.5149   5.2962   5.8192   6.4318   8.8998   8.9981  10.5040
    12.1010  12.7969  13.7314  15.0702  15.3982  16.0356

          k =-0.6474 0.7553 1.0549 (  2700 PWs)   bands (ev):

   -32.0497   1.6286   4.4122   7.1202   7.4568   8.2566   9.4682  10.5699
    11.3365  11.9196  12.5918  14.5725  16.7317  17.4269

          k =-0.7912 0.7553 1.4385 (  2713 PWs)   bands (ev):

   -32.0416   4.0279   4.4334   5.1317   6.8808   7.9193   9.3054  10.9183
    11.8317  13.9156  14.2681  14.7024  15.0355  16.7787

          k =-0.9351 0.7553 1.8221 (  2725 PWs)   bands (ev):

   -32.0654   1.4685   2.8511   3.8512   6.3996   8.2938  12.3757  12.5906
    13.6287  14.1674  14.7091  15.3562  16.1926  17.3868

          k =-0.0719 0.7553-0.4795 (  2733 PWs)   bands (ev):

   -32.1030  -0.2448   1.1553   2.1798   5.0497  10.7630  11.8110  12.3355
    13.6893  14.5151  15.2429  17.3755  17.9605  18.1674

          k =-0.2158 0.7553-0.0959 (  2725 PWs)   bands (ev):

   -32.1260  -1.0939   0.1425   2.0821   4.6691   9.1417  10.7451  12.3351
    13.1976  15.4607  16.9433  18.0941  18.8615  20.2893

          k =-0.3597 0.7553 0.2877 (  2731 PWs)   bands (ev):

   -32.1179  -1.1238   0.3906   3.0370   5.3736   8.1584  10.1690  12.0215
    13.3720  15.5688  17.3720  18.5012  18.9609  19.3812

          k =-0.6474 0.0000-0.9590 (  2716 PWs)   bands (ev):

   -32.0569   1.6456   3.7451   4.6631   7.1999   7.5762  11.2528  11.9882
    12.4066  13.7166  14.6396  15.1224  15.9871  16.5662

          k =-0.7912 0.0000-0.5754 (  2732 PWs)   bands (ev):

   -32.0939   0.2461   1.5295   2.2218   5.1664  11.1117  12.2219  12.4595
    13.6879  14.2213  15.8167  16.7715  17.2281  17.8320

          k =-0.9351 0.0000-0.1918 (  2730 PWs)   bands (ev):

   -32.1229  -0.1347   0.4051   0.6061   4.0718  12.2374  12.5776  13.4123
    13.6465  14.1603  14.8706  15.4166  16.4913  19.7281

          k = 0.2518-0.1439-1.0549 (  2708 PWs)   bands (ev):

   -32.0499   1.3350   5.3070   7.1863   7.3490   8.4755   9.1910  10.4271
    10.6705  11.6190  12.4151  14.3999  16.4452  18.3379

          k = 0.2518-0.2877-1.4385 (  2709 PWs)   bands (ev):

   -32.0415   3.9129   4.5149   5.0883   7.0328   7.9122   9.4587  11.0011
    11.8951  13.5101  14.0102  14.5085  14.9966  16.6579

          k = 0.2518-0.4316-1.8221 (  2712 PWs)   bands (ev):

   -32.0651   0.9140   2.6332   5.5043   7.5904   8.4718  10.0891  11.0809
    11.7494  13.7319  14.5541  15.8826  16.5229  17.4307

          k = 0.2518 0.4316 0.4795 (  2727 PWs)   bands (ev):

   -32.1030  -1.1390   1.3578   4.4728   6.7326   7.1625   9.5767  10.7072
    13.9890  14.7784  15.9579  17.4319  18.1856  19.0995

          k = 0.2518 0.2877 0.0959 (  2731 PWs)   bands (ev):

   -32.1264  -2.1383   1.1640   4.2083   5.1511   7.4257   8.1192   9.8184
    14.0856  15.3055  17.8434  20.4009  21.1398  22.6086

          k = 0.2518 0.1439-0.2877 (  2717 PWs)   bands (ev):

   -32.1177  -2.0554   2.0190   4.0080   5.4479   7.5337   8.3892  10.2506
    13.3038  14.8125  17.5822  18.2395  20.1134  20.2863

          k =-0.5035-0.1439 0.9590 (  2710 PWs)   bands (ev):

   -32.0568   1.2308   3.7644   5.6557   7.7422   8.4022  10.0508  10.5615
[...]

          k = 0.1086-0.0000 1.0328 (  2701 PWs)   bands (ev):

   -32.1823   0.8423   6.1226   6.9668   7.2582   8.3772   8.7139   8.9540
     9.3631  11.6676  13.3944  14.4637  15.1619  17.3269

          k =-0.0362 0.0000 1.4084 (  2731 PWs)   bands (ev):

   -32.1762   3.7618   4.6764   5.0102   5.0839   7.9250   9.6748  10.4734
    10.5498  12.7071  16.4978  16.7434  16.8993  17.2883

          k =-0.1810 0.0000 1.7840 (  2725 PWs)   bands (ev):

   -32.1950   1.5455   2.5958   3.2129   6.2238   7.7192  12.5679  13.3027
    13.4351  14.3888  14.9567  15.5013  15.7274  16.7119

          k = 0.6877-0.0000-0.4695 (  2705 PWs)   bands (ev):

   -32.2249  -0.6713   1.1990   2.2545   5.4889  10.0820  11.1968  12.3539
    13.3101  13.9447  16.3300  17.2760  17.5929  18.4302

          k = 0.5429-0.0000-0.0939 (  2712 PWs)   bands (ev):

   -32.2441  -1.8620   0.8735   2.1907   5.6549   8.0791   9.4361  11.8497
    12.8920  16.8815  17.5709  18.9244  19.8117  20.4424

          k = 0.3981-0.0000 0.2817 (  2712 PWs)   bands (ev):

   -32.2374  -2.0020   1.6271   2.9978   6.6486   7.0798   8.7035  11.6073
    12.6640  16.1716  16.4077  18.1944  19.2176  19.9650

          k = 0.2534-0.7601-1.3145 (  2722 PWs)   bands (ev):

   -32.1751   3.3016   4.4101   5.4696   6.4592   7.9939   9.3820  10.1070
    10.9186  13.2164  13.5059  14.5167  14.7731  16.9122

          k = 0.1086-0.7601-0.9390 (  2721 PWs)   bands (ev):

   -32.1883   1.7831   3.0635   4.3280   6.5952   7.1945  11.1113  12.1689
    13.3879  13.8077  14.4224  15.3657  16.0787  16.4161

          k =-0.0362-0.7601-0.5634 (  2717 PWs)   bands (ev):

   -32.2178  -0.0722   1.3589   2.2827   5.4619  10.5458  11.7667  12.1769
    13.6778  14.1809  15.7708  16.7580  17.0580  17.9515

          k =-0.1810-0.7601-0.1878 (  2714 PWs)   bands (ev):

   -32.2414  -1.0907   0.1383   1.8966   4.8587   9.4047  11.2248  12.6770
    13.2872  15.5062  16.7787  17.6304  17.9468  20.1722

          k = 0.6877-0.7601-2.4413 (  2712 PWs)   bands (ev):

   -32.2414  -1.3336   0.0713   2.6176   5.2669   8.3401  10.2331  12.2856
    13.6148  16.0899  16.5453  18.5493  19.3562  19.8433

          k = 0.5429-0.7601-2.0657 (  2702 PWs)   bands (ev):

   -32.2175  -0.7337   1.2193   4.2407   6.7053   8.1219  10.1728  11.1672
    12.9184  14.0082  15.8010  16.3395  17.4197  19.7966

          k = 0.3981-0.7601-1.6901 (  2709 PWs)   bands (ev):

   -32.1880   0.8088   3.4536   6.5351   7.5847   8.4724   9.3251   9.7107
    11.2514  12.2139  12.9237  14.9771  16.7587  17.8053

          k = 0.2534-0.5067-0.6573 (  2707 PWs)   bands (ev):

   -32.2099  -0.4382   1.6809   4.7702   7.1818   8.2456  10.1580  10.6275
    12.3021  13.1931  16.0950  16.2466  16.4126  18.7461

          k = 0.1086-0.5067-0.2817 (  2719 PWs)   bands (ev):

   -32.2375  -1.7078   1.0243   2.8377   6.0734   7.8431   9.4120  11.3149
    13.8730  15.8647  16.2973  17.9847  19.8629  19.9706

          k =-0.0362-0.5067 0.0939 (  2710 PWs)   bands (ev):

   -32.2440  -1.9637   0.9642   2.3734   5.8881   7.6618   9.2454  11.6712
    12.8167  17.1298  17.5379  18.9946  19.9324  20.8803

          k =-0.1810-0.5067 0.4695 (  2704 PWs)   bands (ev):

   -32.2250  -1.1976   1.2418   3.6585   6.6373   7.6866  10.2050  11.3253
    13.0624  14.4541  15.7599  17.5161  18.2413  18.7636

          k = 0.6877-0.5067-1.7840 (  2711 PWs)   bands (ev):

   -32.1947   0.5627   2.3629   6.1255   7.9054   8.2142   9.2112  10.2266
    11.0374  13.5807  14.2245  15.9888  16.1689  17.0479

          k = 0.5429-0.5067-1.4084 (  2699 PWs)   bands (ev):

   -32.1753   3.2203   4.4882   4.8178   6.0405   9.5944  10.1190  11.1177
    11.3740  11.6575  12.0565  12.8837  15.4377  17.2729

          k = 0.3981-0.5067-1.0328 (  2716 PWs)   bands (ev):

   -32.1826   1.7900   3.3034   6.5171   7.2487   8.4661   9.2084   9.7815
    11.3205  12.8586  13.9674  14.4318  15.1076  16.5858

          k =-0.5067 0.5067 0.0000 (  2730 PWs)   bands (ev):

   -32.2454  -1.7423  -0.1910   5.0387   5.1002   6.2938   8.4556  12.4745
    12.7035  18.6253  18.7323  18.8344  19.6389  20.2718

          k =-0.6515 0.5067 0.3756 (  2709 PWs)   bands (ev):

   -32.2317  -1.3258   0.4343   4.5590   6.1919   6.9487   9.0685  11.7664
    14.0495  14.9679  16.2565  17.2402  19.8574  20.2839

          k =-0.7963 0.5067 0.7512 (  2708 PWs)   bands (ev):

   -32.2021  -0.0267   2.2320   4.9585   7.5655   8.6700   9.5246  10.9424
    11.6672  12.8678  14.9120  16.0097  16.9120  17.9667

          k =-0.9410 0.5067 1.1267 (  2712 PWs)   bands (ev):

   -32.1783   2.2076   4.9776   5.4029   6.2483   8.5420   8.8800  10.2782
    11.8243  12.6624  13.5529  14.8114  15.4163  15.9831

          k =-0.6515 0.7601 1.0328 (  2710 PWs)   bands (ev):

   -32.1824   1.3447   4.1606   6.6855   7.2771   7.9974   9.2123  10.5071
    11.0358  11.7291  12.4205  14.5642  16.3631  17.5223

          k =-0.7963 0.7601 1.4084 (  2722 PWs)   bands (ev):

   -32.1760   3.6922   4.0499   4.8028   6.5646   7.7753   9.1201  10.7439
    11.4190  13.6680  14.1482  14.4249  15.0213  16.5680

          k =-0.9410 0.7601 1.7840 (  2719 PWs)   bands (ev):

   -32.1949   1.2409   2.6031   3.6626   6.5013   7.7988  12.0462  12.3767
    13.3363  14.0696  14.5352  15.5304  15.7953  17.0669

          k =-0.0724 0.7601-0.4695 (  2713 PWs)   bands (ev):

   -32.2251  -0.4033   0.9744   2.0576   5.2185  10.6552  11.7532  12.2003
    13.5776  14.6797  15.3730  17.0626  17.9063  18.0802

          k =-0.2172 0.7601-0.0939 (  2716 PWs)   bands (ev):

   -32.2440  -1.2235   0.0028   1.9843   4.8615   9.1060  10.8237  12.5892
    13.3990  15.7289  16.9410  18.1388  18.5300  19.9553

          k =-0.3619 0.7601 0.2817 (  2713 PWs)   bands (ev):

   -32.2373  -1.2679   0.2491   2.9430   5.5525   8.0990  10.2827  12.2413
    13.5078  15.1698  17.4535  18.2741  18.5615  19.3945

          k =-0.6515 0.0000-0.9390 (  2709 PWs)   bands (ev):

   -32.1880   1.3916   3.4646   4.4999   6.8398   7.5320  10.8112  11.7601
    12.1836  13.4399  14.6948  15.1884  15.6288  16.3057

          k =-0.7963 0.0000-0.5634 (  2717 PWs)   bands (ev):

   -32.2178   0.0762   1.3275   2.0841   5.3301  10.7075  11.9896  12.3704
    13.9976  14.3321  15.6628  16.7066  16.8994  17.7172

          k =-0.9410 0.0000-0.1878 (  2722 PWs)   bands (ev):

   -32.2415  -0.2470   0.2432   0.4757   4.2748  12.1458  12.4201  13.6503
    13.9669  14.4939  15.1296  15.5882  16.1269  19.3342

          k = 0.2534-0.1448-1.0328 (  2709 PWs)   bands (ev):

   -32.1825   1.0499   5.0427   6.9389   7.0612   8.1844   8.9185  10.0342
    10.5334  11.4473  12.3220  14.4811  16.5618  17.8763

          k = 0.2534-0.2896-1.4084 (  2727 PWs)   bands (ev):

   -32.1761   3.5752   4.1373   4.7608   6.7125   7.7272   9.3221  10.8305
    11.4747  13.2547  13.9466  14.2598  14.8937  16.4667

          k = 0.2534-0.4343-1.7840 (  2710 PWs)   bands (ev):

   -32.1947   0.6788   2.4169   5.3357   7.6735   8.0517   9.8449  10.7251
    11.7246  13.6100  14.1824  15.8194  16.1501  17.3305

          k = 0.2534 0.4343 0.4695 (  2705 PWs)   bands (ev):

   -32.2250  -1.3087   1.2066   4.4169   6.6697   7.2518   9.6167  10.9460
    13.3796  14.8303  15.3274  17.4151  18.0491  18.8060

          k = 0.2534 0.2896 0.0939 (  2709 PWs)   bands (ev):

   -32.2441  -2.2816   1.0429   4.2779   5.0086   7.5383   8.1833  10.1327
    14.2984  15.4347  17.9539  19.4415  20.2279  22.3464

          k = 0.2534 0.1448-0.2817 (  2703 PWs)   bands (ev):

   -32.2372  -2.2102   1.8805   4.0419   5.3411   7.5261   8.5708  10.5381
    13.5298  14.8607  16.7495  17.6146  19.3438  20.2255

          k =-0.5067-0.1448 0.9390 (  2715 PWs)   bands (ev):

   -32.1882   0.9730   3.5168   5.5060   7.2624   8.4362   9.9162  10.1458
    11.8993  12.3325  13.6898  14.9967  16.4084  16.9382

          k =-0.5067-0.2896 0.5634 (  2702 PWs)   bands (ev):

   -32.2175  -0.7913   1.1958   4.6408   6.8277   7.7667   9.8246  11.2045
    12.8593  13.8807  15.6740  16.6520  17.5009  19.5937

          k =-0.5067-0.4343 0.1878 (  2717 PWs)   bands (ev):

   -32.2416  -1.6394  -0.0331   4.7076   5.5955   6.4497   8.6079  12.0953
    13.2780  17.3225  17.9032  18.3471  19.5692  19.8596

          k =-0.2534 0.1086-0.3756 (  2705 PWs)   bands (ev):

   -32.2317  -2.0287   2.2275   4.0489   5.6925   7.4582   8.9149  10.9333
    13.0695  15.0752  15.5074  16.7016  17.8901  20.1500

          k =-0.2534-0.0362-0.7512 (  2692 PWs)   bands (ev):

   -32.2017  -0.6530   3.8286   5.1084   7.1534   8.5376   9.9219  10.4270
    11.8873  12.5812  13.2419  13.5043  15.6056  17.6519

          k =-0.2534-0.1810-1.1267 (  2703 PWs)   bands (ev):

   -32.1781   1.7419   5.5077   6.1617   6.9308   8.5464   8.6949   9.4051
    10.9444  11.6967  12.5857  14.5470  16.5945  17.5120

          k =-0.2534 0.6877 1.1267 (  2724 PWs)   bands (ev):

   -32.1787   2.7779   4.0127   5.1422   6.4331   8.0478   9.1099  11.2661
    12.5034  12.6465  13.7484  14.5391  15.6605  16.0554

          k =-0.2534 0.5429 0.7512 (  2708 PWs)   bands (ev):

   -32.2021   0.0901   2.0168   5.0205   7.4354   8.6758   9.5315  10.9827
    11.7042  13.1395  15.2505  16.3753  16.5454  17.6159

          k =-0.2534 0.3981 0.3756 (  2711 PWs)   bands (ev):

   -32.2318  -1.6490   1.0687   4.3312   6.0169   7.5480   8.9314  10.6398
    14.9501  15.5073  15.6687  16.0645  19.2246  19.3328

          k =-0.7601 0.1086 0.9390 (  2721 PWs)   bands (ev):

   -32.1883   1.7836   3.0607   4.3332   6.5959   7.1860  11.0685  12.5348
    12.8848  13.9121  14.7100  15.0416  16.0769  16.2975

          k =-0.7601-0.0362 0.5634 (  2717 PWs)   bands (ev):

   -32.2178  -0.0722   1.3593   2.2824   5.4612  10.6150  11.6522  12.0965
    13.7524  14.5404  15.4219  16.6529  17.0063  18.0294

          k =-0.7601-0.1810 0.1878 (  2714 PWs)   bands (ev):

   -32.2414  -1.0908   0.1386   1.8967   4.8559   9.4723  11.0602  12.5071
    13.8182  15.4066  16.2136  17.8089  18.2545  20.2226

          k =-0.7601 0.6877 2.4413 (  2712 PWs)   bands (ev):

   -32.2414  -1.3335   0.0711   2.6169   5.2765   8.2755  10.3447  12.4540
    13.2098  15.9744  17.3127  18.2363  19.0717  19.8009

          k =-0.7601 0.5429 2.0657 (  2702 PWs)   bands (ev):

   -32.2175  -0.7335   1.2186   4.2390   6.8045   7.8764  10.3938  11.7535
    11.9790  14.5250  14.8340  17.0775  18.3514  19.1295

          k =-0.7601 0.3981 1.6901 (  2709 PWs)   bands (ev):

   -32.1880   0.8089   3.4506   6.6345   7.3919   8.5707   9.1359   9.9735
    11.3087  12.2972  12.5896  15.0991  16.9448  17.0644

          k =-0.5067 0.2534 0.6573 (  2707 PWs)   bands (ev):

   -32.2099  -0.4381   1.6799   4.7717   7.3552   7.8901  10.4416  11.0936
    11.4796  13.5812  15.3036  15.8590  18.1244  18.5339

          k =-0.5067 0.1086 0.2817 (  2719 PWs)   bands (ev):

   -32.2375  -1.7077   1.0238   2.8357   6.1457   7.6131   9.6615  11.4097
    13.3861  15.5633  17.7070  18.1769  18.6152  19.6573

          k =-0.5067-0.0362-0.0939 (  2710 PWs)   bands (ev):

   -32.2440  -1.9638   0.9643   2.3741   5.8641   7.7575   9.1420  11.5953
    13.0155  16.6447  17.9401  19.1865  19.6439  20.9365

          k =-0.5067-0.1810-0.4695 (  2704 PWs)   bands (ev):

   -32.2250  -1.1977   1.2426   3.6610   6.5152   7.9822   9.9167  11.1163
    13.6419  15.1053  15.2682  16.3307  18.0163  19.9727

          k =-0.5067 0.6877 1.7840 (  2711 PWs)   bands (ev):

   -32.1947   0.5625   2.3641   6.0996   7.9562   8.3111   9.0695  10.1844
    11.0744  13.4431  14.4814  16.1726  16.4200  16.5343

          k =-0.5067 0.5429 1.4084 (  2699 PWs)   bands (ev):

   -32.1753   3.2202   4.4879   4.8190   6.0382   9.6530  10.0535  10.9933
    11.5281  11.6575  12.0832  12.8304  15.4423  17.2621

          k =-0.5067 0.3981 1.0328 (  2716 PWs)   bands (ev):

   -32.1826   1.7902   3.3023   6.5081   7.3637   8.1608   9.4351   9.8440
    11.2667  12.7555  13.8378  14.7193  15.0837  16.5539

          k = 0.5067-0.6515-0.3756 (  2709 PWs)   bands (ev):

   -32.2317  -1.3257   0.4340   4.5472   6.4294   6.6520   9.1672  11.8436
    13.8063  14.8453  16.2607  18.5145  18.8143  19.9477

          k = 0.5067-0.7963-0.7512 (  2708 PWs)   bands (ev):

   -32.2021  -0.0266   2.2301   4.9674   7.6763   8.2818   9.9482  11.0569
    11.3526  13.0722  14.5727  15.6261  17.1891  18.2473

          k = 0.5067-0.9410-1.1267 (  2712 PWs)   bands (ev):

   -32.1783   2.2078   4.9750   5.3657   6.3714   8.0733   9.3516  10.3240
    11.7327  12.4944  13.6955  14.4456  15.9022  16.3901

          k = 0.7601-0.6515-1.0328 (  2710 PWs)   bands (ev):

   -32.1824   1.3446   4.1647   6.6918   7.0926   8.6648   8.7470  10.1235
    11.4811  11.6643  12.4556  14.5632  16.1211  18.0437

          k = 0.7601-0.7963-1.4084 (  2722 PWs)   bands (ev):

   -32.1760   3.6923   4.0475   4.8109   6.5274   7.8626   9.0358  10.7395
    11.4709  13.6728  14.0300  14.7098  14.8065  16.5412

          k = 0.7601-0.9410-1.7840 (  2719 PWs)   bands (ev):

   -32.1949   1.2406   2.6048   3.6600   6.5019   7.8031  12.0147  12.4381
    13.2624  13.8002  15.0047  15.5482  15.9286  17.1274

          k = 0.7601-0.0724 0.4695 (  2713 PWs)   bands (ev):

   -32.2251  -0.4032   0.9740   2.0579   5.2200  10.5136  12.0246  12.5064
    13.1600  14.0173  16.5912  16.9837  17.4940  17.9465

          k = 0.7601-0.2172 0.0939 (  2716 PWs)   bands (ev):

   -32.2440  -1.2234   0.0027   1.9842   4.8634   9.0724  10.8992  12.8099
    13.0138  15.9285  16.9748  18.1156  18.3950  19.9594

          k = 0.7601-0.3619-0.2817 (  2713 PWs)   bands (ev):

   -32.2373  -1.2680   0.2495   2.9443   5.5334   8.1964  10.1316  12.0886
    13.9702  15.5590  16.1388  18.2206  18.9737  20.1231

     the Fermi energy is    13.5564 ev

!    total energy              =     -47.95036353 Ry
     estimated scf accuracy    <          6.6E-12 Ry
     smearing contrib. (-TS)   =       0.00004034 Ry
     internal energy E=F+TS    =     -47.95040388 Ry

     The total energy is F=E-TS. E is the sum of the following terms:
     one-electron contribution =      17.02521240 Ry
     hartree contribution      =       2.96612994 Ry
     xc contribution           =     -16.84232704 Ry
     ewald contribution        =     -51.09941918 Ry

     convergence has been achieved in   9 iterations

     Forces acting on atoms (cartesian axes, Ry/au):

     atom    1 type  1   force =    -0.00022401   -0.00011923    0.00000000
     atom    2 type  1   force =     0.00022401    0.00011923   -0.00000000
     atom    3 type  1   force =     0.00011923   -0.00022401   -0.00000000
     atom    4 type  1   force =    -0.00011923    0.00022401    0.00000000
     atom    5 type  2   force =     0.00000000   -0.00000000   -0.00000000
     The non-local contrib.  to forces
     atom    1 type  1   force =     0.01031140    0.02187258   -0.00000000
     atom    2 type  1   force =    -0.01031140   -0.02187258    0.00000000
     atom    3 type  1   force =    -0.02187258    0.01031140    0.00000000
     atom    4 type  1   force =     0.02187258   -0.01031140    0.00000000
     atom    5 type  2   force =     0.00000000    0.00000000    0.00000000
     The ionic contribution  to forces
     atom    1 type  1   force =    -0.05848915   -0.02456334   -0.00000000
     atom    2 type  1   force =     0.05848915    0.02456334   -0.00000000
     atom    3 type  1   force =     0.02456334   -0.05848915    0.00000000
     atom    4 type  1   force =    -0.02456334    0.05848915   -0.00000000
     atom    5 type  2   force =    -0.00000000   -0.00000000    0.00000000
     The local contribution  to forces
     atom    1 type  1   force =     0.04767031    0.00233960    0.00000000
     atom    2 type  1   force =    -0.04767031   -0.00233960    0.00000000
     atom    3 type  1   force =    -0.00233960    0.04767031    0.00000000
     atom    4 type  1   force =     0.00233960   -0.04767031   -0.00000000
     atom    5 type  2   force =     0.00000000    0.00000000    0.00000000
     The core correction contribution to forces
     atom    1 type  1   force =     0.00028372    0.00022996    0.00000000
     atom    2 type  1   force =    -0.00028372   -0.00022996    0.00000000
     atom    3 type  1   force =    -0.00022996    0.00028372   -0.00000000
     atom    4 type  1   force =     0.00022996   -0.00028372    0.00000000
     atom    5 type  2   force =     0.00000000    0.00000000    0.00000000
     The Hubbard contrib.    to forces
     atom    1 type  1   force =     0.00000000    0.00000000    0.00000000
     atom    2 type  1   force =     0.00000000    0.00000000    0.00000000
     atom    3 type  1   force =     0.00000000    0.00000000    0.00000000
     atom    4 type  1   force =     0.00000000    0.00000000    0.00000000
     atom    5 type  2   force =     0.00000000    0.00000000    0.00000000
     The SCF correction term to forces
     atom    1 type  1   force =    -0.00000030    0.00000197    0.00000000
     atom    2 type  1   force =     0.00000030   -0.00000197   -0.00000000
     atom    3 type  1   force =    -0.00000197   -0.00000030   -0.00000000
     atom    4 type  1   force =     0.00000197    0.00000030    0.00000000
     atom    5 type  2   force =     0.00000000    0.00000000   -0.00000000

     Total force =     0.000508     Total SCF correction =     0.000004


     Computing stress (Cartesian axis) and pressure

          total   stress  (Ry/bohr**3)                   (kbar)     P=      499.94
   0.00338721   0.00000000  -0.00000000          498.28        0.00       -0.00
  -0.00000000   0.00338721   0.00000000           -0.00      498.28        0.00
  -0.00000000   0.00000000   0.00342114           -0.00        0.00      503.27


     Writing all to output data dir ./output/SiLi.save/

     init_run     :      1.69s CPU      2.44s WALL (       2 calls)
     electrons    :    128.97s CPU    136.47s WALL (      10 calls)
     update_pot   :      1.93s CPU      1.97s WALL (       8 calls)
     forces       :      2.46s CPU      2.54s WALL (      10 calls)
     stress       :     13.56s CPU     13.89s WALL (      10 calls)

     Called by init_run:
     wfcinit      :      1.15s CPU      1.18s WALL (       2 calls)
     potinit      :      0.30s CPU      0.84s WALL (       2 calls)
     hinit0       :      0.21s CPU      0.35s WALL (       2 calls)

     Called by electrons:
     c_bands      :    112.82s CPU    118.67s WALL (      75 calls)
     sum_band     :     15.12s CPU     15.66s WALL (      75 calls)
     v_of_rho     :      1.05s CPU      2.46s WALL (      83 calls)
     mix_rho      :      0.10s CPU      0.22s WALL (      75 calls)

     Called by c_bands:
     init_us_2    :      1.85s CPU      2.02s WALL (   15824 calls)
     init_us_2:cp :      1.83s CPU      2.00s WALL (   15824 calls)
     cegterg      :    107.35s CPU    110.57s WALL (    6900 calls)

     Called by *egterg:
     cdiaghg      :      6.61s CPU      6.92s WALL (   29751 calls)
     h_psi        :     94.67s CPU     97.37s WALL (   30855 calls)
     g_psi        :      0.26s CPU      0.27s WALL (   23771 calls)

     Called by h_psi:
     h_psi:calbec :      4.86s CPU      5.01s WALL (   30855 calls)
     vloc_psi     :     85.61s CPU     87.93s WALL (   30855 calls)
     add_vuspsi   :      3.96s CPU      4.07s WALL (   30855 calls)

     General routines
     calbec       :      5.83s CPU      6.03s WALL (   35455 calls)
     fft          :      0.93s CPU      2.69s WALL (    1080 calls)
     ffts         :      0.08s CPU      0.16s WALL (      75 calls)
     fftw         :     89.97s CPU     92.30s WALL (  688118 calls)

     Parallel routines

     PWSCF        :   2m29.03s CPU   2m38.25s WALL


   This run was terminated on:  23: 7:27  21Jan2025            

=------------------------------------------------------------------------------=
   JOB DONE.
=------------------------------------------------------------------------------=
