
     Program PWSCF v.7.2 starts on 29Dec2024 at 21:30:11 

     This program is part of the open-source Quantum ESPRESSO suite
     for quantum simulation of materials; please cite
         "P. Giannozzi et al., J. Phys.:Condens. Matter 21 395502 (2009);
         "P. Giannozzi et al., J. Phys.:Condens. Matter 29 465901 (2017);
         "P. Giannozzi et al., J. Chem. Phys. 152 154105 (2020);
          URL http://www.quantum-espresso.org", 
     in publications or presentations arising from this work. More details at
     http://www.quantum-espresso.org/quote

     Parallel version (MPI & OpenMP), running on       8 processor cores
     Number of MPI processes:                 8
     Threads/MPI process:                     1

     MPI processes distributed on     1 nodes
     481832 MiB available memory on the printing compute node when the environment starts

     Waiting for input...
     Reading input from standard input

     Current dimensions of program PWSCF are:
     Max number of different atomic species (ntypx) = 10
     Max number of k-points (npk) =  40000
     Max angular momentum in pseudopotentials (lmaxx) =  4

     R & G space division:  proc/nbgrp/npool/nimage =       8
     Subspace diagonalization in iterative solution of the eigenvalue problem:
     a serial algorithm will be used


     Parallelization info
     --------------------
     sticks:   dense  smooth     PW     G-vecs:    dense   smooth      PW
     Min          69      69     22                 3241     3241     534
     Max          70      70     23                 3250     3250     537
     Sum         553     553    177                25949    25949    4279

     Using Slab Decomposition



     bravais-lattice index     =            6
     lattice parameter (alat)  =       4.6826  a.u.
     unit-cell volume          =     268.5937 (a.u.)^3
     number of atoms/cell      =            5
     number of atomic types    =            2
     number of electrons       =        19.00
     number of Kohn-Sham states=           14
     kinetic-energy cutoff     =      80.0000  Ry
     charge density cutoff     =     320.0000  Ry
     scf convergence threshold =      1.0E-08
     mixing beta               =       0.7000
     number of iterations used =            8  plain     mixing
     energy convergence thresh.=      1.0E-04
     force convergence thresh. =      1.0E-03
     press convergence thresh. =      1.0E+00
     Exchange-correlation= PBE
                           (   1   4   3   4   0   0   0)
     nstep                     =           50


     celldm(1)=   4.682637  celldm(2)=   0.000000  celldm(3)=   2.615919
     celldm(4)=   0.000000  celldm(5)=   0.000000  celldm(6)=   0.000000

     crystal axes: (cart. coord. in units of alat)
               a(1) = (   1.000000   0.000000   0.000000 )  
               a(2) = (   0.000000   1.000000   0.000000 )  
               a(3) = (   0.000000   0.000000   2.615919 )  

     reciprocal axes: (cart. coord. in units 2 pi/alat)
               b(1) = (  1.000000  0.000000  0.000000 )  
               b(2) = (  0.000000  1.000000  0.000000 )  
               b(3) = (  0.000000  0.000000  0.382275 )  


     PseudoPot. # 1 for Si read from file:
     ../pseudo/Si_ONCV_PBE_sr.upf
     MD5 check sum: e543d271109d17c80368dfa7c482276d
     Pseudo is Norm-conserving + core correction, Zval =  4.0
     Generated using ONCVPSP code by D. R. Hamann
     Using radial grid of 1510 points,  6 beta functions with: 
                l(1) =   0
                l(2) =   0
                l(3) =   1
                l(4) =   1
                l(5) =   2
                l(6) =   2

     PseudoPot. # 2 for Li read from file:
     ../pseudo/Li_ONCV_PBE_sr.upf
     MD5 check sum: 50ff420e78310ffa21704f3361e624a4
     Pseudo is Norm-conserving, Zval =  3.0
     Generated using ONCVPSP code by D. R. Hamann
     Using radial grid of 1944 points,  4 beta functions with: 
                l(1) =   0
                l(2) =   0
                l(3) =   1
                l(4) =   1

     atomic species   valence    mass     pseudopotential
        Si             4.00    28.08550     Si( 1.00)
        Li             3.00     6.94100     Li( 1.00)

     16 Sym. Ops., with inversion, found



   Cartesian axes

     site n.     atom                  positions (alat units)
         1           Si  tau(   1) = (   0.0000000   0.0000000   0.6402200  )
         2           Si  tau(   2) = (   0.0000000   0.0000000   1.9756989  )
         3           Si  tau(   3) = (   0.5000000   0.5000000   0.0000000  )
         4           Si  tau(   4) = (   0.5000000   0.5000000   1.3079594  )
         5           Li  tau(   5) = (   0.0000000   0.0000000   1.3079594  )

     number of k points=    30  Marzari-Vanderbilt smearing, width (Ry)=  0.0200
                       cart. coord. in units 2pi/alat
        k(    1) = (   0.0000000   0.0000000   0.0000000), wk =   0.0082305
        k(    2) = (   0.0000000   0.0000000   0.1274250), wk =   0.0164609
        k(    3) = (   0.0000000   0.1111111   0.0000000), wk =   0.0329218
        k(    4) = (   0.0000000   0.1111111   0.1274250), wk =   0.0658436
        k(    5) = (   0.0000000   0.2222222   0.0000000), wk =   0.0329218
        k(    6) = (   0.0000000   0.2222222   0.1274250), wk =   0.0658436
        k(    7) = (   0.0000000   0.3333333   0.0000000), wk =   0.0329218
        k(    8) = (   0.0000000   0.3333333   0.1274250), wk =   0.0658436
        k(    9) = (   0.0000000   0.4444444   0.0000000), wk =   0.0329218
        k(   10) = (   0.0000000   0.4444444   0.1274250), wk =   0.0658436
        k(   11) = (   0.1111111   0.1111111   0.0000000), wk =   0.0329218
        k(   12) = (   0.1111111   0.1111111   0.1274250), wk =   0.0658436
        k(   13) = (   0.1111111   0.2222222   0.0000000), wk =   0.0658436
        k(   14) = (   0.1111111   0.2222222   0.1274250), wk =   0.1316872
        k(   15) = (   0.1111111   0.3333333   0.0000000), wk =   0.0658436
        k(   16) = (   0.1111111   0.3333333   0.1274250), wk =   0.1316872
        k(   17) = (   0.1111111   0.4444444   0.0000000), wk =   0.0658436
        k(   18) = (   0.1111111   0.4444444   0.1274250), wk =   0.1316872
        k(   19) = (   0.2222222   0.2222222   0.0000000), wk =   0.0329218
        k(   20) = (   0.2222222   0.2222222   0.1274250), wk =   0.0658436
        k(   21) = (   0.2222222   0.3333333   0.0000000), wk =   0.0658436
        k(   22) = (   0.2222222   0.3333333   0.1274250), wk =   0.1316872
        k(   23) = (   0.2222222   0.4444444   0.0000000), wk =   0.0658436
        k(   24) = (   0.2222222   0.4444444   0.1274250), wk =   0.1316872
        k(   25) = (   0.3333333   0.3333333   0.0000000), wk =   0.0329218
        k(   26) = (   0.3333333   0.3333333   0.1274250), wk =   0.0658436
        k(   27) = (   0.3333333   0.4444444   0.0000000), wk =   0.0658436
        k(   28) = (   0.3333333   0.4444444   0.1274250), wk =   0.1316872
        k(   29) = (   0.4444444   0.4444444   0.0000000), wk =   0.0329218
        k(   30) = (   0.4444444   0.4444444   0.1274250), wk =   0.0658436

     Dense  grid:    25949 G-vectors     FFT dimensions: (  27,  27,  72)

     Estimated max dynamical RAM per process >      16.96 MB

     Estimated total dynamical RAM >     135.70 MB

     Initial potential from superposition of free atoms

     starting charge      18.9930, renormalised to      19.0000
     Starting wfcs are   18 randomized atomic wfcs

     total cpu time spent up to now is        1.3 secs

     Self-consistent Calculation

     iteration #  1     ecut=    80.00 Ry     beta= 0.70
     Davidson diagonalization with overlap
     ethr =  1.00E-02,  avg # of iterations =  6.0

     total cpu time spent up to now is        2.0 secs

     total energy              =     -45.36447274 Ry
     estimated scf accuracy    <       2.24730808 Ry

     iteration #  2     ecut=    80.00 Ry     beta= 0.70
     Davidson diagonalization with overlap
     ethr =  1.00E-02,  avg # of iterations =  5.3

     total cpu time spent up to now is        2.5 secs

     total energy              =     -43.20661808 Ry
     estimated scf accuracy    <      35.43304109 Ry

     iteration #  3     ecut=    80.00 Ry     beta= 0.70
     Davidson diagonalization with overlap
     ethr =  1.00E-02,  avg # of iterations =  3.8

     total cpu time spent up to now is        3.1 secs

     total energy              =     -46.99230608 Ry
     estimated scf accuracy    <       0.13808207 Ry

     iteration #  4     ecut=    80.00 Ry     beta= 0.70
     Davidson diagonalization with overlap
     ethr =  7.27E-04,  avg # of iterations =  5.6

     total cpu time spent up to now is        3.6 secs

     total energy              =     -47.02761202 Ry
     estimated scf accuracy    <       0.00224078 Ry

     iteration #  5     ecut=    80.00 Ry     beta= 0.70
     Davidson diagonalization with overlap
     ethr =  1.18E-05,  avg # of iterations =  7.5

     total cpu time spent up to now is        4.2 secs

     total energy              =     -47.02844963 Ry
     estimated scf accuracy    <       0.00024039 Ry

     iteration #  6     ecut=    80.00 Ry     beta= 0.70
     Davidson diagonalization with overlap
     ethr =  1.27E-06,  avg # of iterations =  4.2

     total cpu time spent up to now is        4.6 secs

     total energy              =     -47.02849999 Ry
     estimated scf accuracy    <       0.00010767 Ry

     iteration #  7     ecut=    80.00 Ry     beta= 0.70
     Davidson diagonalization with overlap
     ethr =  5.67E-07,  avg # of iterations =  1.1

     total cpu time spent up to now is        5.0 secs

     total energy              =     -47.02850251 Ry
     estimated scf accuracy    <       0.00001537 Ry

     iteration #  8     ecut=    80.00 Ry     beta= 0.70
     Davidson diagonalization with overlap
     ethr =  8.09E-08,  avg # of iterations =  2.3

     total cpu time spent up to now is        5.3 secs

     total energy              =     -47.02850534 Ry
     estimated scf accuracy    <       0.00000087 Ry

     iteration #  9     ecut=    80.00 Ry     beta= 0.70
     Davidson diagonalization with overlap
     ethr =  4.55E-09,  avg # of iterations =  2.9

     total cpu time spent up to now is        5.7 secs

     total energy              =     -47.02850543 Ry
     estimated scf accuracy    <       0.00000017 Ry

     iteration # 10     ecut=    80.00 Ry     beta= 0.70
     Davidson diagonalization with overlap
     ethr =  8.76E-10,  avg # of iterations =  2.3

     total cpu time spent up to now is        6.0 secs

     End of self-consistent calculation

          k = 0.0000 0.0000 0.0000 (  3251 PWs)   bands (ev):

   -31.9051  -0.0035   2.4611   4.0802  10.6052  14.9373  19.0129  19.0129
    19.8740  22.7505  22.7507  23.2061  23.6407  23.6407

          k = 0.0000 0.0000 0.1274 (  3247 PWs)   bands (ev):

   -31.9051   0.1692   1.6828   5.4685   8.7551  17.4850  19.0832  19.0832
    20.1313  21.8556  21.8955  21.8955  22.1450  25.3574

          k = 0.0000 0.1111 0.0000 (  3253 PWs)   bands (ev):

   -31.8916   0.2651   2.7459   4.2726  10.8621  15.0155  16.0024  19.2467
    19.2747  19.8983  22.6378  22.9905  23.8916  25.3932

          k = 0.0000 0.1111 0.1274 (  3257 PWs)   bands (ev):

   -31.8916   0.4502   1.9189   5.7150   8.9707  16.0790  17.3499  18.4379
    19.3164  21.6321  22.1401  22.4781  23.1766  24.5054

          k = 0.0000 0.2222 0.0000 (  3253 PWs)   bands (ev):

   -31.8572   1.0603   3.5975   4.8335  11.6200  12.6159  14.7991  16.0383
    16.7648  19.9424  23.4790  23.7060  24.4627  24.6445

          k = 0.0000 0.2222 0.1274 (  3258 PWs)   bands (ev):

   -31.8572   1.2842   2.6154   6.4427   9.5877  12.9511  14.1136  18.1006
    18.5819  20.0097  21.2127  22.8740  23.0912  25.2867

          k = 0.0000 0.3333 0.0000 (  3247 PWs)   bands (ev):

   -31.8179   2.3390   5.0081   5.6747   9.7832  12.1832  12.3487  13.2940
    17.3005  20.2039  21.0664  23.2240  24.8612  25.8988

          k = 0.0000 0.3333 0.1274 (  3241 PWs)   bands (ev):

   -31.8179   2.6283   3.7322   7.5610   9.8277  10.5720  11.3366  14.9587
    17.6281  20.0771  21.1269  24.0952  24.1582  25.7296

          k = 0.0000 0.4444 0.0000 (  3244 PWs)   bands (ev):

   -31.7921   3.9102   6.1177   6.9640   8.0162   9.4396  10.3220  14.8001
    17.4034  18.5350  21.1339  22.3967  25.6379  26.9475

          k = 0.0000 0.4444 0.1274 (  3242 PWs)   bands (ev):

   -31.7921   4.2151   5.1994   7.2414   8.1803   9.7697  11.4538  13.2885
    15.1039  21.5499  22.4361  23.4573  25.6788  25.8738

          k = 0.1111 0.1111 0.0000 (  3259 PWs)   bands (ev):

   -31.8785   0.5330   3.0302   4.4702  11.1194  15.1078  15.2234  18.1109
    18.5753  19.5590  21.0228  21.1842  24.9919  26.9889

          k = 0.1111 0.1111 0.1274 (  3261 PWs)   bands (ev):

   -31.8785   0.7303   2.1561   5.9634   9.1939  15.2443  17.5376  17.5550
    18.2843  20.0676  21.4731  22.4324  23.7340  24.5505

          k = 0.1111 0.2222 0.0000 (  3260 PWs)   bands (ev):

   -31.8454   1.3263   3.8806   5.0473  11.8786  12.5675  15.0417  16.2552
    16.4629  18.3344  21.2085  21.2800  23.9426  26.2113

          k = 0.1111 0.2222 0.1274 (  3254 PWs)   bands (ev):

   -31.8454   1.5611   2.8568   6.6976   9.8347  12.8281  14.2927  17.9849
    18.3263  18.6132  20.2829  21.4305  22.9896  24.1899

          k = 0.1111 0.3333 0.0000 (  3253 PWs)   bands (ev):

   -31.8076   2.6025   5.2892   5.9193   9.9007  12.4506  12.4798  13.5436
    17.2864  19.2496  20.4188  22.1090  22.6329  23.9139

          k = 0.1111 0.3333 0.1274 (  3235 PWs)   bands (ev):

   -31.8076   2.8988   3.9849   7.8300   9.9972  10.8312  11.4428  15.1150
    17.7541  19.3981  19.9784  21.4278  23.9604  25.0462

          k = 0.1111 0.4444 0.0000 (  3241 PWs)   bands (ev):

   -31.7828   4.1759   6.3812   7.2419   8.2326   9.7130  10.3902  15.0545
    17.6610  18.6065  20.1231  21.9188  23.3143  24.2219

          k = 0.1111 0.4444 0.1274 (  3239 PWs)   bands (ev):

   -31.7828   4.4799   5.4758   7.4813   8.3867   9.9685  11.7130  13.4532
    15.2636  20.8390  21.3700  22.6719  23.5832  24.0301

          k = 0.2222 0.2222 0.0000 (  3267 PWs)   bands (ev):

   -31.8156   2.1140   4.7274   5.6739  11.8718  12.6433  15.3625  15.8909
    16.1450  16.3231  18.1061  19.8706  24.5352  24.8843

          k = 0.2222 0.2222 0.1274 (  3251 PWs)   bands (ev):

   -31.8156   2.3816   3.5723   7.4529  10.5564  12.0072  14.3119  15.9708
    16.9300  18.2697  19.7067  20.5227  21.4307  23.5243

          k = 0.2222 0.3333 0.0000 (  3243 PWs)   bands (ev):

   -31.7815   3.3817   6.1297   6.6380  10.0759  12.8450  13.2440  14.2464
    16.3772  17.1776  18.7072  19.7811  21.3548  22.8420

          k = 0.2222 0.3333 0.1274 (  3232 PWs)   bands (ev):

   -31.7815   3.6975   4.7364   8.6301  10.2533  11.5792  11.8478  15.4725
    16.4677  17.4725  18.6842  20.4759  21.3176  22.9603

          k = 0.2222 0.4444 0.0000 (  3228 PWs)   bands (ev):

   -31.7591   4.9594   7.1460   8.0720   8.8033  10.5268  10.6332  15.7910
    17.5544  18.4039  18.5299  19.8427  20.6108  20.9979

          k = 0.2222 0.4444 0.1274 (  3242 PWs)   bands (ev):

   -31.7591   5.2592   6.2985   8.1195   8.9752  10.5838  12.4740  13.9327
    15.7260  18.2261  18.8581  20.0145  21.0100  22.6604

          k = 0.3333 0.3333 0.0000 (  3228 PWs)   bands (ev):

   -31.7517   4.6334   7.5202   7.7681   9.7201  13.2193  13.9317  14.1664
    14.7909  16.4623  17.0904  18.2964  20.8859  21.7852

          k = 0.3333 0.3333 0.1274 (  3235 PWs)   bands (ev):

   -31.7517   4.9678   5.9705   9.8538   9.9383  12.1674  12.8962  13.9438
    15.4026  16.1187  18.5698  19.2757  19.7210  20.4946

          k = 0.3333 0.4444 0.0000 (  3241 PWs)   bands (ev):

   -31.7321   6.2017   8.2255   9.4410   9.4971  11.2676  11.8447  14.6210
    16.4142  16.5660  17.7095  18.0458  19.2176  19.4000

          k = 0.3333 0.4444 0.1274 (  3237 PWs)   bands (ev):

   -31.7321   6.4850   7.6430   8.7292  10.0222  11.6891  13.5917  14.7517
    14.8302  15.7755  17.1438  17.4697  18.4082  19.9676

          k = 0.4444 0.4444 0.0000 (  3242 PWs)   bands (ev):

   -31.7144   7.6763   8.6475  10.6869  11.3061  12.1498  12.4033  13.0893
    14.0610  14.6284  16.3418  16.9034  18.1566  19.3659

          k = 0.4444 0.4444 0.1274 (  3260 PWs)   bands (ev):

   -31.7144   7.8943   8.7803   9.4572  11.0979  12.6464  13.0155  13.6983
    14.6377  15.0427  16.0443  16.4905  18.1920  18.2635

     the Fermi energy is    18.2591 ev

!    total energy              =     -47.02850546 Ry
     estimated scf accuracy    <          3.7E-10 Ry
     smearing contrib. (-TS)   =      -0.00193488 Ry
     internal energy E=F+TS    =     -47.02657058 Ry

     The total energy is F=E-TS. E is the sum of the following terms:
     one-electron contribution =      17.27131880 Ry
     hartree contribution      =       5.68614551 Ry
     xc contribution           =     -17.77999418 Ry
     ewald contribution        =     -52.20404071 Ry

     convergence has been achieved in  10 iterations

     Forces acting on atoms (cartesian axes, Ry/au):

     atom    1 type  1   force =     0.00000000    0.00000000   -0.31601596
     atom    2 type  1   force =     0.00000000    0.00000000    0.31601596
     atom    3 type  1   force =     0.00000000    0.00000000    0.00000000
     atom    4 type  1   force =     0.00000000    0.00000000    0.00000000
     atom    5 type  2   force =     0.00000000    0.00000000    0.00000000
     The non-local contrib.  to forces
     atom    1 type  1   force =     0.00000000    0.00000000   -0.19722413
     atom    2 type  1   force =     0.00000000    0.00000000    0.19722413
     atom    3 type  1   force =     0.00000000    0.00000000    0.00000000
     atom    4 type  1   force =     0.00000000    0.00000000    0.00000000
     atom    5 type  2   force =     0.00000000    0.00000000    0.00000000
     The ionic contribution  to forces
     atom    1 type  1   force =    -0.00000000   -0.00000000   -3.55188623
     atom    2 type  1   force =    -0.00000000   -0.00000000    3.55188623
     atom    3 type  1   force =     0.00000000    0.00000000   -0.00000000
     atom    4 type  1   force =     0.00000000    0.00000000    0.00000000
     atom    5 type  2   force =    -0.00000000   -0.00000000    0.00000000
     The local contribution  to forces
     atom    1 type  1   force =     0.00000000    0.00000000    3.42072689
     atom    2 type  1   force =    -0.00000000   -0.00000000   -3.42072689
     atom    3 type  1   force =    -0.00000000   -0.00000000    0.00000000
     atom    4 type  1   force =     0.00000000    0.00000000    0.00000000
     atom    5 type  2   force =     0.00000000    0.00000000    0.00000000
     The core correction contribution to forces
     atom    1 type  1   force =     0.00000000    0.00000000    0.01234297
     atom    2 type  1   force =     0.00000000    0.00000000   -0.01234297
     atom    3 type  1   force =    -0.00000000   -0.00000000    0.00000000
     atom    4 type  1   force =    -0.00000000   -0.00000000   -0.00000000
     atom    5 type  2   force =     0.00000000    0.00000000    0.00000000
     The Hubbard contrib.    to forces
     atom    1 type  1   force =     0.00000000    0.00000000    0.00000000
     atom    2 type  1   force =     0.00000000    0.00000000    0.00000000
     atom    3 type  1   force =     0.00000000    0.00000000    0.00000000
     atom    4 type  1   force =     0.00000000    0.00000000    0.00000000
     atom    5 type  2   force =     0.00000000    0.00000000    0.00000000
     The SCF correction term to forces
     atom    1 type  1   force =     0.00000000   -0.00000000    0.00002454
     atom    2 type  1   force =     0.00000000   -0.00000000   -0.00002454
     atom    3 type  1   force =    -0.00000000    0.00000000   -0.00000000
     atom    4 type  1   force =    -0.00000000   -0.00000000    0.00000000
     atom    5 type  2   force =     0.00000000    0.00000000   -0.00000000

     Total force =     0.446914     Total SCF correction =     0.000035


     Computing stress (Cartesian axis) and pressure

          total   stress  (Ry/bohr**3)                   (kbar)     P=     1636.32
   0.01031720   0.00000000   0.00000000         1517.71        0.00        0.00
   0.00000000   0.01031720   0.00000000            0.00     1517.71        0.00
   0.00000000   0.00000000   0.01273597            0.00        0.00     1873.53


     BFGS Geometry Optimization
     Energy error            =      0.0E+00 Ry
     Gradient error          =      3.2E-01 Ry/Bohr
     Cell gradient error     =      1.4E+03 kbar

     number of scf cycles    =   1
     number of bfgs steps    =   0

     enthalpy           new  =     -46.1155741301 Ry

     new trust radius        =       0.5000000000 bohr
ibrav =      6
 celldm(1) =      5.21189914
 celldm(3) =      2.70879342
Input lattice vectors:
     1.11302649     0.00000000     0.00000000
     0.00000000     1.11302649     0.00000000
     0.00000000     0.00000000     3.01495885
New lattice vectors in INITIAL alat:
     1.11302649     0.00000000     0.00000000
     0.00000000     1.11302649     0.00000000
     0.00000000     0.00000000     3.01495885
New lattice vectors in NEW alat (for information only):
     1.00000000     0.00000000     0.00000000
     0.00000000     1.00000000     0.00000000
     0.00000000     0.00000000     2.70879342
Discrepancy in bohr =     0.000000    0.000000    0.000000
     new conv_thr            =       0.0000000100 Ry

     new unit-cell volume =    383.49870 a.u.^3 (    56.82864 Ang^3 )
     density =      3.48546 g/cm^3

CELL_PARAMETERS (alat=  4.68263708)
   1.113026495   0.000000000   0.000000000
   0.000000000   1.113026495   0.000000000
   0.000000000   0.000000000   3.014958847

ATOMIC_POSITIONS (crystal)
Si            0.0000000000        0.0000000000        0.2278808006
Si            0.0000000000        0.0000000000        0.7721191994
Si            0.5000000000        0.5000000000        0.0000000000
Si            0.5000000000        0.5000000000        0.5000000000
Li            0.0000000000        0.0000000000        0.5000000000



     Writing config-only to output data dir ./output/SiLi.save/
     NEW-OLD atomic charge density approx. for the potential
     extrapolated charge   24.69074, renormalised to   19.00000

     total cpu time spent up to now is        7.4 secs

     Self-consistent Calculation

     iteration #  1     ecut=    80.00 Ry     beta= 0.70
     Davidson diagonalization with overlap
     c_bands:  2 eigenvalues not converged
     c_bands:  2 eigenvalues not converged
     c_bands:  1 eigenvalues not converged
     c_bands:  1 eigenvalues not converged
     c_bands:  3 eigenvalues not converged
     c_bands:  1 eigenvalues not converged
     c_bands:  1 eigenvalues not converged
     c_bands:  2 eigenvalues not converged
     c_bands:  2 eigenvalues not converged
     c_bands:  2 eigenvalues not converged
     c_bands:  1 eigenvalues not converged
     c_bands:  2 eigenvalues not converged
     c_bands:  1 eigenvalues not converged
     ethr =  1.00E-06,  avg # of iterations = 18.7

     total cpu time spent up to now is        9.0 secs

     total energy              =     -37.71824210 Ry
     estimated scf accuracy    <      10.57101731 Ry

     iteration #  2     ecut=    80.00 Ry     beta= 0.70
     Davidson diagonalization with overlap
     ethr =  1.00E-02,  avg # of iterations =  9.3

     total cpu time spent up to now is        9.8 secs

     total energy              =     -44.96236190 Ry
     estimated scf accuracy    <     110.76050414 Ry

     iteration #  3     ecut=    80.00 Ry     beta= 0.70
     Davidson diagonalization with overlap
     ethr =  1.00E-02,  avg # of iterations =  4.9

     total cpu time spent up to now is       10.5 secs

     total energy              =     -47.98298663 Ry
     estimated scf accuracy    <      17.80070182 Ry

     iteration #  4     ecut=    80.00 Ry     beta= 0.70
     Davidson diagonalization with overlap
     ethr =  1.00E-02,  avg # of iterations =  2.3

     total cpu time spent up to now is       10.9 secs

     total energy              =     -47.66115750 Ry
     estimated scf accuracy    <       6.25988002 Ry

     iteration #  5     ecut=    80.00 Ry     beta= 0.70
     Davidson diagonalization with overlap
     ethr =  1.00E-02,  avg # of iterations =  1.9

     total cpu time spent up to now is       11.2 secs

     total energy              =     -47.84433529 Ry
     estimated scf accuracy    <       1.17307902 Ry

     iteration #  6     ecut=    80.00 Ry     beta= 0.70
     Davidson diagonalization with overlap
     ethr =  6.17E-03,  avg # of iterations =  1.1

     total cpu time spent up to now is       11.5 secs

     total energy              =     -47.70802814 Ry
     estimated scf accuracy    <       0.78419637 Ry

     iteration #  7     ecut=    80.00 Ry     beta= 0.70
     Davidson diagonalization with overlap
     ethr =  4.13E-03,  avg # of iterations =  2.0

     total cpu time spent up to now is       11.9 secs

     total energy              =     -47.78276047 Ry
     estimated scf accuracy    <       0.00614198 Ry

     iteration #  8     ecut=    80.00 Ry     beta= 0.70
     Davidson diagonalization with overlap
     c_bands:  1 eigenvalues not converged
     ethr =  3.23E-05,  avg # of iterations = 10.0

     total cpu time spent up to now is       12.6 secs

     total energy              =     -47.79259188 Ry
     estimated scf accuracy    <       0.00543746 Ry

     iteration #  9     ecut=    80.00 Ry     beta= 0.70
     Davidson diagonalization with overlap
     ethr =  2.86E-05,  avg # of iterations =  2.6

     total cpu time spent up to now is       13.0 secs

     total energy              =     -47.78329502 Ry
     estimated scf accuracy    <       0.02851216 Ry

     iteration # 10     ecut=    80.00 Ry     beta= 0.70
     Davidson diagonalization with overlap
     ethr =  2.86E-05,  avg # of iterations =  3.6

     total cpu time spent up to now is       13.4 secs

     total energy              =     -47.78981157 Ry
     estimated scf accuracy    <       0.01231960 Ry

     iteration # 11     ecut=    80.00 Ry     beta= 0.70
     Davidson diagonalization with overlap
     ethr =  2.86E-05,  avg # of iterations =  1.1

     total cpu time spent up to now is       13.7 secs

     total energy              =     -47.78968660 Ry
     estimated scf accuracy    <       0.00304765 Ry

     iteration # 12     ecut=    80.00 Ry     beta= 0.70
     Davidson diagonalization with overlap
     ethr =  1.60E-05,  avg # of iterations =  1.4

     total cpu time spent up to now is       14.0 secs

     total energy              =     -47.78988991 Ry
     estimated scf accuracy    <       0.00019257 Ry

     iteration # 13     ecut=    80.00 Ry     beta= 0.70
     Davidson diagonalization with overlap
     ethr =  1.01E-06,  avg # of iterations =  3.6

     total cpu time spent up to now is       14.4 secs

     total energy              =     -47.78985470 Ry
     estimated scf accuracy    <       0.00020561 Ry

     iteration # 14     ecut=    80.00 Ry     beta= 0.70
     Davidson diagonalization with overlap
     ethr =  1.01E-06,  avg # of iterations =  1.7

     total cpu time spent up to now is       14.7 secs

     total energy              =     -47.78987816 Ry
     estimated scf accuracy    <       0.00000033 Ry

     iteration # 15     ecut=    80.00 Ry     beta= 0.70
     Davidson diagonalization with overlap
     c_bands:  1 eigenvalues not converged
     ethr =  1.74E-09,  avg # of iterations =  6.1

     total cpu time spent up to now is       15.2 secs

     total energy              =     -47.78987932 Ry
     estimated scf accuracy    <       0.00000021 Ry

     iteration # 16     ecut=    80.00 Ry     beta= 0.70
     Davidson diagonalization with overlap
     ethr =  1.08E-09,  avg # of iterations =  2.1

     total cpu time spent up to now is       15.6 secs

     total energy              =     -47.78987937 Ry
     estimated scf accuracy    <       0.00000003 Ry

     iteration # 17     ecut=    80.00 Ry     beta= 0.70
     Davidson diagonalization with overlap
     ethr =  1.81E-10,  avg # of iterations =  2.3

     total cpu time spent up to now is       16.0 secs

     total energy              =     -47.78987938 Ry
     estimated scf accuracy    <       0.00000009 Ry

     iteration # 18     ecut=    80.00 Ry     beta= 0.70
     Davidson diagonalization with overlap
     ethr =  1.81E-10,  avg # of iterations =  1.2

     total cpu time spent up to now is       16.3 secs

     total energy              =     -47.78987938 Ry
     estimated scf accuracy    <       0.00000002 Ry

     iteration # 19     ecut=    80.00 Ry     beta= 0.70
     Davidson diagonalization with overlap
     ethr =  8.25E-11,  avg # of iterations =  1.6

     total cpu time spent up to now is       16.6 secs

     End of self-consistent calculation

          k = 0.0000 0.0000 0.0000 (  3251 PWs)   bands (ev):

   -34.7246  -2.8125  -0.3383   0.3277   6.1884   8.0799  13.5535  13.5535
    15.3823  15.3823  15.4188  16.7601  16.7601  17.4520

          k = 0.0000 0.0000 0.1106 (  3247 PWs)   bands (ev):

   -34.7245  -2.6897  -1.1740   1.8091   4.1126  10.6539  13.7207  13.7207
    14.4127  14.7526  14.7526  15.6967  16.5098  17.8570

          k = 0.0000 0.0998 0.0000 (  3253 PWs)   bands (ev):

   -34.7199  -2.5842  -0.1066   0.5040   6.4070   8.1910  11.2496  13.0567
    13.7621  14.0422  15.5896  16.8161  16.9636  18.5037

          k = 0.0000 0.0998 0.1106 (  3257 PWs)   bands (ev):

   -34.7199  -2.4572  -0.9697   2.0106   4.3100  10.6192  11.6015  12.2351
    13.9298  14.6796  14.9589  15.3344  17.0713  17.7205

          k = 0.0000 0.1997 0.0000 (  3253 PWs)   bands (ev):

   -34.7083  -1.9028   0.5864   1.0225   7.0570   7.6982   9.0286  10.5766
    10.8408  14.3870  16.2105  16.8662  17.3999  17.5687

          k = 0.0000 0.1997 0.1106 (  3258 PWs)   bands (ev):

   -34.7083  -1.7623  -0.3643   2.6037   4.8797   8.3614   9.1075  11.6875
    12.3525  14.5563  14.6687  15.3085  15.5767  17.9715

          k = 0.0000 0.2995 0.0000 (  3247 PWs)   bands (ev):

   -34.6950  -0.7802   1.7314   1.8284   5.2816   7.4957   7.7403   8.3854
    10.4187  14.1483  15.3543  15.4236  17.2411  18.5476

          k = 0.0000 0.2995 0.1106 (  3241 PWs)   bands (ev):

   -34.6949  -0.6147   0.6115   3.5063   5.2484   6.0401   6.9073   9.6932
    11.8774  12.7843  15.5953  16.2812  16.6007  17.8586

          k = 0.0000 0.3993 0.0000 (  3244 PWs)   bands (ev):

   -34.6864   0.7387   2.3959   3.2814   3.3382   5.5025   5.8926   9.7008
    11.6122  11.8079  13.3551  16.8390  18.6004  18.8765

          k = 0.0000 0.3993 0.1106 (  3242 PWs)   bands (ev):

   -34.6863   0.9488   1.7952   3.1040   3.8480   5.6260   6.8928   8.1800
     9.6626  14.0934  15.8310  17.0102  17.6340  18.0079

          k = 0.0998 0.0998 0.0000 (  3259 PWs)   bands (ev):

   -34.7155  -2.3562   0.1250   0.6828   6.6256   8.3359  10.8191  12.2019
    12.6917  14.0092  14.1523  14.5345  18.9765  19.0698

          k = 0.0998 0.0998 0.1106 (  3261 PWs)   bands (ev):

   -34.7155  -2.2250  -0.7650   2.2137   4.5107  10.8003  11.0359  11.9431
    12.4103  13.2065  15.1269  15.2061  15.9943  17.9860

          k = 0.0998 0.1997 0.0000 (  3260 PWs)   bands (ev):

   -34.7043  -1.6755   0.8174   1.2091   7.2754   7.9107   9.1585  10.3846
    11.0497  12.5224  14.3100  14.9123  17.1314  17.9927

          k = 0.0998 0.1997 0.1106 (  3254 PWs)   bands (ev):

   -34.7041  -1.5310  -0.1580   2.8121   5.0913   8.5163   9.2453  11.4896
    12.3513  12.7672  13.5554  14.8739  15.7444  16.4488

          k = 0.0998 0.2995 0.0000 (  3253 PWs)   bands (ev):

   -34.6913  -0.5540   1.9616   2.0309   5.4838   7.6585   7.9601   8.6032
    10.3811  13.4136  14.3232  14.8352  16.0419  16.1261

          k = 0.0998 0.2995 0.1106 (  3235 PWs)   bands (ev):

   -34.6911  -0.3849   0.8219   3.7276   5.4701   6.2588   7.0299   9.8401
    12.0663  12.5447  13.8191  14.4698  16.6215  17.2625

          k = 0.0998 0.3993 0.0000 (  3241 PWs)   bands (ev):

   -34.6827   0.9644   2.6249   3.5112   3.5510   5.7258   6.0146   9.9156
    11.6611  12.0214  13.2564  15.0030  16.5300  16.9035

          k = 0.0998 0.3993 0.1106 (  3239 PWs)   bands (ev):

   -34.6827   1.1766   2.0194   3.3249   4.0621   5.8062   7.1095   8.3154
     9.8381  13.9032  15.1668  15.4887  16.2766  16.9248

          k = 0.1997 0.1997 0.0000 (  3267 PWs)   bands (ev):

   -34.6939  -0.9970   1.5083   1.7600   7.9245   8.1855   8.8165  10.0820
    10.2931  11.3909  12.0648  12.9702  17.1309  17.7045

          k = 0.1997 0.1997 0.1106 (  3251 PWs)   bands (ev):

   -34.6936  -0.8398   0.4544   3.4281   5.7095   8.4062   9.3161   9.8736
    10.7135  12.6183  12.8577  13.8860  15.4318  15.8243

          k = 0.1997 0.2995 0.0000 (  3243 PWs)   bands (ev):

   -34.6816   0.1209   2.6290   2.6500   6.0500   8.0512   8.6160   9.2419
     9.7494  11.1314  12.8148  12.9734  15.0291  15.5466

          k = 0.1997 0.2995 0.1106 (  3232 PWs)   bands (ev):

   -34.6815   0.3015   1.4470   4.3848   6.1150   6.8991   7.2987  10.0693
    10.6295  11.4663  12.6377  13.6865  14.5522  15.8797

          k = 0.1997 0.3993 0.0000 (  3228 PWs)   bands (ev):

   -34.6736   1.6371   3.3079   4.1740   4.1980   6.3536   6.3929  10.5447
    11.1916  12.3946  12.6312  13.2505  13.4686  14.3667

          k = 0.1997 0.3993 0.1106 (  3242 PWs)   bands (ev):

   -34.6738   1.8563   2.6865   3.9779   4.6904   6.3219   7.7513   8.6801
    10.3550  12.0254  12.6841  13.6453  14.2498  15.3618

          k = 0.2995 0.2995 0.0000 (  3228 PWs)   bands (ev):

   -34.6705   1.2321   3.5835   3.7874   6.4110   7.9149   8.3183   9.6244
     9.7255  10.3607  10.6999  12.0896  13.4691  15.3542

          k = 0.2995 0.2995 0.1106 (  3235 PWs)   bands (ev):

   -34.6706   1.4335   2.4643   5.4380   6.6315   7.4880   7.5479   8.4095
     9.6462  10.8647  12.1612  13.1372  13.6816  13.7885

          k = 0.2995 0.3993 0.0000 (  3241 PWs)   bands (ev):

   -34.6635   2.7404   4.4244   5.1239   5.3319   6.8145   7.4888   9.0132
    10.6425  11.0819  11.1580  12.0011  12.3220  13.5157

          k = 0.2995 0.3993 0.1106 (  3237 PWs)   bands (ev):

   -34.6635   2.9727   3.7741   5.0017   5.6653   7.0757   8.7503   8.8609
     9.6567  10.2846  11.0310  11.6365  11.8689  13.6796

          k = 0.3993 0.3993 0.0000 (  3242 PWs)   bands (ev):

   -34.6567   4.2133   5.5220   6.0796   6.8749   7.0952   7.4339   8.3674
     8.7383   9.2161   9.5576  11.2532  11.5368  13.2429

          k = 0.3993 0.3993 0.1106 (  3260 PWs)   bands (ev):

   -34.6569   4.4629   5.2040   5.7421   6.6622   7.1516   7.8842   8.4011
     8.9792   9.8163   9.9842  10.5216  12.0566  12.6491

     the Fermi energy is    12.0983 ev

!    total energy              =     -47.78987938 Ry
     estimated scf accuracy    <          7.5E-10 Ry
     smearing contrib. (-TS)   =      -0.00074484 Ry
     internal energy E=F+TS    =     -47.78913454 Ry

     The total energy is F=E-TS. E is the sum of the following terms:
     one-electron contribution =      11.18978257 Ry
     hartree contribution      =       4.82156561 Ry
     xc contribution           =     -16.47520881 Ry
     ewald contribution        =     -47.32527390 Ry

     convergence has been achieved in  19 iterations

     Forces acting on atoms (cartesian axes, Ry/au):

     atom    1 type  1   force =     0.00000000    0.00000000   -0.08332064
     atom    2 type  1   force =     0.00000000    0.00000000    0.08332064
     atom    3 type  1   force =     0.00000000    0.00000000    0.00000000
     atom    4 type  1   force =     0.00000000    0.00000000    0.00000000
     atom    5 type  2   force =     0.00000000    0.00000000    0.00000000
     The non-local contrib.  to forces
     atom    1 type  1   force =     0.00000000    0.00000000   -0.11953161
     atom    2 type  1   force =     0.00000000    0.00000000    0.11953161
     atom    3 type  1   force =     0.00000000    0.00000000    0.00000000
     atom    4 type  1   force =     0.00000000    0.00000000    0.00000000
     atom    5 type  2   force =     0.00000000    0.00000000    0.00000000
     The ionic contribution  to forces
     atom    1 type  1   force =    -0.00000000   -0.00000000   -1.70308479
     atom    2 type  1   force =    -0.00000000   -0.00000000    1.70308479
     atom    3 type  1   force =    -0.00000000    0.00000000    0.00000000
     atom    4 type  1   force =    -0.00000000   -0.00000000   -0.00000000
     atom    5 type  2   force =    -0.00000000   -0.00000000   -0.00000000
     The local contribution  to forces
     atom    1 type  1   force =     0.00000000    0.00000000    1.73280847
     atom    2 type  1   force =     0.00000000   -0.00000000   -1.73280847
     atom    3 type  1   force =    -0.00000000   -0.00000000   -0.00000000
     atom    4 type  1   force =    -0.00000000   -0.00000000    0.00000000
     atom    5 type  2   force =    -0.00000000    0.00000000    0.00000000
     The core correction contribution to forces
     atom    1 type  1   force =     0.00000000    0.00000000    0.00652920
     atom    2 type  1   force =     0.00000000    0.00000000   -0.00652920
     atom    3 type  1   force =    -0.00000000   -0.00000000    0.00000000
     atom    4 type  1   force =     0.00000000    0.00000000    0.00000000
     atom    5 type  2   force =     0.00000000    0.00000000    0.00000000
     The Hubbard contrib.    to forces
     atom    1 type  1   force =     0.00000000    0.00000000    0.00000000
     atom    2 type  1   force =     0.00000000    0.00000000    0.00000000
     atom    3 type  1   force =     0.00000000    0.00000000    0.00000000
     atom    4 type  1   force =     0.00000000    0.00000000    0.00000000
     atom    5 type  2   force =     0.00000000    0.00000000    0.00000000
     The SCF correction term to forces
     atom    1 type  1   force =    -0.00000000    0.00000000   -0.00004190
     atom    2 type  1   force =     0.00000000    0.00000000    0.00004190
     atom    3 type  1   force =     0.00000000   -0.00000000    0.00000000
     atom    4 type  1   force =     0.00000000   -0.00000000    0.00000000
     atom    5 type  2   force =    -0.00000000   -0.00000000   -0.00000000

     Total force =     0.117833     Total SCF correction =     0.000059


     Computing stress (Cartesian axis) and pressure

          total   stress  (Ry/bohr**3)                   (kbar)     P=      384.17
   0.00270618   0.00000000   0.00000000          398.09        0.00        0.00
   0.00000000   0.00270618   0.00000000            0.00      398.09        0.00
   0.00000000   0.00000000   0.00242223            0.00        0.00      356.32

     Energy error            =      3.7E-01 Ry
     Gradient error          =      8.3E-02 Ry/Bohr
     Cell gradient error     =      1.4E+02 kbar

     number of scf cycles    =   2
     number of bfgs steps    =   1

     enthalpy           old  =     -46.1155741301 Ry
     enthalpy           new  =     -46.4863937941 Ry

     CASE: enthalpy          _new < enthalpy          _old

     new trust radius        =       0.1188666687 bohr
ibrav =      6
 celldm(1) =      5.14850206
 celldm(3) =      2.69808512
Input lattice vectors:
     1.09948774     0.00000000     0.00000000
     0.00000000     1.09948774     0.00000000
     0.00000000     0.00000000     2.96651151
New lattice vectors in INITIAL alat:
     1.09948774     0.00000000     0.00000000
     0.00000000     1.09948774     0.00000000
     0.00000000     0.00000000     2.96651151
New lattice vectors in NEW alat (for information only):
     1.00000000     0.00000000     0.00000000
     0.00000000     1.00000000     0.00000000
     0.00000000     0.00000000     2.69808512
Discrepancy in bohr =     0.000000    0.000000    0.000000
     new conv_thr            =       0.0000000083 Ry

     new unit-cell volume =    368.21232 a.u.^3 (    54.56344 Ang^3 )
     density =      3.63016 g/cm^3

CELL_PARAMETERS (alat=  4.68263708)
   1.099487740   0.000000000   0.000000000
   0.000000000   1.099487740   0.000000000
   0.000000000   0.000000000   2.966511505

ATOMIC_POSITIONS (crystal)
Si            0.0000000000        0.0000000000        0.2194612638
Si            0.0000000000        0.0000000000        0.7805387362
Si            0.5000000000        0.5000000000        0.0000000000
Si            0.5000000000        0.5000000000        0.5000000000
Li            0.0000000000        0.0000000000        0.5000000000



     Writing config-only to output data dir ./output/SiLi.save/
     NEW-OLD atomic charge density approx. for the potential
     extrapolated charge   18.21150, renormalised to   19.00000

     total cpu time spent up to now is       17.9 secs

     Self-consistent Calculation

     iteration #  1     ecut=    80.00 Ry     beta= 0.70
     Davidson diagonalization with overlap
     c_bands:  1 eigenvalues not converged
     c_bands:  1 eigenvalues not converged
     ethr =  1.00E-06,  avg # of iterations = 10.2

     total cpu time spent up to now is       18.9 secs

     total energy              =     -47.69749958 Ry
     estimated scf accuracy    <       0.06027930 Ry

     iteration #  2     ecut=    80.00 Ry     beta= 0.70
     Davidson diagonalization with overlap
     ethr =  3.17E-04,  avg # of iterations =  5.6

     total cpu time spent up to now is       19.4 secs

     total energy              =     -47.62258582 Ry
     estimated scf accuracy    <       2.17039207 Ry

     iteration #  3     ecut=    80.00 Ry     beta= 0.70
     Davidson diagonalization with overlap
     ethr =  3.17E-04,  avg # of iterations =  4.2

     total cpu time spent up to now is       19.9 secs

     total energy              =     -47.76359275 Ry
     estimated scf accuracy    <       0.07837270 Ry

     iteration #  4     ecut=    80.00 Ry     beta= 0.70
     Davidson diagonalization with overlap
     ethr =  3.17E-04,  avg # of iterations =  1.1

     total cpu time spent up to now is       20.2 secs

     total energy              =     -47.76228341 Ry
     estimated scf accuracy    <       0.02883895 Ry

     iteration #  5     ecut=    80.00 Ry     beta= 0.70
     Davidson diagonalization with overlap
     ethr =  1.52E-04,  avg # of iterations =  1.5

     total cpu time spent up to now is       20.5 secs

     total energy              =     -47.76170248 Ry
     estimated scf accuracy    <       0.00773592 Ry

     iteration #  6     ecut=    80.00 Ry     beta= 0.70
     Davidson diagonalization with overlap
     ethr =  4.07E-05,  avg # of iterations =  4.1

     total cpu time spent up to now is       20.9 secs

     total energy              =     -47.76264475 Ry
     estimated scf accuracy    <       0.00001151 Ry

     iteration #  7     ecut=    80.00 Ry     beta= 0.70
     Davidson diagonalization with overlap
     ethr =  6.06E-08,  avg # of iterations =  6.0

     total cpu time spent up to now is       21.5 secs

     total energy              =     -47.76269520 Ry
     estimated scf accuracy    <       0.00000169 Ry

     iteration #  8     ecut=    80.00 Ry     beta= 0.70
     Davidson diagonalization with overlap
     ethr =  8.89E-09,  avg # of iterations =  2.1

     total cpu time spent up to now is       21.8 secs

     total energy              =     -47.76269326 Ry
     estimated scf accuracy    <       0.00000874 Ry

     iteration #  9     ecut=    80.00 Ry     beta= 0.70
     Davidson diagonalization with overlap
     ethr =  8.89E-09,  avg # of iterations =  2.4

     total cpu time spent up to now is       22.2 secs

     total energy              =     -47.76269473 Ry
     estimated scf accuracy    <       0.00000102 Ry

     iteration # 10     ecut=    80.00 Ry     beta= 0.70
     Davidson diagonalization with overlap
     ethr =  5.38E-09,  avg # of iterations =  1.0

     total cpu time spent up to now is       22.5 secs

     total energy              =     -47.76269472 Ry
     estimated scf accuracy    <       0.00000021 Ry

     iteration # 11     ecut=    80.00 Ry     beta= 0.70
     Davidson diagonalization with overlap
     ethr =  1.09E-09,  avg # of iterations =  2.0

     total cpu time spent up to now is       22.8 secs

     End of self-consistent calculation

          k = 0.0000 0.0000 0.0000 (  3251 PWs)   bands (ev):

   -34.2076  -2.7693  -0.0038   0.7788   6.6946   8.7146  14.2343  14.2343
    15.8352  15.8800  15.8800  17.4796  17.4796  17.9272

          k = 0.0000 0.0000 0.1124 (  3247 PWs)   bands (ev):

   -34.2076  -2.6794  -0.7702   2.2458   4.5826  11.3377  14.4608  14.4608
    15.2123  15.2190  15.2190  16.0957  17.0214  18.5213

          k = 0.0000 0.1011 0.0000 (  3253 PWs)   bands (ev):

   -34.2024  -2.5335   0.2339   0.9549   6.9180   8.8359  11.6998  13.6109
    14.4467  14.6871  16.0922  17.2821  17.6892  19.2733

          k = 0.0000 0.1011 0.1124 (  3257 PWs)   bands (ev):

   -34.2024  -2.4403  -0.5606   2.4483   4.7854  11.3207  11.9781  12.8717
    14.6735  15.4305  15.4762  15.9511  17.5482  18.5236

          k = 0.0000 0.2021 0.0000 (  3253 PWs)   bands (ev):

   -34.1891  -1.8288   0.9448   1.4712   7.5814   8.2681   9.3286  11.2544
    11.4183  15.0831  16.7285  17.6002  18.0624  18.3139

          k = 0.0000 0.2021 0.1124 (  3258 PWs)   bands (ev):

   -34.1891  -1.7251   0.0601   3.0441   5.3764   8.7019   9.6416  12.3595
    12.9752  15.3111  15.3992  16.0644  16.1106  18.4865

          k = 0.0000 0.3032 0.0000 (  3247 PWs)   bands (ev):

   -34.1740  -0.6653   2.1214   2.2669   5.6095   7.9375   8.2337   8.9528
    11.1247  14.8331  16.1138  16.1398  17.7871  19.3334

          k = 0.0000 0.3032 0.1124 (  3241 PWs)   bands (ev):

   -34.1739  -0.5416   1.0562   3.9528   5.6676   6.3516   7.4437  10.2476
    12.5599  13.4880  16.3695  17.1095  17.1177  18.7027

          k = 0.0000 0.4042 0.0000 (  3244 PWs)   bands (ev):

   -34.1641   0.9264   2.7018   3.6470   3.7311   5.9254   6.4044  10.3032
    12.3240  12.4308  14.0715  17.5887  19.2046  19.6540

          k = 0.0000 0.4042 0.1124 (  3242 PWs)   bands (ev):

   -34.1641   1.0884   2.2324   3.2829   4.3691   6.0717   7.3400   8.7863
    10.2699  14.8334  16.6018  17.8176  18.5568  18.5684

          k = 0.1011 0.1011 0.0000 (  3259 PWs)   bands (ev):

   -34.1973  -2.2979   0.4714   1.1336   7.1414   8.9891  11.3199  12.6406
    13.1015  14.5944  14.9330  15.2760  19.6788  19.9339

          k = 0.1011 0.1011 0.1124 (  3261 PWs)   bands (ev):

   -34.1973  -2.2014  -0.3506   2.6527   4.9916  11.5102  11.5800  12.3319
    12.7790  14.0421  15.7418  15.9369  16.7506  18.7630

          k = 0.1011 0.2021 0.0000 (  3260 PWs)   bands (ev):

   -34.1845  -1.5940   1.1817   1.6584   7.8047   8.4710   9.5105  11.0097
    11.6272  12.9450  15.0594  15.6050  17.9113  18.8544

          k = 0.1011 0.2021 0.1124 (  3254 PWs)   bands (ev):

   -34.1844  -1.4871   0.2712   3.2545   5.5933   8.8805   9.7511  12.2196
    12.8903  13.1256  14.3938  15.5728  16.5526  17.2037

          k = 0.1011 0.3032 0.0000 (  3253 PWs)   bands (ev):

   -34.1698  -0.4319   2.3572   2.4710   5.8189   8.0962   8.4588   9.1742
    11.0858  13.9137  15.0046  15.4842  16.7963  16.9830

          k = 0.1011 0.3032 0.1124 (  3235 PWs)   bands (ev):

   -34.1696  -0.3051   1.2708   4.1775   5.8923   6.5773   7.5687  10.3870
    12.7444  13.2788  14.1869  15.2767  17.4570  18.0169

          k = 0.1011 0.4042 0.0000 (  3241 PWs)   bands (ev):

   -34.1601   1.1585   2.9355   3.8667   3.9662   6.1542   6.5203  10.5226
    12.3699  12.6484  13.9782  15.5241  17.2058  17.6139

          k = 0.1011 0.4042 0.1124 (  3239 PWs)   bands (ev):

   -34.1601   1.3227   2.4606   3.5109   4.5871   6.2541   7.5597   8.9186
    10.4502  14.6497  15.6507  16.2013  17.1292  17.5766

          k = 0.2021 0.2021 0.0000 (  3267 PWs)   bands (ev):

   -34.1726  -0.8927   1.8902   2.2094   8.4677   8.6167   9.5690  10.4249
    10.5185  11.9079  12.7686  13.8452  17.9696  18.5707

          k = 0.2021 0.2021 0.1124 (  3251 PWs)   bands (ev):

   -34.1725  -0.7755   0.8971   3.8763   6.2303   8.8793   9.6398  10.2795
    11.3746  13.0868  13.5513  14.7602  16.1964  16.5935

          k = 0.2021 0.3032 0.0000 (  3243 PWs)   bands (ev):

   -34.1589   0.2652   3.0626   3.0725   6.4077   8.4672   9.1305   9.8190
    10.4273  11.4117  13.4683  13.7861  15.7743  16.3485

          k = 0.2021 0.3032 0.1124 (  3232 PWs)   bands (ev):

   -34.1588   0.4017   1.9074   4.8448   6.5422   7.2446   7.8390  10.6141
    10.9843  12.1199  13.3338  14.3661  15.3499  16.6224

          k = 0.2021 0.4042 0.0000 (  3228 PWs)   bands (ev):

   -34.1499   1.8507   3.6320   4.5105   4.6687   6.8360   6.8378  11.1628
    11.8886  12.7656  13.2634  13.9352  14.1279  15.1143

          k = 0.2021 0.4042 0.1124 (  3242 PWs)   bands (ev):

   -34.1500   2.0225   3.1384   4.1875   5.2219   6.7750   8.2085   9.2807
    10.9867  12.4654  13.3320  14.2963  14.7667  16.1390

          k = 0.3032 0.3032 0.0000 (  3228 PWs)   bands (ev):

   -34.1464   1.4153   4.0264   4.2297   6.8017   8.3749   8.6190  10.0993
    10.3061  10.9061  11.3836  12.8086  14.0566  16.1049

          k = 0.3032 0.3032 0.1124 (  3235 PWs)   bands (ev):

   -34.1465   1.5702   2.9386   5.9152   7.0647   7.8289   8.1207   8.6842
    10.3069  11.2926  12.9409  13.8169  14.3617  14.3946

          k = 0.3032 0.4042 0.0000 (  3241 PWs)   bands (ev):

   -34.1384   2.9881   4.7689   5.4983   5.8295   7.2430   7.9600   9.4449
    11.1626  11.6818  11.7483  12.6778  12.8288  14.1338

          k = 0.3032 0.4042 0.1124 (  3237 PWs)   bands (ev):

   -34.1384   3.1759   4.2374   5.2687   6.1664   7.5475   9.2098   9.4154
    10.0294  10.9341  11.6177  12.0985  12.5520  14.3454

          k = 0.4042 0.4042 0.0000 (  3242 PWs)   bands (ev):

   -34.1309   4.5163   5.8933   6.4705   7.4180   7.5039   7.7140   8.8003
     9.1928   9.8560  10.1820  11.7583  12.1227  14.0152

          k = 0.4042 0.4042 0.1124 (  3260 PWs)   bands (ev):

   -34.1310   4.7372   5.6473   6.1563   6.9221   7.5166   8.5435   8.8925
     9.3981  10.3925  10.5112  11.0559  12.6549  13.2739

     the Fermi energy is    12.6954 ev

!    total energy              =     -47.76269475 Ry
     estimated scf accuracy    <          3.0E-10 Ry
     smearing contrib. (-TS)   =      -0.00090941 Ry
     internal energy E=F+TS    =     -47.76178534 Ry

     The total energy is F=E-TS. E is the sum of the following terms:
     one-electron contribution =      12.72384957 Ry
     hartree contribution      =       4.45581726 Ry
     xc contribution           =     -16.61347817 Ry
     ewald contribution        =     -48.32797400 Ry

     convergence has been achieved in  11 iterations

     Forces acting on atoms (cartesian axes, Ry/au):

     atom    1 type  1   force =     0.00000000    0.00000000   -0.05572725
     atom    2 type  1   force =     0.00000000    0.00000000    0.05572725
     atom    3 type  1   force =     0.00000000    0.00000000    0.00000000
     atom    4 type  1   force =     0.00000000    0.00000000    0.00000000
     atom    5 type  2   force =     0.00000000    0.00000000    0.00000000
     The non-local contrib.  to forces
     atom    1 type  1   force =     0.00000000    0.00000000   -0.09413875
     atom    2 type  1   force =     0.00000000    0.00000000    0.09413875
     atom    3 type  1   force =     0.00000000    0.00000000    0.00000000
     atom    4 type  1   force =     0.00000000    0.00000000    0.00000000
     atom    5 type  2   force =     0.00000000    0.00000000    0.00000000
     The ionic contribution  to forces
     atom    1 type  1   force =    -0.00000000   -0.00000000   -1.20338851
     atom    2 type  1   force =    -0.00000000   -0.00000000    1.20338851
     atom    3 type  1   force =     0.00000000   -0.00000000   -0.00000000
     atom    4 type  1   force =     0.00000000   -0.00000000   -0.00000000
     atom    5 type  2   force =    -0.00000000   -0.00000000    0.00000000
     The local contribution  to forces
     atom    1 type  1   force =     0.00000000   -0.00000000    1.23762487
     atom    2 type  1   force =    -0.00000000    0.00000000   -1.23762487
     atom    3 type  1   force =    -0.00000000   -0.00000000    0.00000000
     atom    4 type  1   force =    -0.00000000   -0.00000000    0.00000000
     atom    5 type  2   force =     0.00000000    0.00000000   -0.00000000
     The core correction contribution to forces
     atom    1 type  1   force =     0.00000000    0.00000000    0.00414862
     atom    2 type  1   force =     0.00000000    0.00000000   -0.00414862
     atom    3 type  1   force =    -0.00000000   -0.00000000    0.00000000
     atom    4 type  1   force =     0.00000000    0.00000000    0.00000000
     atom    5 type  2   force =     0.00000000    0.00000000    0.00000000
     The Hubbard contrib.    to forces
     atom    1 type  1   force =     0.00000000    0.00000000    0.00000000
     atom    2 type  1   force =     0.00000000    0.00000000    0.00000000
     atom    3 type  1   force =     0.00000000    0.00000000    0.00000000
     atom    4 type  1   force =     0.00000000    0.00000000    0.00000000
     atom    5 type  2   force =     0.00000000    0.00000000    0.00000000
     The SCF correction term to forces
     atom    1 type  1   force =    -0.00000000    0.00000000    0.00002652
     atom    2 type  1   force =    -0.00000000    0.00000000   -0.00002652
     atom    3 type  1   force =    -0.00000000   -0.00000000   -0.00000000
     atom    4 type  1   force =    -0.00000000   -0.00000000    0.00000000
     atom    5 type  2   force =    -0.00000000   -0.00000000    0.00000000

     Total force =     0.078810     Total SCF correction =     0.000038


     Computing stress (Cartesian axis) and pressure

          total   stress  (Ry/bohr**3)                   (kbar)     P=      467.81
   0.00339044   0.00000000   0.00000000          498.75        0.00        0.00
   0.00000000   0.00339044   0.00000000            0.00      498.75        0.00
   0.00000000   0.00000000   0.00275947            0.00        0.00      405.93

     Energy error            =      2.5E-02 Ry
     Gradient error          =      5.6E-02 Ry/Bohr
     Cell gradient error     =      9.4E+01 kbar

     number of scf cycles    =   3
     number of bfgs steps    =   2

     enthalpy           old  =     -46.4863937941 Ry
     enthalpy           new  =     -46.5111664979 Ry

     CASE: enthalpy          _new < enthalpy          _old

     new trust radius        =       0.1754349022 bohr
ibrav =      6
 celldm(1) =      5.14628902
 celldm(3) =      2.61642583
Input lattice vectors:
     1.09901513     0.00000000     0.00000000
     0.00000000     1.09901513     0.00000000
     0.00000000     0.00000000     2.87549158
New lattice vectors in INITIAL alat:
     1.09901513     0.00000000     0.00000000
     0.00000000     1.09901513     0.00000000
     0.00000000     0.00000000     2.87549158
New lattice vectors in NEW alat (for information only):
     1.00000000     0.00000000     0.00000000
     0.00000000     1.00000000     0.00000000
     0.00000000     0.00000000     2.61642583
Discrepancy in bohr =     0.000000    0.000000    0.000000
     new conv_thr            =       0.0000000056 Ry

     new unit-cell volume =    356.60789 a.u.^3 (    52.84384 Ang^3 )
     density =      3.74829 g/cm^3

CELL_PARAMETERS (alat=  4.68263708)
   1.099015133   0.000000000   0.000000000
   0.000000000   1.099015133   0.000000000
   0.000000000   0.000000000   2.875491578

ATOMIC_POSITIONS (crystal)
Si            0.0000000000        0.0000000000        0.2068319585
Si            0.0000000000        0.0000000000        0.7931680415
Si            0.5000000000        0.5000000000        0.0000000000
Si            0.5000000000        0.5000000000        0.5000000000
Li            0.0000000000        0.0000000000        0.5000000000



     Writing config-only to output data dir ./output/SiLi.save/
     NEW-OLD atomic charge density approx. for the potential
     extrapolated charge   18.38195, renormalised to   19.00000

     total cpu time spent up to now is       24.1 secs

     Self-consistent Calculation

     iteration #  1     ecut=    80.00 Ry     beta= 0.70
     Davidson diagonalization with overlap
     ethr =  1.00E-06,  avg # of iterations = 11.4

     total cpu time spent up to now is       25.1 secs

     total energy              =     -47.73888471 Ry
     estimated scf accuracy    <       0.00395978 Ry

     iteration #  2     ecut=    80.00 Ry     beta= 0.70
     Davidson diagonalization with overlap
     ethr =  2.08E-05,  avg # of iterations =  5.4

     total cpu time spent up to now is       25.6 secs

     total energy              =     -47.74138760 Ry
     estimated scf accuracy    <       0.07012866 Ry

     iteration #  3     ecut=    80.00 Ry     beta= 0.70
     Davidson diagonalization with overlap
     ethr =  2.08E-05,  avg # of iterations =  3.3

     total cpu time spent up to now is       26.0 secs

     total energy              =     -47.74500699 Ry
     estimated scf accuracy    <       0.00639241 Ry

     iteration #  4     ecut=    80.00 Ry     beta= 0.70
     Davidson diagonalization with overlap
     ethr =  2.08E-05,  avg # of iterations =  1.2

     total cpu time spent up to now is       26.3 secs

     total energy              =     -47.74445040 Ry
     estimated scf accuracy    <       0.00373605 Ry

     iteration #  5     ecut=    80.00 Ry     beta= 0.70
     Davidson diagonalization with overlap
     ethr =  1.97E-05,  avg # of iterations =  1.5

     total cpu time spent up to now is       26.6 secs

     total energy              =     -47.74464236 Ry
     estimated scf accuracy    <       0.00025441 Ry

     iteration #  6     ecut=    80.00 Ry     beta= 0.70
     Davidson diagonalization with overlap
     ethr =  1.34E-06,  avg # of iterations =  4.8

     total cpu time spent up to now is       27.0 secs

     total energy              =     -47.74471156 Ry
     estimated scf accuracy    <       0.00002671 Ry

     iteration #  7     ecut=    80.00 Ry     beta= 0.70
     Davidson diagonalization with overlap
     ethr =  1.41E-07,  avg # of iterations =  1.7

     total cpu time spent up to now is       27.3 secs

     total energy              =     -47.74471300 Ry
     estimated scf accuracy    <       0.00000391 Ry

     iteration #  8     ecut=    80.00 Ry     beta= 0.70
     Davidson diagonalization with overlap
     ethr =  2.06E-08,  avg # of iterations =  2.3

     total cpu time spent up to now is       27.6 secs

     total energy              =     -47.74471367 Ry
     estimated scf accuracy    <       0.00000002 Ry

     iteration #  9     ecut=    80.00 Ry     beta= 0.70
     Davidson diagonalization with overlap
     ethr =  8.95E-11,  avg # of iterations =  4.9

     total cpu time spent up to now is       28.1 secs

     total energy              =     -47.74471371 Ry
     estimated scf accuracy    <          8.1E-09 Ry

     iteration # 10     ecut=    80.00 Ry     beta= 0.70
     Davidson diagonalization with overlap
     ethr =  4.25E-11,  avg # of iterations =  1.1

     total cpu time spent up to now is       28.4 secs

     End of self-consistent calculation

          k = 0.0000 0.0000 0.0000 (  3251 PWs)   bands (ev):

   -33.7037  -2.8701   0.4070   1.2586   7.5008   9.5461  14.3232  14.3232
    15.8184  16.0553  16.0553  17.8083  17.8083  18.2526

          k = 0.0000 0.0000 0.1159 (  3247 PWs)   bands (ev):

   -33.7037  -2.8048  -0.3433   2.7805   5.2387  12.3308  14.5518  14.5518
    15.3878  15.3878  16.0131  16.3312  17.4020  18.8474

          k = 0.0000 0.1011 0.0000 (  3253 PWs)   bands (ev):

   -33.6985  -2.6328   0.6447   1.4307   7.7225   9.6596  11.6637  13.9808
    14.5344  15.0612  16.2682  17.2474  18.0187  19.9190

          k = 0.0000 0.1011 0.1159 (  3257 PWs)   bands (ev):

   -33.6985  -2.5652  -0.1334   2.9791   5.4409  11.8212  12.2231  13.4309
    14.7625  15.6010  16.3402  16.5513  17.6238  19.0563

          k = 0.0000 0.2022 0.0000 (  3253 PWs)   bands (ev):

   -33.6851  -1.9236   1.3557   1.9343   8.3767   8.4121   9.7389  11.8144
    11.8971  15.1675  16.9071  18.1555  18.2780  18.6474

          k = 0.0000 0.2022 0.1159 (  3258 PWs)   bands (ev):

   -33.6851  -1.8487   0.4876   3.5622   6.0312   8.5901  10.0797  13.1638
    13.6189  15.3943  16.0488  16.2402  17.1869  18.6174

          k = 0.0000 0.3033 0.0000 (  3247 PWs)   bands (ev):

   -33.6699  -0.7507   2.5336   2.6992   5.5816   8.3448   8.6740   9.7066
    11.9808  15.5861  16.2205  16.9455  17.9715  19.6800

          k = 0.0000 0.3033 0.1159 (  3241 PWs)   bands (ev):

   -33.6698  -0.6624   1.4824   4.4412   5.6604   6.8399   7.9152  10.7662
    13.2652  14.4413  16.4455  17.3030  18.1840  19.5111

          k = 0.0000 0.4044 0.0000 (  3244 PWs)   bands (ev):

   -33.6599   0.8658   2.7760   3.8863   4.1559   6.2970   6.8746  11.1196
    13.1964  13.2018  14.8994  17.6749  19.3952  19.7040

          k = 0.0000 0.4044 0.1159 (  3242 PWs)   bands (ev):

   -33.6599   0.9757   2.6050   3.2103   4.8434   6.5079   7.8240   9.4705
    10.9519  15.7935  17.5891  17.9012  18.7627  19.7258

          k = 0.1011 0.1011 0.0000 (  3259 PWs)   bands (ev):

   -33.6934  -2.3959   0.8821   1.6058   7.9442   9.8090  11.3647  12.5446
    13.3382  14.9453  15.4580  15.6809  19.6830  20.6960

          k = 0.1011 0.1011 0.1159 (  3261 PWs)   bands (ev):

   -33.6934  -2.3260   0.0768   3.1797   5.6466  11.5884  12.4123  12.5976
    12.6356  14.6831  16.0924  17.1313  17.2293  19.3609

          k = 0.1011 0.2022 0.0000 (  3260 PWs)   bands (ev):

   -33.6804  -1.6875   1.5925   2.1184   8.5963   8.5982   9.9611  11.5854
    12.0195  12.8424  15.5878  15.9859  18.6704  19.7500

          k = 0.1011 0.2022 0.1159 (  3254 PWs)   bands (ev):

   -33.6804  -1.6104   0.6989   3.7698   6.2477   8.7809  10.1653  12.8798
    13.0947  13.3895  15.0944  16.1667  17.6436  17.8501

          k = 0.1011 0.3033 0.0000 (  3253 PWs)   bands (ev):

   -33.6656  -0.5160   2.7692   2.9014   5.7937   8.4910   8.8988   9.9248
    11.9155  13.8530  15.7062  16.0269  17.2814  17.7739

          k = 0.1011 0.3033 0.1159 (  3235 PWs)   bands (ev):

   -33.6655  -0.4257   1.6969   4.6649   5.8819   7.0654   8.0439  10.8868
    13.3935  14.0211  14.1632  15.9183  18.5316  18.5987

          k = 0.1011 0.4044 0.0000 (  3241 PWs)   bands (ev):

   -33.6559   1.0985   3.0087   4.1078   4.3904   6.5259   6.9825  11.3350
    13.1989  13.4074  14.7664  15.4832  17.2648  18.0036

          k = 0.1011 0.4044 0.1159 (  3239 PWs)   bands (ev):

   -33.6559   1.2102   2.8341   3.4376   5.0599   6.6904   8.0382   9.5950
    11.1273  15.4346  15.5415  16.9144  17.4629  17.9932

          k = 0.2022 0.2022 0.0000 (  3267 PWs)   bands (ev):

   -33.6685  -0.9818   2.3008   2.6589   8.6650   9.2525  10.0515  10.6419
    10.6618  12.2608  13.2134  14.5515  18.7595  19.5866

          k = 0.2022 0.2022 0.1159 (  3251 PWs)   bands (ev):

   -33.6684  -0.8977   1.3247   4.3824   6.8844   8.8928   9.9036  10.1679
    11.9021  13.4421  14.3656  15.5176  16.9728  17.2631

          k = 0.2022 0.3033 0.0000 (  3243 PWs)   bands (ev):

   -33.6547   0.1852   3.4740   3.4965   6.3975   8.8146   9.5679  10.5523
    10.6696  11.7181  13.8755  14.4574  16.5798  16.5913

          k = 0.2022 0.3033 0.1159 (  3232 PWs)   bands (ev):

   -33.6546   0.2821   2.3329   5.3287   6.5228   7.7216   8.3354  10.7724
    11.1320  12.6132  13.9747  15.2255  15.9661  16.7269

          k = 0.2022 0.4044 0.0000 (  3228 PWs)   bands (ev):

   -33.6457   1.7934   3.7026   4.7581   5.0911   7.2094   7.2718  11.9528
    12.1283  13.0677  13.9653  14.0409  14.8568  15.6464

          k = 0.2022 0.4044 0.1159 (  3242 PWs)   bands (ev):

   -33.6457   1.9108   3.5148   4.1126   5.6877   7.2122   8.6673   9.9347
    11.6338  12.3583  13.7599  14.3550  15.1612  16.8544

          k = 0.3033 0.3033 0.0000 (  3228 PWs)   bands (ev):

   -33.6422   1.3439   4.4336   4.6408   6.8551   8.3537   8.8540  10.4534
    10.8401  11.3576  12.0764  13.2911  14.2715  16.6810

          k = 0.3033 0.3033 0.1159 (  3235 PWs)   bands (ev):

   -33.6422   1.4533   3.3613   6.3917   7.0860   8.0880   8.3620   8.9708
    10.7328  11.6514  13.4630  13.9580  14.7400  15.1594

          k = 0.3033 0.4044 0.0000 (  3241 PWs)   bands (ev):

   -33.6341   2.9381   4.8345   5.7667   6.2490   7.6163   8.3314   9.4043
    11.1865  12.1476  12.1525  13.2251  13.3532  14.6157

          k = 0.3033 0.4044 0.1159 (  3237 PWs)   bands (ev):

   -33.6341   3.0674   4.6194   5.1989   6.6017   7.9902   9.4249   9.6264
    10.4812  11.2230  11.7369  12.6725  13.0098  14.8763

          k = 0.4044 0.4044 0.0000 (  3242 PWs)   bands (ev):

   -33.6265   4.4900   5.9497   6.7252   7.5315   7.8375   7.9481   8.7851
     9.5476  10.2949  10.5746  12.0656  12.5492  14.9199

          k = 0.4044 0.4044 0.1159 (  3260 PWs)   bands (ev):

   -33.6266   4.6453   6.0299   6.1822   7.1785   7.4227   8.9027   9.1130
     9.6088  10.7533  11.0089  11.5527  13.0763  13.8590

     the Fermi energy is    13.1671 ev

!    total energy              =     -47.74471371 Ry
     estimated scf accuracy    <          9.4E-10 Ry
     smearing contrib. (-TS)   =      -0.00131243 Ry
     internal energy E=F+TS    =     -47.74340127 Ry

     The total energy is F=E-TS. E is the sum of the following terms:
     one-electron contribution =      14.15202178 Ry
     hartree contribution      =       4.05977717 Ry
     xc contribution           =     -16.73832165 Ry
     ewald contribution        =     -49.21687858 Ry

     convergence has been achieved in  10 iterations

     Forces acting on atoms (cartesian axes, Ry/au):

     atom    1 type  1   force =     0.00000000    0.00000000   -0.02303726
     atom    2 type  1   force =     0.00000000    0.00000000    0.02303726
     atom    3 type  1   force =     0.00000000    0.00000000    0.00000000
     atom    4 type  1   force =     0.00000000    0.00000000    0.00000000
     atom    5 type  2   force =     0.00000000    0.00000000    0.00000000
     The non-local contrib.  to forces
     atom    1 type  1   force =     0.00000000    0.00000000   -0.05315254
     atom    2 type  1   force =     0.00000000    0.00000000    0.05315254
     atom    3 type  1   force =     0.00000000    0.00000000    0.00000000
     atom    4 type  1   force =     0.00000000    0.00000000    0.00000000
     atom    5 type  2   force =     0.00000000    0.00000000    0.00000000
     The ionic contribution  to forces
     atom    1 type  1   force =     0.00000000   -0.00000000   -0.45994092
     atom    2 type  1   force =    -0.00000000   -0.00000000    0.45994092
     atom    3 type  1   force =     0.00000000    0.00000000   -0.00000000
     atom    4 type  1   force =    -0.00000000   -0.00000000   -0.00000000
     atom    5 type  2   force =    -0.00000000   -0.00000000    0.00000000
     The local contribution  to forces
     atom    1 type  1   force =    -0.00000000    0.00000000    0.48953256
     atom    2 type  1   force =     0.00000000   -0.00000000   -0.48953256
     atom    3 type  1   force =    -0.00000000   -0.00000000    0.00000000
     atom    4 type  1   force =    -0.00000000   -0.00000000    0.00000000
     atom    5 type  2   force =     0.00000000    0.00000000    0.00000000
     The core correction contribution to forces
     atom    1 type  1   force =     0.00000000   -0.00000000    0.00048083
     atom    2 type  1   force =     0.00000000    0.00000000   -0.00048083
     atom    3 type  1   force =    -0.00000000   -0.00000000   -0.00000000
     atom    4 type  1   force =     0.00000000    0.00000000    0.00000000
     atom    5 type  2   force =     0.00000000    0.00000000    0.00000000
     The Hubbard contrib.    to forces
     atom    1 type  1   force =     0.00000000    0.00000000    0.00000000
     atom    2 type  1   force =     0.00000000    0.00000000    0.00000000
     atom    3 type  1   force =     0.00000000    0.00000000    0.00000000
     atom    4 type  1   force =     0.00000000    0.00000000    0.00000000
     atom    5 type  2   force =     0.00000000    0.00000000    0.00000000
     The SCF correction term to forces
     atom    1 type  1   force =    -0.00000000    0.00000000    0.00004281
     atom    2 type  1   force =    -0.00000000   -0.00000000   -0.00004281
     atom    3 type  1   force =     0.00000000   -0.00000000   -0.00000000
     atom    4 type  1   force =    -0.00000000    0.00000000    0.00000000
     atom    5 type  2   force =    -0.00000000   -0.00000000    0.00000000

     Total force =     0.032580     Total SCF correction =     0.000061


     Computing stress (Cartesian axis) and pressure

          total   stress  (Ry/bohr**3)                   (kbar)     P=      553.75
   0.00430571   0.00000000   0.00000000          633.39        0.00        0.00
   0.00000000   0.00430571   0.00000000            0.00      633.39        0.00
   0.00000000   0.00000000   0.00268160            0.00        0.00      394.48

     Energy error            =      2.1E-02 Ry
     Gradient error          =      2.3E-02 Ry/Bohr
     Cell gradient error     =      1.3E+02 kbar

     number of scf cycles    =   4
     number of bfgs steps    =   3

     enthalpy           old  =     -46.5111664979 Ry
     enthalpy           new  =     -46.5326281283 Ry

     CASE: enthalpy          _new < enthalpy          _old

     new trust radius        =       0.2550781867 bohr
ibrav =      6
 celldm(1) =      5.22273327
 celldm(3) =      2.41689745
Input lattice vectors:
     1.11534018     0.00000000     0.00000000
     0.00000000     1.11534018     0.00000000
     0.00000000     0.00000000     2.69566282
New lattice vectors in INITIAL alat:
     1.11534018     0.00000000     0.00000000
     0.00000000     1.11534018     0.00000000
     0.00000000     0.00000000     2.69566282
New lattice vectors in NEW alat (for information only):
     1.00000000     0.00000000     0.00000000
     0.00000000     1.00000000     0.00000000
     0.00000000     0.00000000     2.41689745
Discrepancy in bohr =     0.000000    0.000000    0.000000
     new conv_thr            =       0.0000000023 Ry

     new unit-cell volume =    344.31168 a.u.^3 (    51.02173 Ang^3 )
     density =      3.88215 g/cm^3

CELL_PARAMETERS (alat=  4.68263708)
   1.115340175   0.000000000   0.000000000
   0.000000000   1.115340175   0.000000000
   0.000000000   0.000000000   2.695662821

ATOMIC_POSITIONS (crystal)
Si            0.0000000000        0.0000000000        0.1878880005
Si            0.0000000000        0.0000000000        0.8121119995
Si            0.5000000000        0.5000000000        0.0000000000
Si            0.5000000000        0.5000000000        0.5000000000
Li            0.0000000000        0.0000000000        0.5000000000



     Writing config-only to output data dir ./output/SiLi.save/
     NEW-OLD atomic charge density approx. for the potential
     extrapolated charge   18.32171, renormalised to   19.00000

     total cpu time spent up to now is       29.7 secs

     Self-consistent Calculation

     iteration #  1     ecut=    80.00 Ry     beta= 0.70
     Davidson diagonalization with overlap
     c_bands:  1 eigenvalues not converged
     c_bands:  1 eigenvalues not converged
     ethr =  1.00E-06,  avg # of iterations = 14.5

     total cpu time spent up to now is       30.8 secs

     total energy              =     -47.70378957 Ry
     estimated scf accuracy    <       0.00922004 Ry

     iteration #  2     ecut=    80.00 Ry     beta= 0.70
     Davidson diagonalization with overlap
     ethr =  4.85E-05,  avg # of iterations =  3.5

     total cpu time spent up to now is       31.2 secs

     total energy              =     -47.69942828 Ry
     estimated scf accuracy    <       0.07924621 Ry

     iteration #  3     ecut=    80.00 Ry     beta= 0.70
     Davidson diagonalization with overlap
     ethr =  4.85E-05,  avg # of iterations =  3.1

     total cpu time spent up to now is       31.6 secs

     total energy              =     -47.71093063 Ry
     estimated scf accuracy    <       0.00549071 Ry

     iteration #  4     ecut=    80.00 Ry     beta= 0.70
     Davidson diagonalization with overlap
     ethr =  2.89E-05,  avg # of iterations =  1.0

     total cpu time spent up to now is       31.9 secs

     total energy              =     -47.71111172 Ry
     estimated scf accuracy    <       0.00054760 Ry

     iteration #  5     ecut=    80.00 Ry     beta= 0.70
     Davidson diagonalization with overlap
     ethr =  2.88E-06,  avg # of iterations =  2.4

     total cpu time spent up to now is       32.2 secs

     total energy              =     -47.71120124 Ry
     estimated scf accuracy    <       0.00001085 Ry

     iteration #  6     ecut=    80.00 Ry     beta= 0.70
     Davidson diagonalization with overlap
     ethr =  5.71E-08,  avg # of iterations =  4.0

     total cpu time spent up to now is       32.7 secs

     total energy              =     -47.71120775 Ry
     estimated scf accuracy    <       0.00000438 Ry

     iteration #  7     ecut=    80.00 Ry     beta= 0.70
     Davidson diagonalization with overlap
     ethr =  2.31E-08,  avg # of iterations =  1.9

     total cpu time spent up to now is       33.0 secs

     total energy              =     -47.71120843 Ry
     estimated scf accuracy    <       0.00000009 Ry

     iteration #  8     ecut=    80.00 Ry     beta= 0.70
     Davidson diagonalization with overlap
     ethr =  4.74E-10,  avg # of iterations =  3.7

     total cpu time spent up to now is       33.4 secs

     total energy              =     -47.71120848 Ry
     estimated scf accuracy    <          3.9E-09 Ry

     iteration #  9     ecut=    80.00 Ry     beta= 0.70
     Davidson diagonalization with overlap
     ethr =  2.04E-11,  avg # of iterations =  3.2

     total cpu time spent up to now is       33.8 secs

     End of self-consistent calculation

          k = 0.0000 0.0000 0.0000 (  3251 PWs)   bands (ev):

   -32.9806  -3.1658   1.1314   1.9842   9.1832  10.9959  13.4893  13.4893
    15.2343  16.1698  16.1698  17.8670  17.8732  17.8732

          k = 0.0000 0.0000 0.1237 (  3247 PWs)   bands (ev):

   -32.9806  -3.1189   0.3032   3.7085   6.4918  13.6102  13.6102  14.1665
    15.3565  15.5184  15.5184  17.3664  17.7954  19.0932

          k = 0.0000 0.0996 0.0000 (  3253 PWs)   bands (ev):

   -32.9761  -2.9354   1.3615   2.1483   9.3918  10.9269  11.0854  13.6915
    14.3948  15.3201  16.3785  16.5548  18.0783  20.2999

          k = 0.0000 0.0996 0.1237 (  3257 PWs)   bands (ev):

   -32.9761  -2.8872   0.5060   3.8996   6.6816  11.0421  13.1337  13.8118
    14.6867  15.7276  16.5909  16.8070  18.6272  19.2959

          k = 0.0000 0.1992 0.0000 (  3253 PWs)   bands (ev):

   -32.9646  -2.2469   2.0500   2.6258   7.8501   9.9793  10.6041  12.2324
    12.9174  14.2980  17.0048  17.4637  18.6921  19.2438

          k = 0.0000 0.1992 0.1237 (  3258 PWs)   bands (ev):

   -32.9647  -2.1945   1.1063   4.4576   7.2264   7.9199  10.5343  13.9628
    14.4163  15.2417  16.3550  16.8571  17.4891  19.7595

          k = 0.0000 0.2989 0.0000 (  3247 PWs)   bands (ev):

   -32.9515  -1.1084   3.1914   3.3115   5.1196   8.9238   9.1783  11.2753
    13.3822  15.3067  16.8828  18.0489  18.1654  18.7476

          k = 0.0000 0.2989 0.1237 (  3241 PWs)   bands (ev):

   -32.9515  -1.0492   2.0670   4.9743   5.4310   7.6919   8.6281  11.5748
    14.2556  15.4221  16.2200  17.3989  18.5595  20.3785

          k = 0.0000 0.3985 0.0000 (  3244 PWs)   bands (ev):

   -32.9430   0.4549   2.4549   4.3861   4.7713   6.8096   7.4841  12.6986
    14.5942  14.6281  16.3059  16.6924  18.6357  19.5076

          k = 0.0000 0.3985 0.1237 (  3242 PWs)   bands (ev):

   -32.9429   0.5176   2.5844   3.3101   5.4886   7.2016   8.5897  10.6129
    12.0568  16.8045  17.4748  18.7401  18.8425  19.3981

          k = 0.0996 0.0996 0.0000 (  3259 PWs)   bands (ev):

   -32.9717  -2.7054   1.5914   2.3155   9.6004  10.7397  11.1480  11.7589
    13.6575  15.2386  15.8647  15.8903  18.8577  20.2240

          k = 0.0996 0.0996 0.1237 (  3261 PWs)   bands (ev):

   -32.9717  -2.6558   0.7092   4.0928   6.8753  10.8671  11.7457  12.9213
    13.6892  15.6151  16.5625  17.6326  18.9652  19.0612

          k = 0.0996 0.1992 0.0000 (  3260 PWs)   bands (ev):

   -32.9606  -2.0178   2.2792   2.8027   8.0317  10.1882  10.7840  12.0064
    12.4296  12.5552  16.0716  16.1910  19.8704  20.1263

          k = 0.0996 0.1992 0.1237 (  3254 PWs)   bands (ev):

   -32.9606  -1.9641   1.3108   4.6581   7.4325   8.1108  10.6053  12.0385
    13.7827  14.3599  16.1950  16.9007  18.3450  19.6464

          k = 0.0996 0.2989 0.0000 (  3253 PWs)   bands (ev):

   -32.9478  -0.8809   3.4194   3.5093   5.3242   9.0505   9.3960  11.4767
    12.9947  13.2411  16.6131  16.6420  17.9165  18.7072

          k = 0.0996 0.2989 0.1237 (  3235 PWs)   bands (ev):

   -32.9477  -0.8206   2.2753   5.1927   5.6430   7.8888   8.7759  11.6635
    13.0544  14.3522  15.2252  17.0382  18.7388  19.0615

          k = 0.0996 0.3985 0.0000 (  3241 PWs)   bands (ev):

   -32.9394   0.6802   2.6787   4.6027   4.9977   7.0316   7.5834  12.8920
    14.3699  14.4905  14.8023  16.0819  16.6699  18.2777

          k = 0.0996 0.3985 0.1237 (  3239 PWs)   bands (ev):

   -32.9394   0.7439   2.8080   3.5286   5.6929   7.3820   8.7905  10.7253
    12.1992  14.4955  16.3914  16.6015  17.7766  19.2209

          k = 0.1992 0.1992 0.0000 (  3267 PWs)   bands (ev):

   -32.9502  -1.3330   2.9649   3.3200   8.1439   9.3749  10.7844  11.0683
    11.6527  12.6481  13.5678  15.3502  18.4265  19.9776

          k = 0.1992 0.1992 0.1237 (  3251 PWs)   bands (ev):

   -32.9502  -1.2755   1.9172   5.2478   8.0319   8.2763   9.3969  10.3116
    12.3334  14.0114  15.4470  16.7494  18.0340  18.1424

          k = 0.1992 0.2989 0.0000 (  3243 PWs)   bands (ev):

   -32.9383  -0.2008   4.0910   4.1013   5.9122   9.2730  10.0437  10.0539
    12.0128  12.5503  14.2226  15.0912  16.0535  17.9200

          k = 0.1992 0.2989 0.1237 (  3232 PWs)   bands (ev):

   -32.9383  -0.1370   2.8934   5.8380   6.2610   8.4013   9.1845  10.0168
    11.7204  13.0763  14.7125  15.8254  16.6912  16.7666

          k = 0.1992 0.3985 0.0000 (  3228 PWs)   bands (ev):

   -32.9305   1.3534   3.3459   5.2397   5.6747   7.6948   7.8473  11.3877
    13.3263  13.3841  13.8107  15.0209  15.5934  16.3324

          k = 0.1992 0.3985 0.1237 (  3242 PWs)   bands (ev):

   -32.9306   1.4203   3.4744   4.1768   6.2833   7.9022   9.3772  11.0056
    11.4097  12.6463  13.5590  14.1644  15.5989  17.6793

          k = 0.2989 0.2989 0.0000 (  3228 PWs)   bands (ev):

   -32.9275   0.9232   4.9942   5.2310   6.4004   7.7107   9.3111  10.8971
    11.3417  11.7937  12.9985  13.3952  14.7735  17.0950

          k = 0.2989 0.2989 0.1237 (  3235 PWs)   bands (ev):

   -32.9275   0.9929   3.8932   6.5363   7.1051   7.7447   8.5458   9.9334
    11.0407  12.2806  12.9876  14.2307  15.1912  16.2687

          k = 0.2989 0.3985 0.0000 (  3241 PWs)   bands (ev):

   -32.9205   2.4647   4.4330   6.2275   6.7942   8.0537   8.7868   8.8131
    10.5743  12.5216  12.5850  13.7170  14.2064  15.4447

          k = 0.2989 0.3985 0.1237 (  3237 PWs)   bands (ev):

   -32.9205   2.5378   4.5602   5.2206   7.1366   8.5018   8.8658  10.2580
    10.7031  11.2257  11.9880  13.4069  13.6146  15.4663

          k = 0.3985 0.3985 0.0000 (  3242 PWs)   bands (ev):

[...]
     MD5 check sum: e543d271109d17c80368dfa7c482276d
     Pseudo is Norm-conserving + core correction, Zval =  4.0
     Generated using ONCVPSP code by D. R. Hamann
     Using radial grid of 1510 points,  6 beta functions with: 
                l(1) =   0
                l(2) =   0
                l(3) =   1
                l(4) =   1
                l(5) =   2
                l(6) =   2

     PseudoPot. # 2 for Li read from file:
     ../pseudo/Li_ONCV_PBE_sr.upf
     MD5 check sum: 50ff420e78310ffa21704f3361e624a4
     Pseudo is Norm-conserving, Zval =  3.0
     Generated using ONCVPSP code by D. R. Hamann
     Using radial grid of 1944 points,  4 beta functions with: 
                l(1) =   0
                l(2) =   0
                l(3) =   1
                l(4) =   1

     atomic species   valence    mass     pseudopotential
        Si             4.00    28.08550     Si( 1.00)
        Li             3.00     6.94100     Li( 1.00)

     16 Sym. Ops., with inversion, found



   Cartesian axes

     site n.     atom                  positions (alat units)
         1           Si  tau(   1) = (   0.0000000   0.0000000   0.4942746  )
         2           Si  tau(   2) = (   0.0000000   0.0000000   2.1279818  )
         3           Si  tau(   3) = (   0.5841590   0.5841590   0.0000000  )
         4           Si  tau(   4) = (   0.5841590   0.5841590   1.3111282  )
         5           Li  tau(   5) = (   0.0000000   0.0000000   1.3111282  )

     number of k points=    30  Marzari-Vanderbilt smearing, width (Ry)=  0.0200
                       cart. coord. in units 2pi/alat
        k(    1) = (   0.0000000   0.0000000   0.0000000), wk =   0.0082305
        k(    2) = (   0.0000000   0.0000000   0.1271170), wk =   0.0164609
        k(    3) = (   0.0000000   0.0951035   0.0000000), wk =   0.0329218
        k(    4) = (   0.0000000   0.0951035   0.1271170), wk =   0.0658436
        k(    5) = (   0.0000000   0.1902070   0.0000000), wk =   0.0329218
        k(    6) = (   0.0000000   0.1902070   0.1271170), wk =   0.0658436
        k(    7) = (   0.0000000   0.2853105   0.0000000), wk =   0.0329218
        k(    8) = (   0.0000000   0.2853105   0.1271170), wk =   0.0658436
        k(    9) = (   0.0000000   0.3804140   0.0000000), wk =   0.0329218
        k(   10) = (   0.0000000   0.3804140   0.1271170), wk =   0.0658436
        k(   11) = (   0.0951035   0.0951035   0.0000000), wk =   0.0329218
        k(   12) = (   0.0951035   0.0951035   0.1271170), wk =   0.0658436
        k(   13) = (   0.0951035   0.1902070   0.0000000), wk =   0.0658436
        k(   14) = (   0.0951035   0.1902070   0.1271170), wk =   0.1316872
        k(   15) = (   0.0951035   0.2853105   0.0000000), wk =   0.0658436
        k(   16) = (   0.0951035   0.2853105   0.1271170), wk =   0.1316872
        k(   17) = (   0.0951035   0.3804140   0.0000000), wk =   0.0658436
        k(   18) = (   0.0951035   0.3804140   0.1271170), wk =   0.1316872
        k(   19) = (   0.1902070   0.1902070   0.0000000), wk =   0.0329218
        k(   20) = (   0.1902070   0.1902070   0.1271170), wk =   0.0658436
        k(   21) = (   0.1902070   0.2853105   0.0000000), wk =   0.0658436
        k(   22) = (   0.1902070   0.2853105   0.1271170), wk =   0.1316872
        k(   23) = (   0.1902070   0.3804140   0.0000000), wk =   0.0658436
        k(   24) = (   0.1902070   0.3804140   0.1271170), wk =   0.1316872
        k(   25) = (   0.2853105   0.2853105   0.0000000), wk =   0.0329218
        k(   26) = (   0.2853105   0.2853105   0.1271170), wk =   0.0658436
        k(   27) = (   0.2853105   0.3804140   0.0000000), wk =   0.0658436
        k(   28) = (   0.2853105   0.3804140   0.1271170), wk =   0.1316872
        k(   29) = (   0.3804140   0.3804140   0.0000000), wk =   0.0329218
        k(   30) = (   0.3804140   0.3804140   0.1271170), wk =   0.0658436

     Dense  grid:    35573 G-vectors     FFT dimensions: (  32,  32,  72)

     Estimated max dynamical RAM per process >      19.04 MB

     Estimated total dynamical RAM >     152.29 MB

     Initial potential from superposition of free atoms

     starting charge      18.9930, renormalised to      19.0000
     Starting wfcs are   18 randomized atomic wfcs

     total cpu time spent up to now is       57.6 secs

     Self-consistent Calculation

     iteration #  1     ecut=    80.00 Ry     beta= 0.70
     Davidson diagonalization with overlap
     c_bands:  1 eigenvalues not converged
     c_bands:  2 eigenvalues not converged
     c_bands:  2 eigenvalues not converged
     c_bands:  2 eigenvalues not converged
     c_bands:  3 eigenvalues not converged
     c_bands:  1 eigenvalues not converged
     c_bands:  1 eigenvalues not converged
     c_bands:  2 eigenvalues not converged
     c_bands:  1 eigenvalues not converged
     c_bands:  1 eigenvalues not converged
     c_bands:  1 eigenvalues not converged
     c_bands:  1 eigenvalues not converged
     c_bands:  2 eigenvalues not converged
     c_bands:  1 eigenvalues not converged
     c_bands:  1 eigenvalues not converged
     c_bands:  1 eigenvalues not converged
     c_bands:  1 eigenvalues not converged
     c_bands:  1 eigenvalues not converged
     ethr =  1.00E-06,  avg # of iterations = 19.2

     total cpu time spent up to now is       59.0 secs

     total energy              =     -47.63868405 Ry
     estimated scf accuracy    <       0.29407834 Ry

     iteration #  2     ecut=    80.00 Ry     beta= 0.70
     Davidson diagonalization with overlap
     ethr =  1.55E-03,  avg # of iterations =  3.4

     total cpu time spent up to now is       59.4 secs

     total energy              =     -47.44421696 Ry
     estimated scf accuracy    <       2.92933284 Ry

     iteration #  3     ecut=    80.00 Ry     beta= 0.70
     Davidson diagonalization with overlap
     ethr =  1.55E-03,  avg # of iterations =  2.6

     total cpu time spent up to now is       59.7 secs

     total energy              =     -47.81520506 Ry
     estimated scf accuracy    <       0.00367954 Ry

     iteration #  4     ecut=    80.00 Ry     beta= 0.70
     Davidson diagonalization with overlap
     ethr =  1.94E-05,  avg # of iterations =  5.6

     total cpu time spent up to now is       60.2 secs

     total energy              =     -47.81779817 Ry
     estimated scf accuracy    <       0.00102358 Ry

     iteration #  5     ecut=    80.00 Ry     beta= 0.70
     Davidson diagonalization with overlap
     ethr =  5.39E-06,  avg # of iterations =  1.7

     total cpu time spent up to now is       60.5 secs

     total energy              =     -47.81789787 Ry
     estimated scf accuracy    <       0.00004504 Ry

     iteration #  6     ecut=    80.00 Ry     beta= 0.70
     Davidson diagonalization with overlap
     ethr =  2.37E-07,  avg # of iterations =  2.6

     total cpu time spent up to now is       60.9 secs

     total energy              =     -47.81790909 Ry
     estimated scf accuracy    <       0.00000281 Ry

     iteration #  7     ecut=    80.00 Ry     beta= 0.70
     Davidson diagonalization with overlap
     ethr =  1.48E-08,  avg # of iterations =  2.5

     total cpu time spent up to now is       61.2 secs

     total energy              =     -47.81790980 Ry
     estimated scf accuracy    <       0.00000003 Ry

     iteration #  8     ecut=    80.00 Ry     beta= 0.70
     Davidson diagonalization with overlap
     ethr =  1.56E-10,  avg # of iterations =  4.4

     total cpu time spent up to now is       61.7 secs

     total energy              =     -47.81790984 Ry
     estimated scf accuracy    <          3.1E-10 Ry

     iteration #  9     ecut=    80.00 Ry     beta= 0.70
     Davidson diagonalization with overlap
     ethr =  1.63E-12,  avg # of iterations =  3.8

     total cpu time spent up to now is       62.0 secs

     End of self-consistent calculation

          k = 0.0000 0.0000 0.0000 (  4411 PWs)   bands (ev):

   -33.6669  -3.3738   0.9389   1.5381   9.4570  11.0685  11.7485  11.7485
    14.1599  14.6146  14.6146  15.4997  16.1982  16.1982

          k = 0.0000 0.0000 0.1271 (  4403 PWs)   bands (ev):

   -33.6669  -3.3050  -0.1036   3.5177   6.5152  11.9025  11.9025  13.8013
    13.8013  14.2576  14.3243  15.5009  16.6144  17.6745

          k = 0.0000 0.0951 0.0000 (  4441 PWs)   bands (ev):

   -33.6642  -3.1642   1.1483   1.6918   9.5697   9.6395  11.0118  11.9363
    13.2600  13.9400  14.8080  14.9805  16.3861  17.4041

          k = 0.0000 0.0951 0.1271 (  4440 PWs)   bands (ev):

   -33.6642  -3.0939   0.0805   3.6952   6.6831   9.6909  11.8607  12.0896
    13.9948  14.6381  15.1478  15.6461  17.3399  17.9008

          k = 0.0000 0.1902 0.0000 (  4448 PWs)   bands (ev):

   -33.6573  -2.5373   1.7748   2.1374   6.7336   9.9361  10.0548  11.2344
    12.4990  12.5825  15.3885  15.6669  16.9465  18.1608

          k = 0.0000 0.1902 0.1271 (  4435 PWs)   bands (ev):

   -33.6573  -2.4626   0.6263   4.2099   6.8213   7.1430   9.4328  12.6504
    13.0787  14.5750  15.2181  15.6142  16.2091  18.4053

          k = 0.0000 0.2853 0.0000 (  4442 PWs)   bands (ev):

   -33.6495  -1.5005   2.7452   2.8123   4.2738   8.1170   8.3373  11.3336
    13.2558  13.4338  16.3513  16.3555  16.6510  17.8665

          k = 0.0000 0.2853 0.1271 (  4453 PWs)   bands (ev):

   -33.6495  -1.4191   1.5011   4.1823   5.0101   6.9579   8.2706  10.8969
    13.5822  13.6044  15.5395  16.1449  16.8291  18.6671

          k = 0.0000 0.3804 0.0000 (  4440 PWs)   bands (ev):

   -33.6444  -0.0786   1.7575   3.8453   4.2340   6.1648   6.7139  12.6376
    14.3541  14.3817  14.7120  16.1535  16.5304  17.7035

          k = 0.0000 0.3804 0.1271 (  4448 PWs)   bands (ev):

   -33.6444   0.0020   1.9130   2.6761   4.7219   6.7862   8.0827  10.2557
    11.6311  14.8565  16.6691  16.8762  17.1943  18.0582

          k = 0.0951 0.0951 0.0000 (  4427 PWs)   bands (ev):

   -33.6615  -2.9548   1.3575   1.8482   9.5159   9.8216  10.0471  11.0827
    12.5590  14.0598  14.1998  14.4821  17.1943  17.8465

          k = 0.0951 0.0951 0.1271 (  4434 PWs)   bands (ev):

   -33.6615  -2.8830   0.2652   3.8747   6.8556   9.6794  10.1154  11.6649
    12.4430  15.3616  15.6389  16.1257  17.3449  17.6563

          k = 0.0951 0.1902 0.0000 (  4430 PWs)   bands (ev):

   -33.6548  -2.3286   1.9836   2.3025   6.9170  10.0390  10.2386  10.4722
    11.4257  12.1108  14.6886  14.7401  18.0949  18.9484

          k = 0.0951 0.1902 0.1271 (  4427 PWs)   bands (ev):

   -33.6548  -2.2525   0.8129   4.3960   7.0133   7.3306   9.5104  10.5198
    12.5377  13.4366  15.6851  16.1650  17.0775  18.1313

          k = 0.0951 0.2853 0.0000 (  4442 PWs)   bands (ev):

   -33.6472  -1.2929   2.9306   3.0202   4.4632   8.2388   8.5375  11.3715
    11.5094  12.9257  15.3407  15.4434  16.6489  16.9969

          k = 0.0951 0.2853 0.1271 (  4451 PWs)   bands (ev):

   -33.6472  -1.2102   1.6922   4.3840   5.2101   7.1200   8.4266  10.9714
    11.4674  13.4688  14.0222  16.7157  16.7774  17.5690

          k = 0.0951 0.3804 0.0000 (  4456 PWs)   bands (ev):

   -33.6422   0.1275   1.9637   4.0449   4.4410   6.3678   6.8148  12.6723
    12.7968  14.0125  14.4965  14.5024  16.0596  16.6736

          k = 0.0951 0.3804 0.1271 (  4455 PWs)   bands (ev):

   -33.6422   0.2090   2.1192   2.8770   4.9063   6.9542   8.2674  10.3569
    11.7386  12.7959  14.6454  15.0173  16.3901  18.4170

          k = 0.1902 0.1902 0.0000 (  4419 PWs)   bands (ev):

   -33.6485  -1.7043   2.6080   2.7844   7.1775   7.8816  10.2410  10.7008
    11.0005  11.7353  12.2500  14.4150  16.3931  18.9771

          k = 0.1902 0.1902 0.1271 (  4431 PWs)   bands (ev):

   -33.6485  -1.6243   1.3668   4.9405   7.3468   7.8638   7.9075   9.3217
    10.8933  13.3587  14.2204  16.4170  16.4900  16.9965

          k = 0.1902 0.2853 0.0000 (  4444 PWs)   bands (ev):

   -33.6414  -0.6719   3.4762   3.6420   5.0178   8.3044   8.8451   9.1354
    11.6896  11.8627  13.0265  13.7122  14.7887  17.2413

          k = 0.1902 0.2853 0.1271 (  4439 PWs)   bands (ev):

   -33.6414  -0.5857   2.2600   4.9840   5.7996   7.5388   8.6515   8.8644
    10.7432  11.9689  13.8038  14.0852  15.2680  16.1181

          k = 0.1902 0.3804 0.0000 (  4448 PWs)   bands (ev):

   -33.6367   0.7438   2.5800   4.6337   5.0600   6.9752   7.0873   9.9115
    11.7030  12.8961  13.0355  14.1963  14.2650  15.4866

          k = 0.1902 0.3804 0.1271 (  4442 PWs)   bands (ev):

   -33.6367   0.8284   2.7352   3.4741   5.4451   7.4376   8.8109   9.9525
    10.5595  11.7801  12.2263  12.7068  14.1055  16.5375

          k = 0.2853 0.2853 0.0000 (  4431 PWs)   bands (ev):

   -33.6348   0.3552   4.3121   4.6715   5.5874   6.3942   8.6453  10.0987
    10.1427  10.4535  11.5317  13.1297  13.8007  15.7114

          k = 0.2853 0.2853 0.1271 (  4448 PWs)   bands (ev):

   -33.6348   0.4467   3.1806   5.7604   6.2200   6.7951   7.7158   9.1984
     9.9691  11.4508  11.7865  12.8169  13.8360  15.6759

          k = 0.2853 0.3804 0.0000 (  4444 PWs)   bands (ev):

   -33.6305   1.7630   3.5954   5.5471   6.0834   7.0860   7.8217   7.9809
     9.1669  11.1945  11.4322  12.5804  13.2033  14.8773

          k = 0.2853 0.3804 0.1271 (  4439 PWs)   bands (ev):

   -33.6305   1.8528   3.7497   4.4432   6.2601   7.3805   8.1932   9.3205
     9.5702  10.1123  11.0909  12.1491  12.9289  14.5061

          k = 0.3804 0.3804 0.0000 (  4449 PWs)   bands (ev):

   -33.6264   3.1600   4.7890   5.1813   6.8642   7.0072   7.4842   7.8414
     9.3409   9.3690   9.6028  11.2252  11.6771  15.9791

          k = 0.3804 0.3804 0.1271 (  4433 PWs)   bands (ev):

   -33.6264   3.2517   4.9639   5.2622   5.8079   6.9076   7.1909   8.2495
     9.0704  10.3211  10.9936  11.0934  12.7092  13.9151

     the Fermi energy is    12.4914 ev

!    total energy              =     -47.81790984 Ry
     estimated scf accuracy    <          4.7E-12 Ry
     smearing contrib. (-TS)   =       0.00002057 Ry
     internal energy E=F+TS    =     -47.81793041 Ry

     The total energy is F=E-TS. E is the sum of the following terms:
     one-electron contribution =      14.12481543 Ry
     hartree contribution      =       3.75184857 Ry
     xc contribution           =     -16.66446458 Ry
     ewald contribution        =     -49.03012982 Ry

     convergence has been achieved in   9 iterations

     Forces acting on atoms (cartesian axes, Ry/au):

     atom    1 type  1   force =     0.00000000    0.00000000    0.00039247
     atom    2 type  1   force =     0.00000000    0.00000000   -0.00039247
     atom    3 type  1   force =     0.00000000    0.00000000    0.00000000
     atom    4 type  1   force =     0.00000000    0.00000000    0.00000000
     atom    5 type  2   force =     0.00000000    0.00000000    0.00000000
     The non-local contrib.  to forces
     atom    1 type  1   force =     0.00000000    0.00000000   -0.02451144
     atom    2 type  1   force =     0.00000000    0.00000000    0.02451144
     atom    3 type  1   force =     0.00000000    0.00000000    0.00000000
     atom    4 type  1   force =     0.00000000    0.00000000    0.00000000
     atom    5 type  2   force =     0.00000000    0.00000000    0.00000000
     The ionic contribution  to forces
     atom    1 type  1   force =    -0.00000000   -0.00000000    0.27977529
     atom    2 type  1   force =    -0.00000000   -0.00000000   -0.27977529
     atom    3 type  1   force =     0.00000000    0.00000000    0.00000000
     atom    4 type  1   force =     0.00000000    0.00000000   -0.00000000
     atom    5 type  2   force =    -0.00000000   -0.00000000    0.00000000
     The local contribution  to forces
     atom    1 type  1   force =     0.00000000    0.00000000   -0.25258267
     atom    2 type  1   force =     0.00000000    0.00000000    0.25258267
     atom    3 type  1   force =    -0.00000000   -0.00000000    0.00000000
     atom    4 type  1   force =    -0.00000000   -0.00000000    0.00000000
     atom    5 type  2   force =     0.00000000    0.00000000    0.00000000
     The core correction contribution to forces
     atom    1 type  1   force =     0.00000000    0.00000000   -0.00228830
     atom    2 type  1   force =    -0.00000000   -0.00000000    0.00228830
     atom    3 type  1   force =    -0.00000000   -0.00000000   -0.00000000
     atom    4 type  1   force =    -0.00000000   -0.00000000   -0.00000000
     atom    5 type  2   force =     0.00000000    0.00000000    0.00000000
     The Hubbard contrib.    to forces
     atom    1 type  1   force =     0.00000000    0.00000000    0.00000000
     atom    2 type  1   force =     0.00000000    0.00000000    0.00000000
     atom    3 type  1   force =     0.00000000    0.00000000    0.00000000
     atom    4 type  1   force =     0.00000000    0.00000000    0.00000000
     atom    5 type  2   force =     0.00000000    0.00000000    0.00000000
     The SCF correction term to forces
     atom    1 type  1   force =     0.00000000    0.00000000   -0.00000041
     atom    2 type  1   force =    -0.00000000   -0.00000000    0.00000041
     atom    3 type  1   force =     0.00000000   -0.00000000    0.00000000
     atom    4 type  1   force =     0.00000000   -0.00000000    0.00000000
     atom    5 type  2   force =    -0.00000000   -0.00000000   -0.00000000

     Total force =     0.000555     Total SCF correction =     0.000001


     Computing stress (Cartesian axis) and pressure

          total   stress  (Ry/bohr**3)                   (kbar)     P=      502.42
   0.00342019   0.00000000   0.00000000          503.13        0.00        0.00
   0.00000000   0.00342019   0.00000000            0.00      503.13        0.00
   0.00000000   0.00000000   0.00340569            0.00        0.00      500.99


     Writing all to output data dir ./output/SiLi.save/

     init_run     :      1.09s CPU      1.62s WALL (       2 calls)
     electrons    :     44.02s CPU     47.78s WALL (      11 calls)
     update_pot   :      2.56s CPU      2.62s WALL (       9 calls)
     forces       :      2.04s CPU      2.14s WALL (      11 calls)
     stress       :      8.27s CPU      8.68s WALL (      11 calls)

     Called by init_run:
     wfcinit      :      0.28s CPU      0.29s WALL (       2 calls)
     potinit      :      0.34s CPU      0.71s WALL (       2 calls)
     hinit0       :      0.43s CPU      0.51s WALL (       2 calls)

     Called by electrons:
     c_bands      :     38.73s CPU     41.35s WALL (     109 calls)
     sum_band     :      4.48s CPU      4.72s WALL (     109 calls)
     v_of_rho     :      0.86s CPU      1.99s WALL (     119 calls)
     mix_rho      :      0.07s CPU      0.13s WALL (     109 calls)

     Called by c_bands:
     init_us_2    :      0.91s CPU      0.99s WALL (    7260 calls)
     init_us_2:cp :      0.90s CPU      0.98s WALL (    7260 calls)
     cegterg      :     35.84s CPU     36.97s WALL (    3270 calls)

     Called by *egterg:
     cdiaghg      :      3.39s CPU      3.49s WALL (   15591 calls)
     h_psi        :     28.59s CPU     29.50s WALL (   15951 calls)
     g_psi        :      0.15s CPU      0.16s WALL (   12621 calls)

     Called by h_psi:
     h_psi:calbec :      2.64s CPU      2.73s WALL (   15951 calls)
     vloc_psi     :     23.68s CPU     24.43s WALL (   15951 calls)
     add_vuspsi   :      2.15s CPU      2.21s WALL (   15951 calls)

     General routines
     calbec       :      3.17s CPU      3.29s WALL (   17601 calls)
     fft          :      1.06s CPU      2.44s WALL (    1464 calls)
     ffts         :      0.05s CPU      0.10s WALL (     109 calls)
     fftw         :     24.60s CPU     25.37s WALL (  334274 calls)

     Parallel routines

     PWSCF        :     58.29s CPU   1m 3.45s WALL


   This run was terminated on:  21:31:14  29Dec2024            

=------------------------------------------------------------------------------=
   JOB DONE.
=------------------------------------------------------------------------------=
