
     Program PWSCF v.7.2 starts on 29Dec2024 at 21:54:27 

     This program is part of the open-source Quantum ESPRESSO suite
     for quantum simulation of materials; please cite
         "P. Giannozzi et al., J. Phys.:Condens. Matter 21 395502 (2009);
         "P. Giannozzi et al., J. Phys.:Condens. Matter 29 465901 (2017);
         "P. Giannozzi et al., J. Chem. Phys. 152 154105 (2020);
          URL http://www.quantum-espresso.org", 
     in publications or presentations arising from this work. More details at
     http://www.quantum-espresso.org/quote

     Parallel version (MPI & OpenMP), running on       8 processor cores
     Number of MPI processes:                 8
     Threads/MPI process:                     1

     MPI processes distributed on     1 nodes
     481369 MiB available memory on the printing compute node when the environment starts

     Waiting for input...
     Reading input from standard input

     Current dimensions of program PWSCF are:
     Max number of different atomic species (ntypx) = 10
     Max number of k-points (npk) =  40000
     Max angular momentum in pseudopotentials (lmaxx) =  4

     R & G space division:  proc/nbgrp/npool/nimage =       8
     Subspace diagonalization in iterative solution of the eigenvalue problem:
     a serial algorithm will be used


     Parallelization info
     --------------------
     sticks:   dense  smooth     PW     G-vecs:    dense   smooth      PW
     Min         168     168     53                 4055     4055     718
     Max         169     169     54                 4056     4056     720
     Sum        1345    1345    425                32447    32447    5753

     Using Slab Decomposition



     bravais-lattice index     =            7
     lattice parameter (alat)  =       7.7361  a.u.
     unit-cell volume          =     335.4578 (a.u.)^3
     number of atoms/cell      =           10
     number of atomic types    =            2
     number of electrons       =        32.00
     number of Kohn-Sham states=           20
     kinetic-energy cutoff     =      80.0000  Ry
     charge density cutoff     =     320.0000  Ry
     scf convergence threshold =      1.0E-08
     mixing beta               =       0.7000
     number of iterations used =            8  plain     mixing
     energy convergence thresh.=      1.0E-04
     force convergence thresh. =      1.0E-03
     press convergence thresh. =      1.0E+00
     Exchange-correlation= PBE
                           (   1   4   3   4   0   0   0)
     nstep                     =           50


     celldm(1)=   7.736084  celldm(2)=   0.000000  celldm(3)=   1.449120
     celldm(4)=   0.000000  celldm(5)=   0.000000  celldm(6)=   0.000000

     crystal axes: (cart. coord. in units of alat)
               a(1) = (   0.500000  -0.500000   0.724560 )  
               a(2) = (   0.500000   0.500000   0.724560 )  
               a(3) = (  -0.500000  -0.500000   0.724560 )  

     reciprocal axes: (cart. coord. in units 2 pi/alat)
               b(1) = (  1.000000 -1.000000  0.000000 )  
               b(2) = (  0.000000  1.000000  0.690074 )  
               b(3) = ( -1.000000  0.000000  0.690074 )  


     PseudoPot. # 1 for Si read from file:
     ../pseudo/Si_ONCV_PBE_sr.upf
     MD5 check sum: e543d271109d17c80368dfa7c482276d
     Pseudo is Norm-conserving + core correction, Zval =  4.0
     Generated using ONCVPSP code by D. R. Hamann
     Using radial grid of 1510 points,  6 beta functions with: 
                l(1) =   0
                l(2) =   0
                l(3) =   1
                l(4) =   1
                l(5) =   2
                l(6) =   2

     PseudoPot. # 2 for Li read from file:
     ../pseudo/Li_ONCV_PBE_sr.upf
     MD5 check sum: 50ff420e78310ffa21704f3361e624a4
     Pseudo is Norm-conserving, Zval =  3.0
     Generated using ONCVPSP code by D. R. Hamann
     Using radial grid of 1944 points,  4 beta functions with: 
                l(1) =   0
                l(2) =   0
                l(3) =   1
                l(4) =   1

     atomic species   valence    mass     pseudopotential
        Si             4.00    28.08550     Si( 1.00)
        Li             3.00     6.94100     Li( 1.00)

     16 Sym. Ops., with inversion, found ( 8 have fractional translation)



   Cartesian axes

     site n.     atom                  positions (alat units)
         1           Si  tau(   1) = (   0.0000000   0.0000000   0.3622800  )
         2           Si  tau(   2) = (   0.0000000   0.0000000   1.0868401  )
         3           Li  tau(   3) = (   0.1578670   0.3421330   0.8625953  )
         4           Li  tau(   4) = (   0.8421330   0.6578670   0.5865249  )
         5           Li  tau(   5) = (   0.6578670   0.1578670   0.8625953  )
         6           Li  tau(   6) = (   0.3421330   0.8421330   0.5865249  )
         7           Li  tau(   7) = (   0.8421330   0.6578670   0.8625953  )
         8           Li  tau(   8) = (   0.1578670   0.3421330   0.5865249  )
         9           Li  tau(   9) = (   0.3421330   0.8421330   0.8625953  )
        10           Li  tau(  10) = (   0.6578670   0.1578670   0.5865249  )

     number of k points=    47  Marzari-Vanderbilt smearing, width (Ry)=  0.0200
                       cart. coord. in units 2pi/alat
        k(    1) = (   0.0000000   0.0000000   0.0000000), wk =   0.0200000
        k(    2) = (  -0.2500000   0.0000000   0.1725185), wk =   0.0400000
        k(    3) = (   0.5000000   0.0000000  -0.3450369), wk =   0.0200000
        k(    4) = (   0.0000000   0.2000000   0.1380148), wk =   0.0800000
        k(    5) = (  -0.2500000   0.2000000   0.3105333), wk =   0.0400000
        k(    6) = (   0.5000000   0.2000000  -0.2070222), wk =   0.0400000
        k(    7) = (   0.2500000   0.2000000  -0.0345037), wk =   0.0400000
        k(    8) = (   0.0000000   0.4000000   0.2760296), wk =   0.0800000
        k(    9) = (  -0.2500000   0.4000000   0.4485480), wk =   0.0400000
        k(   10) = (   0.5000000   0.4000000  -0.0690074), wk =   0.0400000
        k(   11) = (   0.2500000   0.4000000   0.1035111), wk =   0.0400000
        k(   12) = (   0.2000000  -0.2000000   0.0000000), wk =   0.0400000
        k(   13) = (  -0.0500000  -0.2000000   0.1725185), wk =   0.0400000
        k(   14) = (   0.7000000  -0.2000000  -0.3450369), wk =   0.0400000
        k(   15) = (   0.4500000  -0.2000000  -0.1725185), wk =   0.0400000
        k(   16) = (  -0.0500000   0.0000000   0.3105333), wk =   0.0400000
        k(   17) = (   0.7000000   0.0000000  -0.2070222), wk =   0.0400000
        k(   18) = (   0.4500000   0.0000000  -0.0345037), wk =   0.0400000
        k(   19) = (   0.2000000   0.2000000   0.2760296), wk =   0.0400000
        k(   20) = (  -0.0500000   0.2000000   0.4485480), wk =   0.0400000
        k(   21) = (   0.7000000   0.2000000  -0.0690074), wk =   0.0400000
        k(   22) = (   0.4500000   0.2000000   0.1035111), wk =   0.0400000
        k(   23) = (   0.2000000  -0.6000000  -0.2760296), wk =   0.0800000
        k(   24) = (  -0.0500000  -0.6000000  -0.1035111), wk =   0.0400000
        k(   25) = (   0.7000000  -0.6000000  -0.6210665), wk =   0.0400000
        k(   26) = (   0.4500000  -0.6000000  -0.4485480), wk =   0.0400000
        k(   27) = (   0.2000000  -0.4000000  -0.1380148), wk =   0.0800000
        k(   28) = (  -0.0500000  -0.4000000   0.0345037), wk =   0.0400000
        k(   29) = (   0.7000000  -0.4000000  -0.4830517), wk =   0.0400000
        k(   30) = (   0.4500000  -0.4000000  -0.3105333), wk =   0.0400000
        k(   31) = (   0.4000000  -0.4000000   0.0000000), wk =   0.0400000
        k(   32) = (   0.1500000  -0.4000000   0.1725185), wk =   0.0400000
        k(   33) = (   0.9000000  -0.4000000  -0.3450369), wk =   0.0400000
        k(   34) = (   0.6500000  -0.4000000  -0.1725185), wk =   0.0400000
        k(   35) = (   0.1500000  -0.2000000   0.3105333), wk =   0.0400000
        k(   36) = (   0.9000000  -0.2000000  -0.2070222), wk =   0.0400000
        k(   37) = (   0.6500000  -0.2000000  -0.0345037), wk =   0.0400000
        k(   38) = (   0.1500000   0.0000000   0.4485480), wk =   0.0400000
        k(   39) = (   0.9000000   0.0000000  -0.0690074), wk =   0.0400000
        k(   40) = (   0.6500000   0.0000000   0.1035111), wk =   0.0400000
        k(   41) = (   0.1500000  -0.8000000  -0.1035111), wk =   0.0400000
        k(   42) = (   0.9000000  -0.8000000  -0.6210665), wk =   0.0400000
        k(   43) = (   0.6500000  -0.8000000  -0.4485480), wk =   0.0400000
        k(   44) = (   0.4000000  -0.6000000  -0.1380148), wk =   0.0400000
        k(   45) = (   0.1500000  -0.6000000   0.0345037), wk =   0.0400000
        k(   46) = (   0.9000000  -0.6000000  -0.4830517), wk =   0.0400000
        k(   47) = (   0.6500000  -0.6000000  -0.3105333), wk =   0.0400000

     Dense  grid:    32447 G-vectors     FFT dimensions: (  45,  48,  48)

     Estimated max dynamical RAM per process >      23.09 MB

     Estimated total dynamical RAM >     184.76 MB

     Initial potential from superposition of free atoms

     starting charge      31.9623, renormalised to      32.0000
     Starting wfcs are   24 randomized atomic wfcs

     total cpu time spent up to now is        1.6 secs

     Self-consistent Calculation

     iteration #  1     ecut=    80.00 Ry     beta= 0.70
     Davidson diagonalization with overlap
     ethr =  1.00E-02,  avg # of iterations =  5.9

     Threshold (ethr) on eigenvalues was too large:
     Diagonalizing with lowered threshold

     Davidson diagonalization with overlap
     ethr =  1.79E-04,  avg # of iterations =  4.0

     total cpu time spent up to now is        4.5 secs

     total energy              =    -129.02557066 Ry
     estimated scf accuracy    <       0.05748157 Ry

     iteration #  2     ecut=    80.00 Ry     beta= 0.70
     Davidson diagonalization with overlap
     ethr =  1.80E-04,  avg # of iterations =  1.1

     total cpu time spent up to now is        5.5 secs

     total energy              =    -129.02742362 Ry
     estimated scf accuracy    <       0.00421607 Ry

     iteration #  3     ecut=    80.00 Ry     beta= 0.70
     Davidson diagonalization with overlap
     ethr =  1.32E-05,  avg # of iterations =  3.5

     total cpu time spent up to now is        6.7 secs

     total energy              =    -129.02775364 Ry
     estimated scf accuracy    <       0.00019483 Ry

     iteration #  4     ecut=    80.00 Ry     beta= 0.70
     Davidson diagonalization with overlap
     ethr =  6.09E-07,  avg # of iterations =  3.8

     total cpu time spent up to now is        7.9 secs

     total energy              =    -129.02778778 Ry
     estimated scf accuracy    <       0.00000525 Ry

     iteration #  5     ecut=    80.00 Ry     beta= 0.70
     Davidson diagonalization with overlap
     ethr =  1.64E-08,  avg # of iterations =  2.7

     total cpu time spent up to now is        9.1 secs

     total energy              =    -129.02778848 Ry
     estimated scf accuracy    <       0.00000008 Ry

     iteration #  6     ecut=    80.00 Ry     beta= 0.70
     Davidson diagonalization with overlap
     ethr =  2.36E-10,  avg # of iterations =  3.8

     total cpu time spent up to now is       10.4 secs

     End of self-consistent calculation

          k = 0.0000 0.0000 0.0000 (  4031 PWs)   bands (ev):

   -36.9727 -36.3839 -36.1878 -36.1878 -32.1267 -32.0063 -31.9564 -31.9564
     3.2315   7.9447   8.6846  10.6776  11.0152  11.0152  11.3265  11.3265
    13.1082  13.6017  17.7834  17.8165

          k =-0.2500 0.0000 0.1725 (  4043 PWs)   bands (ev):

   -36.8774 -36.4540 -36.2040 -36.1984 -32.1490 -32.1078 -31.9177 -31.8751
     3.5056   6.1077   9.2115   9.7858  10.3319  11.2557  11.7093  13.2997
    13.8499  15.0546  17.7441  18.6771

          k = 0.5000 0.0000-0.3450 (  4056 PWs)   bands (ev):

   -36.6553 -36.6553 -36.2124 -36.2124 -32.1651 -32.1651 -31.8616 -31.8616
     4.4123   4.4123   9.0477   9.0477  11.3136  11.3136  12.4037  12.4037
    16.0811  16.0811  17.8525  17.8525

          k = 0.0000 0.2000 0.1380 (  4036 PWs)   bands (ev):

   -36.9104 -36.4282 -36.1996 -36.1950 -32.1424 -32.0868 -31.9300 -31.8893
     3.4052   6.5319   9.2258  10.0471  10.2552  11.1276  11.6663  13.1314
    13.3513  14.6951  18.0894  18.2030

          k =-0.2500 0.2000 0.3105 (  4063 PWs)   bands (ev):

   -36.7854 -36.5029 -36.2369 -36.2102 -32.2176 -32.0809 -31.8948 -31.8591
     3.9790   4.9996   8.9069   9.2609  10.9419  11.7086  11.9473  13.2183
    14.6646  15.1872  19.2171  19.7388

          k = 0.5000 0.2000-0.2070 (  4058 PWs)   bands (ev):

   -36.6923 -36.5922 -36.2461 -36.2040 -32.2323 -32.0867 -31.8984 -31.8385
     3.8365   5.1961   8.3467   8.8264  10.4748  11.8727  13.1595  13.7208
    14.8984  16.5720  17.9131  19.8426

          k = 0.2500 0.2000-0.0345 (  4046 PWs)   bands (ev):

   -36.8717 -36.4605 -36.2089 -36.1914 -32.1603 -32.0842 -31.9597 -31.8478
     3.3413   7.1763   7.8834   8.8324  10.2536  11.6530  12.7997  13.7776
    14.3596  15.6656  17.7888  17.9028

          k = 0.0000 0.4000 0.2760 (  4042 PWs)   bands (ev):

   -36.7507 -36.5636 -36.2124 -36.2085 -32.1647 -32.1527 -31.8797 -31.8556
     3.9621   4.9928   9.0405   9.2174  10.8877  11.6220  11.9115  12.8337
    15.7489  16.2355  16.5944  19.1895

          k =-0.2500 0.4000 0.4485 (  4058 PWs)   bands (ev):

   -36.6477 -36.6160 -36.2642 -36.2071 -32.2501 -32.0735 -31.8851 -31.8477
     4.0554   4.8334   8.2788   8.8328  10.6932  12.0607  12.8817  13.4896
    15.0545  16.4281  19.3328  20.3050

          k = 0.5000 0.4000-0.0690 (  4062 PWs)   bands (ev):

   -36.6955 -36.5412 -36.2995 -36.1968 -32.2580 -32.0332 -31.9576 -31.8110
     3.4948   6.2486   7.7278   7.9182   9.5922  12.1728  14.2348  15.4268
    16.5878  17.2439  17.8649  18.7541

          k = 0.2500 0.4000 0.1035 (  4055 PWs)   bands (ev):

   -36.7685 -36.5227 -36.2453 -36.1965 -32.2208 -32.0676 -31.9424 -31.8253
     3.5003   6.1582   8.1074   8.3990   9.9463  11.9040  13.8679  14.5232
    14.9483  16.5745  17.3757  18.8740

          k = 0.2000-0.2000 0.0000 (  4045 PWs)   bands (ev):

   -36.8934 -36.4464 -36.2021 -36.1905 -32.1437 -32.0879 -31.9616 -31.8577
     3.3136   7.6319   7.6359   9.0240  10.3830  11.6235  12.4310  13.3759
    14.2836  15.3402  17.7514  18.1157

          k =-0.0500-0.2000 0.1725 (  4038 PWs)   bands (ev):

   -36.8969 -36.4334 -36.2034 -36.2000 -32.1579 -32.0808 -31.9259 -31.8841
     3.4773   6.2307   9.4972   9.8089  10.3728  11.0132  11.8185  13.1687
    13.4342  14.6688  18.2623  18.3641

          k = 0.7000-0.2000-0.3450 (  4062 PWs)   bands (ev):

   -36.7478 -36.5336 -36.2435 -36.2106 -32.2278 -32.0836 -31.8815 -31.8605
     4.1645   4.7177   8.7407   9.1154  11.2289  11.5015  12.2537  13.1706
    14.7246  15.6768  19.2131  19.9157

          k = 0.4500-0.2000-0.1725 (  4060 PWs)   bands (ev):

   -36.7340 -36.5581 -36.2408 -36.2011 -32.2232 -32.0856 -31.9128 -31.8341
     3.6853   5.5330   8.3255   8.7647  10.2758  11.8057  13.4456  13.8765
    14.8637  16.5811  17.4138  19.5634

          k =-0.0500 0.0000 0.3105 (  4044 PWs)   bands (ev):

   -36.8725 -36.3973 -36.2322 -36.2312 -32.2720 -31.9972 -31.8913 -31.8899
     3.8189   5.5043   9.6982   9.7358  10.0474  11.1471  12.3803  13.0787
    13.2639  14.7493  18.0789  20.0959

          k = 0.7000 0.0000-0.2070 (  4051 PWs)   bands (ev):

   -36.7115 -36.5535 -36.2501 -36.2152 -32.3428 -32.0295 -31.8515 -31.8353
     4.2272   4.7600   8.5808   9.1235  10.2556  10.9546  13.3374  13.4458
    15.0568  17.4936  18.1177  19.9227

          k = 0.4500 0.0000-0.0345 (  4037 PWs)   bands (ev):

   -36.7797 -36.5416 -36.2227 -36.1864 -32.2660 -32.0643 -31.8930 -31.8337
     3.4912   6.3899   7.5997   9.2786   9.9787  12.2455  12.6068  13.6287
    15.0536  16.5424  17.7058  18.2351

          k = 0.2000 0.2000 0.2760 (  4055 PWs)   bands (ev):

   -36.8202 -36.4776 -36.2285 -36.2089 -32.2047 -32.0783 -31.9068 -31.8613
     3.8191   5.2984   9.0913   9.4425  10.6680  11.6265  11.9077  13.2001
    14.6402  14.6745  19.2326  19.3604

          k =-0.0500 0.2000 0.4485 (  4051 PWs)   bands (ev):

   -36.7645 -36.4793 -36.2576 -36.2287 -32.3530 -32.0111 -31.8495 -31.8446
     4.4669   4.5487   8.8439   9.2992  10.1905  10.4192  13.3816  13.6425
    15.0945  16.3151  18.9357  19.8721

          k = 0.7000 0.2000-0.0690 (  4059 PWs)   bands (ev):

   -36.6505 -36.5872 -36.2918 -36.1979 -32.3777 -32.0150 -31.8613 -31.8101
     3.8112   5.4953   7.7975   8.5504  10.7069  11.2805  12.1221  15.3121
    16.7833  17.5992  18.2128  19.6681

          k = 0.4500 0.2000 0.1035 (  4056 PWs)   bands (ev):

   -36.7502 -36.5437 -36.2454 -36.1930 -32.2462 -32.0647 -31.9212 -31.8249
     3.5438   6.0280   7.9910   8.5178  10.3778  11.5141  13.6727  14.3186
    15.1048  16.8245  17.2809  18.9397

          k = 0.2000-0.6000-0.2760 (  4054 PWs)   bands (ev):

   -36.6694 -36.6073 -36.2498 -36.2087 -32.2381 -32.0869 -31.8741 -31.8561
     4.2230   4.6191   8.4812   8.9326  10.9889  11.7480  12.7933  13.1832
    14.8761  16.3378  19.1437  19.5880

          k =-0.0500-0.6000-0.1035 (  4054 PWs)   bands (ev):

   -36.6528 -36.6286 -36.2486 -36.1988 -32.3422 -32.0356 -31.8621 -31.8213
     3.7776   5.5055   7.9593   8.9721  10.0716  11.8823  12.8643  13.6583
    15.9017  16.8252  18.2885  19.6704

          k = 0.7000-0.6000-0.6211 (  4055 PWs)   bands (ev):

   -36.6618 -36.5814 -36.2966 -36.1910 -32.3097 -32.0311 -31.9100 -31.8107
     3.6038   5.9198   7.6487   8.1736  10.4913  11.7189  12.7671  15.5108
    16.5466  17.5446  18.1762  19.0220

          k = 0.4500-0.6000-0.4485 (  4062 PWs)   bands (ev):

   -36.6698 -36.5736 -36.2677 -36.2262 -32.1884 -32.0946 -31.9237 -31.8489
     3.8906   5.0168   8.1307   8.8414   9.8675  12.6462  13.2612  14.9500
    15.0645  15.7127  19.6472  19.9695

          k = 0.2000-0.4000-0.1380 (  4059 PWs)   bands (ev):

   -36.7741 -36.5276 -36.2338 -36.1981 -32.2106 -32.0843 -31.9274 -31.8329
     3.5615   5.9022   8.3167   8.6869  10.1527  11.7310  13.6685  13.9095
    14.7781  16.4515  17.1991  19.0975

          k =-0.0500-0.4000 0.0345 (  4031 PWs)   bands (ev):

   -36.8145 -36.5148 -36.2164 -36.1854 -32.2326 -32.0751 -31.9073 -31.8403
     3.4356   6.6369   7.6243   9.2564  10.1977  11.6842  12.7609  13.9596
    14.5386  16.6564  17.3906  17.8109

          k = 0.7000-0.4000-0.4831 (  4064 PWs)   bands (ev):

   -36.7268 -36.5466 -36.2470 -36.2154 -32.1883 -32.0985 -31.9289 -31.8392
     3.7410   5.3494   8.2793   8.9958   9.7154  12.6354  13.2406  14.1998
    14.9172  15.7357  18.5771  19.9060

          k = 0.4500-0.4000-0.3105 (  4073 PWs)   bands (ev):

   -36.6453 -36.5970 -36.2529 -36.2431 -32.1538 -32.1305 -31.8995 -31.8709
     4.1790   4.5891   8.3347   8.5747  10.7383  11.7092  13.8275  14.4036
    15.0470  15.4837  19.9999  20.4459

          k = 0.4000-0.4000 0.0000 (  4070 PWs)   bands (ev):

   -36.7302 -36.5241 -36.2836 -36.1948 -32.2452 -32.0339 -31.9699 -31.8102
     3.4307   6.7494   7.4596   7.8468   9.6024  12.0903  14.5107  15.4707
    16.5982  16.8142  17.7457  17.9774

          k = 0.1500-0.4000 0.1725 (  4051 PWs)   bands (ev):

   -36.7752 -36.5345 -36.2245 -36.1998 -32.1986 -32.1027 -31.9124 -31.8404
     3.6392   5.6578   8.5277   8.9382  10.3846  11.5566  13.2021  13.5061
    14.9041  16.3190  16.9918  19.2855

          k = 0.9000-0.4000-0.3450 (  4047 PWs)   bands (ev):

   -36.7145 -36.5858 -36.2244 -36.2107 -32.2052 -32.1184 -31.8693 -31.8606
     4.2542   4.5918   8.9135   9.0863  11.2866  11.3600  12.2929  12.7704
    15.1787  16.2865  17.8996  19.0212

          k = 0.6500-0.4000-0.1725 (  4062 PWs)   bands (ev):

   -36.6492 -36.5924 -36.2895 -36.2030 -32.2631 -32.0522 -31.9135 -31.8296
     3.7682   5.3331   7.9596   8.5846  10.0768  12.4732  13.0256  14.2794
    15.8604  16.7336  19.6846  19.9193

          k = 0.1500-0.2000 0.3105 (  4049 PWs)   bands (ev):

   -36.8182 -36.4705 -36.2351 -36.2108 -32.2379 -32.0561 -31.8934 -31.8641
     3.9216   5.1529   9.1137   9.5375  10.7300  11.5179  11.7123  13.1760
    14.6540  14.8019  19.1707  19.4594

          k = 0.9000-0.2000-0.2070 (  4053 PWs)   bands (ev):

   -36.7429 -36.4923 -36.2693 -36.2244 -32.3712 -32.0082 -31.8448 -31.8360
     4.3876   4.6403   8.5912   9.2582  10.1005  10.4576  13.4381  13.8597
    15.5892  16.5564  19.0256  20.1053

          k = 0.6500-0.2000-0.0345 (  4053 PWs)   bands (ev):

   -36.6395 -36.6079 -36.2874 -36.1931 -32.3618 -32.0205 -31.8727 -31.8086
     3.7092   5.7292   7.6555   8.4395  10.8099  11.6193  11.8859  15.4552
    16.8146  17.4337  17.8693  19.6800

          k = 0.1500 0.0000 0.4485 (  4052 PWs)   bands (ev):

   -36.7811 -36.4474 -36.2589 -36.2421 -32.3670 -31.9991 -31.8475 -31.8447
     4.4128   4.6554   9.0319   9.2521  10.0230  10.1708  13.5932  13.8912
    15.0495  16.0661  18.9948  19.6342

          k = 0.9000 0.0000-0.0690 (  4066 PWs)   bands (ev):

   -36.7293 -36.4351 -36.2864 -36.2709 -32.4669 -31.9806 -31.8121 -31.8089
     4.2813   4.9786   8.6191   8.9285   9.2733   9.5961  15.0977  15.3008
    17.0264  17.6489  18.3030  18.7515

          k = 0.6500 0.0000 0.1035 (  4052 PWs)   bands (ev):

   -36.6549 -36.6119 -36.2541 -36.2066 -32.3698 -32.0235 -31.8503 -31.8190
     3.8729   5.3535   8.0354   8.9993   9.9068  11.4739  13.3653  13.6304
    16.0041  17.1481  18.2612  20.2913

          k = 0.1500-0.8000-0.1035 (  4059 PWs)   bands (ev):

   -36.6983 -36.5187 -36.2896 -36.2189 -32.4151 -32.0000 -31.8364 -31.8137
     4.0718   5.1078   8.1415   8.8917  10.0828  10.4273  13.2329  15.0406
    16.8163  17.3481  18.6143  19.3332

          k = 0.9000-0.8000-0.6211 (  4060 PWs)   bands (ev):

   -36.6996 -36.5088 -36.2871 -36.2283 -32.4349 -31.9945 -31.8278 -31.8095
     4.0743   5.1580   8.1604   8.8876   9.7664  10.2970  13.6707  15.2299
    16.9861  17.6521  18.2034  19.3139

          k = 0.6500-0.8000-0.4485 (  4053 PWs)   bands (ev):

   -36.6792 -36.5878 -36.2623 -36.2044 -32.2795 -32.0593 -31.8711 -31.8469
     4.1606   4.7353   8.3618   8.9643  10.8835  11.6022  12.8061  13.2271
    15.1148  16.6195  19.2068  20.0062

          k = 0.4000-0.6000-0.1380 (  4059 PWs)   bands (ev):

   -36.6628 -36.5726 -36.2975 -36.2007 -32.2643 -32.0441 -31.9292 -31.8216
     3.6542   5.6193   7.8516   8.4035   9.8347  12.3706  13.4240  14.6962
    16.2433  16.9297  19.0851  19.9982

          k = 0.1500-0.6000 0.0345 (  4055 PWs)   bands (ev):

   -36.6602 -36.6076 -36.2683 -36.1922 -32.3467 -32.0287 -31.8748 -31.8123
     3.6679   5.8284   7.6470   8.5690  10.5624  11.7472  12.2566  14.8348
    16.5118  17.0352  17.7267  19.8525

          k = 0.9000-0.6000-0.4831 (  4048 PWs)   bands (ev):

   -36.6571 -36.6282 -36.2452 -36.2019 -32.2921 -32.0603 -31.8682 -31.8370
     4.0129   4.9678   8.4119   9.0167  10.6081  11.5316  12.8466  13.3495
    15.0307  17.3811  17.9950  19.1995

          k = 0.6500-0.6000-0.3105 (  4065 PWs)   bands (ev):

   -36.6740 -36.5821 -36.2420 -36.2396 -32.1526 -32.1375 -31.8987 -31.8655
     4.1444   4.6506   8.4308   8.6607  10.7713  11.7848  13.7105  14.1199
    14.5084  15.5670  20.0261  20.2331

     the Fermi energy is    14.6130 ev

!    total energy              =    -129.02778852 Ry
     estimated scf accuracy    <          4.2E-09 Ry
     smearing contrib. (-TS)   =      -0.00114005 Ry
     internal energy E=F+TS    =    -129.02664847 Ry

     The total energy is F=E-TS. E is the sum of the following terms:
     one-electron contribution =     -26.39921416 Ry
     hartree contribution      =      21.41363033 Ry
     xc contribution           =     -36.57430988 Ry
     ewald contribution        =     -87.46675476 Ry

     convergence has been achieved in   6 iterations

     Forces acting on atoms (cartesian axes, Ry/au):

     atom    1 type  1   force =    -0.00000000    0.00000000    0.00000000
     atom    2 type  1   force =    -0.00000000    0.00000000    0.00000000
     atom    3 type  2   force =    -0.03964073    0.03964073    0.14216159
     atom    4 type  2   force =     0.03964073   -0.03964073   -0.14216159
     atom    5 type  2   force =    -0.03964073   -0.03964073    0.14216159
     atom    6 type  2   force =     0.03964073    0.03964073   -0.14216159
     atom    7 type  2   force =     0.03964073   -0.03964073    0.14216159
     atom    8 type  2   force =    -0.03964073    0.03964073   -0.14216159
     atom    9 type  2   force =     0.03964073    0.03964073    0.14216159
     atom   10 type  2   force =    -0.03964073   -0.03964073   -0.14216159
     The non-local contrib.  to forces
     atom    1 type  1   force =     0.00000000    0.00000000   -0.00000000
     atom    2 type  1   force =    -0.00000000    0.00000000    0.00000000
     atom    3 type  2   force =    -0.02294858    0.02294858   -0.42958425
     atom    4 type  2   force =     0.02294858   -0.02294858    0.42958425
     atom    5 type  2   force =    -0.02294858   -0.02294858   -0.42958425
     atom    6 type  2   force =     0.02294858    0.02294858    0.42958425
     atom    7 type  2   force =     0.02294858   -0.02294858   -0.42958425
     atom    8 type  2   force =    -0.02294858    0.02294858    0.42958425
     atom    9 type  2   force =     0.02294858    0.02294858   -0.42958425
     atom   10 type  2   force =    -0.02294858   -0.02294858    0.42958425
     The ionic contribution  to forces
     atom    1 type  1   force =     0.00000000    0.00000000    0.00000000
     atom    2 type  1   force =    -0.00000000   -0.00000000   -0.00000000
     atom    3 type  2   force =    -0.01390247    0.01390247    2.11877852
     atom    4 type  2   force =     0.01390247   -0.01390247   -2.11877852
     atom    5 type  2   force =    -0.01390247   -0.01390247    2.11877852
     atom    6 type  2   force =     0.01390247    0.01390247   -2.11877852
     atom    7 type  2   force =     0.01390247   -0.01390247    2.11877852
     atom    8 type  2   force =    -0.01390247    0.01390247   -2.11877852
     atom    9 type  2   force =     0.01390247    0.01390247    2.11877852
     atom   10 type  2   force =    -0.01390247   -0.01390247   -2.11877852
     The local contribution  to forces
     atom    1 type  1   force =     0.00000000   -0.00000000   -0.00000000
     atom    2 type  1   force =    -0.00000000    0.00000000    0.00000000
     atom    3 type  2   force =    -0.00280018    0.00280018   -1.54707672
     atom    4 type  2   force =     0.00280018   -0.00280018    1.54707672
     atom    5 type  2   force =    -0.00280018   -0.00280018   -1.54707672
     atom    6 type  2   force =     0.00280018    0.00280018    1.54707672
     atom    7 type  2   force =     0.00280018   -0.00280018   -1.54707672
     atom    8 type  2   force =    -0.00280018    0.00280018    1.54707672
     atom    9 type  2   force =     0.00280018    0.00280018   -1.54707672
     atom   10 type  2   force =    -0.00280018   -0.00280018    1.54707672
     The core correction contribution to forces
     atom    1 type  1   force =     0.00000000    0.00000000    0.00000000
     atom    2 type  1   force =    -0.00000000   -0.00000000    0.00000000
     atom    3 type  2   force =     0.00000000    0.00000000    0.00000000
     atom    4 type  2   force =     0.00000000    0.00000000    0.00000000
     atom    5 type  2   force =     0.00000000    0.00000000    0.00000000
     atom    6 type  2   force =     0.00000000    0.00000000    0.00000000
     atom    7 type  2   force =     0.00000000    0.00000000    0.00000000
     atom    8 type  2   force =     0.00000000    0.00000000    0.00000000
     atom    9 type  2   force =     0.00000000    0.00000000    0.00000000
     atom   10 type  2   force =     0.00000000    0.00000000    0.00000000
     The Hubbard contrib.    to forces
     atom    1 type  1   force =     0.00000000    0.00000000    0.00000000
     atom    2 type  1   force =     0.00000000    0.00000000    0.00000000
     atom    3 type  2   force =     0.00000000    0.00000000    0.00000000
     atom    4 type  2   force =     0.00000000    0.00000000    0.00000000
     atom    5 type  2   force =     0.00000000    0.00000000    0.00000000
     atom    6 type  2   force =     0.00000000    0.00000000    0.00000000
     atom    7 type  2   force =     0.00000000    0.00000000    0.00000000
     atom    8 type  2   force =     0.00000000    0.00000000    0.00000000
     atom    9 type  2   force =     0.00000000    0.00000000    0.00000000
     atom   10 type  2   force =     0.00000000    0.00000000    0.00000000
     The SCF correction term to forces
     atom    1 type  1   force =    -0.00000000   -0.00000000    0.00000000
     atom    2 type  1   force =     0.00000000    0.00000000    0.00000000
     atom    3 type  2   force =     0.00001051   -0.00001051    0.00004404
     atom    4 type  2   force =    -0.00001051    0.00001051   -0.00004404
     atom    5 type  2   force =     0.00001051    0.00001051    0.00004404
     atom    6 type  2   force =    -0.00001051   -0.00001051   -0.00004404
     atom    7 type  2   force =    -0.00001051    0.00001051    0.00004405
     atom    8 type  2   force =     0.00001051   -0.00001051   -0.00004405
     atom    9 type  2   force =    -0.00001051   -0.00001051    0.00004404
     atom   10 type  2   force =     0.00001051    0.00001051   -0.00004404

     Total force =     0.432229     Total SCF correction =     0.000131


     Computing stress (Cartesian axis) and pressure

          total   stress  (Ry/bohr**3)                   (kbar)     P=     2654.09
   0.01674816   0.00000000   0.00000000         2463.74        0.00        0.00
   0.00000000   0.01674816  -0.00000000            0.00     2463.74       -0.00
   0.00000000  -0.00000000   0.02063007            0.00       -0.00     3034.79


     BFGS Geometry Optimization
     Energy error            =      0.0E+00 Ry
     Gradient error          =      1.4E-01 Ry/Bohr
     Cell gradient error     =      2.5E+03 kbar

     number of scf cycles    =   1
     number of bfgs steps    =   0

     enthalpy           new  =    -127.8875905103 Ry

     new trust radius        =       0.5000000000 bohr
ibrav =      7
 celldm(1) =      8.55414238
 celldm(3) =      1.48941990
Input lattice vectors:
     0.55287290    -0.55287290     0.82345990
     0.55287290     0.55287290     0.82345990
    -0.55287290    -0.55287290     0.82345990
New lattice vectors in INITIAL alat:
     0.55287290    -0.55287290     0.82345990
     0.55287290     0.55287290     0.82345990
    -0.55287290    -0.55287290     0.82345990
New lattice vectors in NEW alat (for information only):
     0.50000000    -0.50000000     0.74470995
     0.50000000     0.50000000     0.74470995
    -0.50000000    -0.50000000     0.74470995
Discrepancy in bohr =     0.000000    0.000000    0.000000
     new conv_thr            =       0.0000000100 Ry

     new unit-cell volume =    466.14022 a.u.^3 (    69.07485 Ang^3 )
     density =      2.68521 g/cm^3

CELL_PARAMETERS (alat=  7.73608400)
   0.552872899  -0.552872899   0.823459896
   0.552872899   0.552872899   0.823459896
  -0.552872899  -0.552872899   0.823459896

ATOMIC_POSITIONS (crystal)
Si           -0.0000000000        0.2500000000        0.2500000000
Si           -0.0000000000        0.7500000000        0.7500000000
Li           -0.1875132631        0.9430292595        0.4430292595
Li            0.1875132631        1.0569707405       -0.4430292595
Li            0.5000000000        0.7555159964       -0.0569707405
Li           -0.5000000000        1.2444840036        0.0569707405
Li            0.1875132631        1.2555159964       -0.2444840036
Li           -0.1875132631        0.7444840036        0.2444840036
Li           -0.5000000000        1.4430292595        0.2555159964
Li            0.5000000000        0.5569707405       -0.2555159964



     Writing config-only to output data dir ./output/SiLi.save/
     NEW-OLD atomic charge density approx. for the potential
     extrapolated charge   40.96063, renormalised to   32.00000

     total cpu time spent up to now is       13.1 secs

     Self-consistent Calculation

     iteration #  1     ecut=    80.00 Ry     beta= 0.70
     Davidson diagonalization with overlap
     c_bands:  1 eigenvalues not converged
     ethr =  1.00E-06,  avg # of iterations = 11.4

     total cpu time spent up to now is       16.5 secs

     total energy              =    -130.06317235 Ry
     estimated scf accuracy    <       0.27771243 Ry

     iteration #  2     ecut=    80.00 Ry     beta= 0.70
     Davidson diagonalization with overlap
     ethr =  8.68E-04,  avg # of iterations =  3.5

     total cpu time spent up to now is       18.1 secs

     total energy              =    -130.62448172 Ry
     estimated scf accuracy    <       0.40621149 Ry

     iteration #  3     ecut=    80.00 Ry     beta= 0.70
     Davidson diagonalization with overlap
     ethr =  8.68E-04,  avg # of iterations =  2.0

     total cpu time spent up to now is       19.1 secs

     total energy              =    -130.63587585 Ry
     estimated scf accuracy    <       0.07101308 Ry

     iteration #  4     ecut=    80.00 Ry     beta= 0.70
     Davidson diagonalization with overlap
     ethr =  2.22E-04,  avg # of iterations =  1.2

     total cpu time spent up to now is       20.1 secs

     total energy              =    -130.61629038 Ry
     estimated scf accuracy    <       0.03634299 Ry

     iteration #  5     ecut=    80.00 Ry     beta= 0.70
     Davidson diagonalization with overlap
     ethr =  1.14E-04,  avg # of iterations =  2.3

     total cpu time spent up to now is       21.2 secs

     total energy              =    -130.62216183 Ry
     estimated scf accuracy    <       0.00006269 Ry

     iteration #  6     ecut=    80.00 Ry     beta= 0.70
     Davidson diagonalization with overlap
     ethr =  1.96E-07,  avg # of iterations =  6.7

     total cpu time spent up to now is       23.1 secs

     total energy              =    -130.62228825 Ry
     estimated scf accuracy    <       0.00002871 Ry

     iteration #  7     ecut=    80.00 Ry     beta= 0.70
     Davidson diagonalization with overlap
     ethr =  8.97E-08,  avg # of iterations =  2.0

     total cpu time spent up to now is       24.1 secs

     total energy              =    -130.62229110 Ry
     estimated scf accuracy    <       0.00000239 Ry

     iteration #  8     ecut=    80.00 Ry     beta= 0.70
     Davidson diagonalization with overlap
     ethr =  7.47E-09,  avg # of iterations =  2.0

     total cpu time spent up to now is       25.2 secs

     total energy              =    -130.62229137 Ry
     estimated scf accuracy    <       0.00000017 Ry

     iteration #  9     ecut=    80.00 Ry     beta= 0.70
     Davidson diagonalization with overlap
     ethr =  5.28E-10,  avg # of iterations =  3.1

     total cpu time spent up to now is       26.5 secs

     total energy              =    -130.62229141 Ry
     estimated scf accuracy    <       0.00000004 Ry

     iteration # 10     ecut=    80.00 Ry     beta= 0.70
     Davidson diagonalization with overlap
     ethr =  1.17E-10,  avg # of iterations =  1.2

     total cpu time spent up to now is       27.4 secs

     total energy              =    -130.62229140 Ry
     estimated scf accuracy    <       0.00000003 Ry

     iteration # 11     ecut=    80.00 Ry     beta= 0.70
     Davidson diagonalization with overlap
     ethr =  8.03E-11,  avg # of iterations =  2.0

     total cpu time spent up to now is       28.5 secs

     End of self-consistent calculation

          k = 0.0000 0.0000 0.0000 (  4031 PWs)   bands (ev):

   -38.5504 -38.3003 -38.1778 -38.1778 -36.3399 -36.2827 -36.2266 -36.2266
    -0.1707   3.7647   5.3023   7.0379   7.0379   7.7084   7.7540   7.7540
     9.2401   9.7050  11.4839  12.3866

          k =-0.2261 0.0000 0.1518 (  4043 PWs)   bands (ev):

   -38.5088 -38.3278 -38.1868 -38.1838 -36.3461 -36.3177 -36.2122 -36.2010
     0.1061   2.4844   5.7747   6.5355   7.0164   7.1675   7.6666   8.6863
     9.6656  10.8612  12.3376  13.2779

          k = 0.4522-0.0000-0.3036 (  4056 PWs)   bands (ev):

   -38.4121 -38.4121 -38.1919 -38.1919 -36.3463 -36.3463 -36.1926 -36.1926
     0.9859   0.9859   5.9429   5.9429   7.4179   7.4180   7.8535   7.8535
    11.4350  11.4350  12.7304  12.7304

          k =-0.0000 0.1809 0.1214 (  4036 PWs)   bands (ev):

   -38.5232 -38.3176 -38.1843 -38.1817 -36.3443 -36.3088 -36.2166 -36.2066
     0.0053   2.8277   5.6928   6.6959   7.0008   7.1697   7.6683   8.8535
     9.1534  10.5729  12.2733  13.2211

          k =-0.2261 0.1809 0.2732 (  4063 PWs)   bands (ev):

   -38.4688 -38.3489 -38.1993 -38.1913 -36.3702 -36.3112 -36.2038 -36.1925
     0.4749   1.7014   5.4716   6.0983   7.0434   7.4428   7.8995   9.0829
    10.3356  10.5480  13.7079  14.1173

          k = 0.4522 0.1809-0.1822 (  4058 PWs)   bands (ev):

   -38.4298 -38.3857 -38.2051 -38.1871 -36.3708 -36.3180 -36.2055 -36.1842
     0.6334   1.5201   5.1469   5.5329   6.4119   8.0979   8.7248   9.4348
    10.2176  11.6128  13.1311  14.0636

          k = 0.2261 0.1809-0.0304 (  4046 PWs)   bands (ev):

   -38.5069 -38.3310 -38.1893 -38.1793 -36.3411 -36.3190 -36.2274 -36.1902
     0.0567   2.8852   4.9346   5.8391   6.2180   8.2070   8.8323   9.2069
     9.8706  11.1021  11.9753  12.9685

          k =-0.0000 0.3617 0.2429 (  4042 PWs)   bands (ev):

   -38.4535 -38.3728 -38.1919 -38.1894 -36.3489 -36.3385 -36.1985 -36.1915
     0.5563   1.5199   5.8688   6.1107   7.1986   7.5253   7.5939   8.1783
    11.0691  11.7336  11.7750  13.4710

          k =-0.2261 0.3617 0.3947 (  4058 PWs)   bands (ev):

   -38.4102 -38.3970 -38.2115 -38.1890 -36.3793 -36.3118 -36.2008 -36.1868
     0.8982   1.1937   4.9623   5.5537   6.5367   8.1591   8.6754   9.3181
    10.4140  11.4237  13.9626  14.7610

          k = 0.4522 0.3617-0.0607 (  4062 PWs)   bands (ev):

   -38.4347 -38.3647 -38.2257 -38.1815 -36.3820 -36.2979 -36.2265 -36.1735
     0.4505   2.1285   4.5164   4.8094   5.6494   8.3707  10.0172  10.4885
    11.5976  11.8801  12.8154  14.2871

          k = 0.2261 0.3617 0.0911 (  4055 PWs)   bands (ev):

   -38.4631 -38.3569 -38.2048 -38.1820 -36.3655 -36.3119 -36.2213 -36.1801
     0.3199   2.2069   4.9615   5.2146   5.9770   8.2556   9.5108   9.9746
    10.1586  11.5367  12.8872  13.2925

          k = 0.1809-0.1809-0.0000 (  4045 PWs)   bands (ev):

   -38.5161 -38.3251 -38.1863 -38.1789 -36.3359 -36.3191 -36.2282 -36.1942
     0.0057   3.0509   4.9462   6.0504   6.3155   8.2235   8.5850   8.8656
     9.8536  10.9528  11.7097  13.1109

          k =-0.0452-0.1809 0.1518 (  4038 PWs)   bands (ev):

   -38.5173 -38.3198 -38.1860 -38.1842 -36.3499 -36.3072 -36.2153 -36.2039
     0.0561   2.6369   5.9349   6.4551   6.9295   7.1809   7.8812   8.6311
     9.3038  10.5792  12.5569  13.3164

          k = 0.6331-0.1809-0.3036 (  4062 PWs)   bands (ev):

   -38.4525 -38.3619 -38.2023 -38.1915 -36.3732 -36.3132 -36.1990 -36.1925
     0.6368   1.4607   5.3361   5.9433   7.2032   7.3342   8.1080   9.1057
    10.3739  10.8365  13.7768  14.2784

          k = 0.4070-0.1809-0.1518 (  4060 PWs)   bands (ev):

   -38.4476 -38.3714 -38.2031 -38.1853 -36.3666 -36.3183 -36.2108 -36.1831
     0.4745   1.7936   5.1565   5.4760   6.2696   8.1081   8.9499   9.4712
    10.2197  11.6063  12.8501  13.7099

          k =-0.0452 0.0000 0.2732 (  4044 PWs)   bands (ev):

   -38.5062 -38.3064 -38.1978 -38.1975 -36.3932 -36.2786 -36.2026 -36.2023
     0.2106   2.2542   6.1681   6.1842   6.9533   7.1107   7.8487   9.0051
     9.1099  10.8324  12.8866  13.9899

          k = 0.6331-0.0000-0.1822 (  4051 PWs)   bands (ev):

   -38.4357 -38.3689 -38.2065 -38.1953 -36.4161 -36.2928 -36.1881 -36.1825
     0.9398   1.1293   5.3500   5.9212   6.3191   7.6278   8.9156   8.9363
    10.1622  12.4632  12.6728  14.7346

          k = 0.4070-0.0000-0.0304 (  4037 PWs)   bands (ev):

   -38.4662 -38.3636 -38.1950 -38.1808 -36.3805 -36.3107 -36.2031 -36.1844
     0.3009   2.1465   4.7568   6.2502   6.5483   7.9114   8.0476   9.7248
    10.6404  11.1996  11.8117  13.3470

          k = 0.1809 0.1809 0.2429 (  4055 PWs)   bands (ev):

   -38.4838 -38.3383 -38.1956 -38.1906 -36.3661 -36.3091 -36.2081 -36.1938
     0.3366   1.9462   5.6471   6.2715   6.7851   7.6608   7.6920   9.0032
    10.0075  10.5409  13.5485  13.9399

          k =-0.0452 0.1809 0.3947 (  4051 PWs)   bands (ev):

   -38.4586 -38.3384 -38.2094 -38.2003 -36.4216 -36.2845 -36.1874 -36.1855
     0.6818   1.4620   5.5154   5.9355   6.3255   7.2017   8.8943   9.2109
    10.2490  11.7907  13.3220  14.4490

          k = 0.6331 0.1809-0.0607 (  4059 PWs)   bands (ev):

   -38.4105 -38.3844 -38.2234 -38.1871 -36.4280 -36.2880 -36.1924 -36.1730
     0.8137   1.3980   4.6741   5.1885   7.1954   7.5728   8.0914  10.3746
    11.5735  12.0958  13.1105  14.3476

          k = 0.4070 0.1809 0.0911 (  4056 PWs)   bands (ev):

   -38.4548 -38.3653 -38.2048 -38.1817 -36.3750 -36.3104 -36.2140 -36.1798
     0.3776   2.0456   4.9022   5.3317   6.3494   7.9052   9.4350   9.7239
    10.2766  11.6776  12.6005  13.4375

          k = 0.1809-0.5426-0.2429 (  4054 PWs)   bands (ev):

   -38.4188 -38.3931 -38.2059 -38.1902 -36.3750 -36.3162 -36.1969 -36.1900
     1.0127   1.0323   5.1774   5.7008   6.7896   7.8361   8.4345   9.1872
    10.2858  11.3849  13.7026  14.3606

          k =-0.0452-0.5426-0.0911 (  4054 PWs)   bands (ev):

   -38.4116 -38.4001 -38.2063 -38.1878 -36.4131 -36.2971 -36.1920 -36.1782
     0.6886   1.4772   4.8829   5.7846   6.4614   8.0415   8.7664   9.1336
    10.6283  11.8215  12.6286  14.6041

          k = 0.6331-0.5426-0.5465 (  4055 PWs)   bands (ev):

   -38.4194 -38.3805 -38.2246 -38.1813 -36.4010 -36.2957 -36.2105 -36.1733
     0.5775   1.7982   4.5498   4.9512   6.3988   8.0935   8.9222  10.4543
    11.5292  12.0162  13.0353  14.1651

          k = 0.4070-0.5426-0.3947 (  4062 PWs)   bands (ev):

   -38.4222 -38.3797 -38.2125 -38.1937 -36.3559 -36.3215 -36.2139 -36.1874
     0.7035   1.5139   4.7923   5.2008   6.0700   8.2585   9.1488  10.5094
    10.5765  10.9709  14.7278  14.9776

          k = 0.1809-0.3617-0.1214 (  4059 PWs)   bands (ev):

   -38.4649 -38.3588 -38.2002 -38.1834 -36.3610 -36.3185 -36.2160 -36.1831
     0.3375   2.0800   5.1405   5.4673   6.1777   8.1075   9.1581   9.4379
    10.1757  11.5320  12.6799  13.2892

          k =-0.0452-0.3617 0.0304 (  4031 PWs)   bands (ev):

   -38.4814 -38.3525 -38.1923 -38.1795 -36.3668 -36.3156 -36.2085 -36.1872
     0.2082   2.3647   4.7981   6.1838   6.8862   7.3753   8.2257   9.8267
    10.2894  11.3511  11.8534  12.7516

          k = 0.6331-0.3617-0.4250 (  4064 PWs)   bands (ev):

   -38.4452 -38.3677 -38.2053 -38.1897 -36.3546 -36.3233 -36.2160 -36.1847
     0.5119   1.7649   5.0767   5.4188   5.8994   8.5459   8.8767   9.8709
    10.4026  11.0295  13.8028  14.1919

          k = 0.4070-0.3617-0.2732 (  4073 PWs)   bands (ev):

   -38.4111 -38.3904 -38.2061 -38.2010 -36.3432 -36.3348 -36.2054 -36.1954
     0.9022   1.2326   4.9292   5.0276   6.7485   7.4788   9.5897  10.0693
    10.5752  10.8236  15.0555  15.3687

          k = 0.3617-0.3617-0.0000 (  4070 PWs)   bands (ev):

   -38.4485 -38.3579 -38.2200 -38.1804 -36.3767 -36.2990 -36.2306 -36.1737
     0.3550   2.3513   4.6505   4.6667   5.6479   8.3249  10.1997  11.0220
    11.0841  11.3913  12.9424  13.6249

          k = 0.1357-0.3617 0.1518 (  4051 PWs)   bands (ev):

   -38.4648 -38.3614 -38.1963 -38.1849 -36.3560 -36.3255 -36.2106 -36.1860
     0.3696   1.9411   5.3340   5.7235   6.4193   7.8926   8.7726   8.9623
    10.3527  11.4901  12.4502  13.3472

          k = 0.8139-0.3617-0.3036 (  4047 PWs)   bands (ev):

   -38.4378 -38.3827 -38.1958 -38.1915 -36.3633 -36.3267 -36.1950 -36.1924
     0.7603   1.2573   5.6829   5.9496   7.2141   7.4210   7.9074   8.4748
    10.7014  11.4379  12.8680  13.6311

          k = 0.5878-0.3617-0.1518 (  4062 PWs)   bands (ev):

   -38.4142 -38.3857 -38.2214 -38.1858 -36.3839 -36.3045 -36.2111 -36.1801
     0.6896   1.5598   4.6526   5.2639   6.0538   8.6381   8.9748   9.6184
    11.1159  11.6212  14.2874  14.5774

          k = 0.1357-0.1809 0.2732 (  4049 PWs)   bands (ev):

   -38.4828 -38.3351 -38.1986 -38.1914 -36.3787 -36.3008 -36.2033 -36.1944
     0.3748   1.8715   5.6545   6.4236   7.0420   7.3784   7.5040   8.9530
    10.0204  10.6676  13.5465  14.0119

          k = 0.8139-0.1809-0.1822 (  4053 PWs)   bands (ev):

   -38.4491 -38.3441 -38.2142 -38.1988 -36.4279 -36.2837 -36.1856 -36.1823
     0.7980   1.3356   5.2802   5.7774   6.4566   7.1890   9.0404   9.2822
    10.6345  11.8403  13.4953  14.5820

          k = 0.5878-0.1809-0.0304 (  4053 PWs)   bands (ev):

   -38.4077 -38.3913 -38.2217 -38.1844 -36.4213 -36.2906 -36.1967 -36.1726
     0.6983   1.5645   4.6135   5.1323   7.2506   7.4491   8.3064  10.4691
    11.5908  11.9802  12.6986  14.4831

          k = 0.1357-0.0000 0.3947 (  4052 PWs)   bands (ev):

   -38.4657 -38.3256 -38.2097 -38.2052 -36.4276 -36.2795 -36.1867 -36.1855
     0.6145   1.5818   5.6425   5.8950   6.1476   7.0408   9.0664   9.4876
    10.1421  11.7706  13.4133  14.1931

          k = 0.8139-0.0000-0.0607 (  4066 PWs)   bands (ev):

   -38.4426 -38.3215 -38.2221 -38.2179 -36.4647 -36.2722 -36.1736 -36.1724
     0.9203   1.3313   5.0492   5.6418   5.6947   6.7450  10.3497  10.4583
    11.3740  13.0603  13.2915  13.8900

          k = 0.5878-0.0000 0.0911 (  4052 PWs)   bands (ev):

   -38.4113 -38.3937 -38.2086 -38.1918 -36.4246 -36.2916 -36.1874 -36.1773
     0.8167   1.3239   4.9063   5.8623   6.1809   8.0827   8.9843   9.0173
    10.7154  12.0733  12.6829  15.1307

          k = 0.1357-0.7235-0.0911 (  4059 PWs)   bands (ev):

   -38.4298 -38.3554 -38.2228 -38.1971 -36.4437 -36.2809 -36.1828 -36.1742
     1.0817   1.0894   4.8897   5.3989   6.6045   7.2423   8.7818  10.2164
    11.4848  12.1900  13.5573  14.0832

          k = 0.8139-0.7235-0.5465 (  4060 PWs)   bands (ev):

   -38.4301 -38.3509 -38.2221 -38.2014 -36.4515 -36.2784 -36.1795 -36.1727
     1.0859   1.1057   4.8785   5.4410   6.2820   7.2210   9.1241  10.3695
    11.4869  12.4840  13.2342  14.2345

          k = 0.5878-0.7235-0.3947 (  4053 PWs)   bands (ev):

   -38.4226 -38.3850 -38.2108 -38.1889 -36.3910 -36.3054 -36.1957 -36.1864
     1.0204   1.0442   5.0680   5.6944   6.7947   7.8298   8.5908   9.0143
    10.4411  11.5380  13.7196  14.6405

          k = 0.3617-0.5426-0.1214 (  4059 PWs)   bands (ev):

   -38.4206 -38.3775 -38.2245 -38.1841 -36.3844 -36.3016 -36.2167 -36.1772
     0.5986   1.7562   4.5628   5.1127   5.8619   8.5403   9.3451   9.9052
    11.3881  11.7655  13.7795  14.7985

          k = 0.1357-0.5426 0.0304 (  4055 PWs)   bands (ev):

   -38.4160 -38.3910 -38.2143 -38.1840 -36.4147 -36.2943 -36.1973 -36.1745
     0.6179   1.6523   4.6620   5.3019   7.0681   7.4674   8.6794   9.9998
    11.3109  11.7874  12.3341  14.7058

          k = 0.8139-0.5426-0.4250 (  4048 PWs)   bands (ev):

   -38.4127 -38.4010 -38.2046 -38.1884 -36.3948 -36.3062 -36.1943 -36.1835
     0.8571   1.2010   5.2434   5.7666   6.7996   7.6165   8.7897   8.8210
    10.2118  12.0503  12.9337  14.0507

          k = 0.5878-0.5426-0.2732 (  4065 PWs)   bands (ev):

   -38.4224 -38.3838 -38.2016 -38.2008 -36.3435 -36.3361 -36.2049 -36.1937
     0.8160   1.3043   5.0701   5.1567   6.7889   7.4803   9.5379   9.8556
    10.1947  10.8170  14.7332  14.9331

     the Fermi energy is    10.0941 ev

!    total energy              =    -130.62229140 Ry
     estimated scf accuracy    <          5.6E-09 Ry
     smearing contrib. (-TS)   =      -0.00117650 Ry
     internal energy E=F+TS    =    -130.62111490 Ry

     The total energy is F=E-TS. E is the sum of the following terms:
     one-electron contribution =     -38.98743763 Ry
     hartree contribution      =      22.88235314 Ry
     xc contribution           =     -35.29379314 Ry
     ewald contribution        =     -79.22223727 Ry

     convergence has been achieved in  11 iterations

     Forces acting on atoms (cartesian axes, Ry/au):

     atom    1 type  1   force =     0.00000000   -0.00000000   -0.00000000
     atom    2 type  1   force =     0.00000000   -0.00000000   -0.00000000
     atom    3 type  2   force =    -0.00843098    0.00843098    0.07890179
     atom    4 type  2   force =     0.00843098   -0.00843098   -0.07890179
     atom    5 type  2   force =    -0.00843098   -0.00843098    0.07890179
     atom    6 type  2   force =     0.00843098    0.00843098   -0.07890179
     atom    7 type  2   force =     0.00843098   -0.00843098    0.07890179
     atom    8 type  2   force =    -0.00843098    0.00843098   -0.07890179
     atom    9 type  2   force =     0.00843098    0.00843098    0.07890179
     atom   10 type  2   force =    -0.00843098   -0.00843098   -0.07890179
     The non-local contrib.  to forces
     atom    1 type  1   force =    -0.00000000    0.00000000    0.00000000
     atom    2 type  1   force =     0.00000000   -0.00000000   -0.00000000
     atom    3 type  2   force =    -0.01955440    0.01955440   -0.29534049
     atom    4 type  2   force =     0.01955440   -0.01955440    0.29534049
     atom    5 type  2   force =    -0.01955440   -0.01955440   -0.29534049
     atom    6 type  2   force =     0.01955440    0.01955440    0.29534049
     atom    7 type  2   force =     0.01955440   -0.01955440   -0.29534049
     atom    8 type  2   force =    -0.01955440    0.01955440    0.29534049
     atom    9 type  2   force =     0.01955440    0.01955440   -0.29534049
     atom   10 type  2   force =    -0.01955440   -0.01955440    0.29534049
     The ionic contribution  to forces
     atom    1 type  1   force =     0.00000000   -0.00000000    0.00000000
     atom    2 type  1   force =     0.00000000   -0.00000000   -0.00000000
     atom    3 type  2   force =     0.00792763   -0.00792763    1.24101645
     atom    4 type  2   force =    -0.00792763    0.00792763   -1.24101645
     atom    5 type  2   force =     0.00792763    0.00792763    1.24101645
     atom    6 type  2   force =    -0.00792763   -0.00792763   -1.24101645
     atom    7 type  2   force =    -0.00792763    0.00792763    1.24101645
     atom    8 type  2   force =     0.00792763   -0.00792763   -1.24101645
     atom    9 type  2   force =    -0.00792763   -0.00792763    1.24101645
     atom   10 type  2   force =     0.00792763    0.00792763   -1.24101645
     The local contribution  to forces
     atom    1 type  1   force =     0.00000000   -0.00000000    0.00000000
     atom    2 type  1   force =    -0.00000000    0.00000000    0.00000000
     atom    3 type  2   force =     0.00320768   -0.00320768   -0.86674262
     atom    4 type  2   force =    -0.00320768    0.00320768    0.86674262
     atom    5 type  2   force =     0.00320768    0.00320768   -0.86674262
     atom    6 type  2   force =    -0.00320768   -0.00320768    0.86674262
     atom    7 type  2   force =    -0.00320768    0.00320768   -0.86674262
     atom    8 type  2   force =     0.00320768   -0.00320768    0.86674262
     atom    9 type  2   force =    -0.00320768   -0.00320768   -0.86674262
     atom   10 type  2   force =     0.00320768    0.00320768    0.86674262
     The core correction contribution to forces
     atom    1 type  1   force =     0.00000000    0.00000000    0.00000000
     atom    2 type  1   force =    -0.00000000   -0.00000000    0.00000000
     atom    3 type  2   force =     0.00000000    0.00000000    0.00000000
     atom    4 type  2   force =     0.00000000    0.00000000    0.00000000
     atom    5 type  2   force =     0.00000000    0.00000000    0.00000000
     atom    6 type  2   force =     0.00000000    0.00000000    0.00000000
     atom    7 type  2   force =     0.00000000    0.00000000    0.00000000
     atom    8 type  2   force =     0.00000000    0.00000000    0.00000000
     atom    9 type  2   force =     0.00000000    0.00000000    0.00000000
     atom   10 type  2   force =     0.00000000    0.00000000    0.00000000
     The Hubbard contrib.    to forces
     atom    1 type  1   force =     0.00000000    0.00000000    0.00000000
     atom    2 type  1   force =     0.00000000    0.00000000    0.00000000
     atom    3 type  2   force =     0.00000000    0.00000000    0.00000000
     atom    4 type  2   force =     0.00000000    0.00000000    0.00000000
     atom    5 type  2   force =     0.00000000    0.00000000    0.00000000
     atom    6 type  2   force =     0.00000000    0.00000000    0.00000000
     atom    7 type  2   force =     0.00000000    0.00000000    0.00000000
     atom    8 type  2   force =     0.00000000    0.00000000    0.00000000
     atom    9 type  2   force =     0.00000000    0.00000000    0.00000000
     atom   10 type  2   force =     0.00000000    0.00000000    0.00000000
     The SCF correction term to forces
     atom    1 type  1   force =     0.00000000    0.00000000   -0.00000000
     atom    2 type  1   force =    -0.00000000   -0.00000000    0.00000000
     atom    3 type  2   force =    -0.00001189    0.00001189   -0.00003154
     atom    4 type  2   force =     0.00001189   -0.00001189    0.00003154
     atom    5 type  2   force =    -0.00001189   -0.00001189   -0.00003155
     atom    6 type  2   force =     0.00001189    0.00001189    0.00003155
     atom    7 type  2   force =     0.00001189   -0.00001189   -0.00003155
     atom    8 type  2   force =    -0.00001189    0.00001189    0.00003155
     atom    9 type  2   force =     0.00001189    0.00001189   -0.00003155
     atom   10 type  2   force =    -0.00001189   -0.00001189    0.00003155

     Total force =     0.225702     Total SCF correction =     0.000101


     Computing stress (Cartesian axis) and pressure

          total   stress  (Ry/bohr**3)                   (kbar)     P=     1083.61
   0.00693430  -0.00000000   0.00000000         1020.07       -0.00        0.00
  -0.00000000   0.00693430  -0.00000000           -0.00     1020.07       -0.00
  -0.00000000  -0.00000000   0.00823010           -0.00       -0.00     1210.69

     Energy error            =      1.2E+00 Ry
     Gradient error          =      7.9E-02 Ry/Bohr
     Cell gradient error     =      7.1E+02 kbar

     number of scf cycles    =   2
     number of bfgs steps    =   1

     enthalpy           old  =    -127.8875905103 Ry
     enthalpy           new  =    -129.0379129832 Ry

     CASE: enthalpy          _new < enthalpy          _old

     new trust radius        =       0.2767313916 bohr
ibrav =      7
 celldm(1) =      8.95125919
 celldm(3) =      1.51456056
Input lattice vectors:
     0.57853943    -0.57853943     0.87623299
     0.57853943     0.57853943     0.87623299
    -0.57853943    -0.57853943     0.87623299
New lattice vectors in INITIAL alat:
     0.57853943    -0.57853943     0.87623299
     0.57853943     0.57853943     0.87623299
    -0.57853943    -0.57853943     0.87623299
New lattice vectors in NEW alat (for information only):
     0.50000000    -0.50000000     0.75728028
     0.50000000     0.50000000     0.75728028
    -0.50000000    -0.50000000     0.75728028
Discrepancy in bohr =     0.000000    0.000000    0.000000
     new conv_thr            =       0.0000000079 Ry

     new unit-cell volume =    543.13657 a.u.^3 (    80.48454 Ang^3 )
     density =      2.30455 g/cm^3

CELL_PARAMETERS (alat=  7.73608400)
   0.578539425  -0.578539425   0.876232994
   0.578539425   0.578539425   0.876232994
  -0.578539425  -0.578539425   0.876232994

ATOMIC_POSITIONS (crystal)
Si            0.0000000000        0.2500000000        0.2500000000
Si            0.0000000000        0.7500000000        0.7500000000
Li           -0.1875612883        0.9507748467        0.4507748467
Li            0.1875612883        1.0492251533       -0.4507748467
Li            0.5000000000        0.7632135584       -0.0492251533
Li           -0.5000000000        1.2367864416        0.0492251533
Li            0.1875612883        1.2632135584       -0.2367864416
Li           -0.1875612883        0.7367864416        0.2367864416
Li           -0.5000000000        1.4507748467        0.2632135584
Li            0.5000000000        0.5492251533       -0.2632135584



     Writing config-only to output data dir ./output/SiLi.save/
     NEW-OLD atomic charge density approx. for the potential
     extrapolated charge   36.53105, renormalised to   32.00000

     total cpu time spent up to now is       31.1 secs

     Self-consistent Calculation

     iteration #  1     ecut=    80.00 Ry     beta= 0.70
     Davidson diagonalization with overlap
     c_bands:  1 eigenvalues not converged
     ethr =  1.00E-06,  avg # of iterations = 10.5

     total cpu time spent up to now is       34.3 secs

     total energy              =    -130.97284175 Ry
     estimated scf accuracy    <       0.11813026 Ry

     iteration #  2     ecut=    80.00 Ry     beta= 0.70
     Davidson diagonalization with overlap
     ethr =  3.69E-04,  avg # of iterations =  2.9

     total cpu time spent up to now is       35.7 secs

     total energy              =    -131.11786318 Ry
     estimated scf accuracy    <       0.11181983 Ry

     iteration #  3     ecut=    80.00 Ry     beta= 0.70
     Davidson diagonalization with overlap
     ethr =  3.49E-04,  avg # of iterations =  1.6

     total cpu time spent up to now is       36.7 secs

     total energy              =    -131.12337991 Ry
     estimated scf accuracy    <       0.01111945 Ry

     iteration #  4     ecut=    80.00 Ry     beta= 0.70
     Davidson diagonalization with overlap
     ethr =  3.47E-05,  avg # of iterations =  2.9

     total cpu time spent up to now is       37.8 secs

     total energy              =    -131.12336767 Ry
     estimated scf accuracy    <       0.00167571 Ry

     iteration #  5     ecut=    80.00 Ry     beta= 0.70
     Davidson diagonalization with overlap
     ethr =  5.24E-06,  avg # of iterations =  3.7

     total cpu time spent up to now is       39.0 secs

     total energy              =    -131.12359724 Ry
     estimated scf accuracy    <       0.00002059 Ry

     iteration #  6     ecut=    80.00 Ry     beta= 0.70
     Davidson diagonalization with overlap
     ethr =  6.43E-08,  avg # of iterations =  4.3

     total cpu time spent up to now is       40.4 secs

     total energy              =    -131.12360941 Ry
     estimated scf accuracy    <       0.00000216 Ry

     iteration #  7     ecut=    80.00 Ry     beta= 0.70
     Davidson diagonalization with overlap
     ethr =  6.75E-09,  avg # of iterations =  2.0

     total cpu time spent up to now is       41.6 secs

     total energy              =    -131.12360995 Ry
     estimated scf accuracy    <       0.00000057 Ry

     iteration #  8     ecut=    80.00 Ry     beta= 0.70
     Davidson diagonalization with overlap
     ethr =  1.78E-09,  avg # of iterations =  2.0

     total cpu time spent up to now is       42.7 secs

     total energy              =    -131.12361007 Ry
     estimated scf accuracy    <       0.00000001 Ry

     iteration #  9     ecut=    80.00 Ry     beta= 0.70
     Davidson diagonalization with overlap
     ethr =  3.72E-11,  avg # of iterations =  2.4

     total cpu time spent up to now is       43.8 secs

     End of self-consistent calculation

          k = 0.0000 0.0000 0.0000 (  4031 PWs)   bands (ev):

   -38.9708 -38.7965 -38.7033 -38.7033 -37.8702 -37.8371 -37.7945 -37.7945
    -1.3251   1.8207   4.3906   5.4660   5.4660   6.4876   6.4876   6.6468
     7.3558   8.0988   9.2467  10.4741

          k =-0.2161 0.0000 0.1427 (  4043 PWs)   bands (ev):

   -38.9413 -38.8116 -38.7139 -38.7101 -37.8772 -37.8622 -37.7829 -37.7752
    -1.0729   0.9550   4.6129   5.2492   5.4657   5.9577   6.1956   6.7443
     8.0604   9.1448  10.2074  10.9836

          k = 0.4321-0.0000-0.2853 (  4056 PWs)   bands (ev):

   -38.8700 -38.8700 -38.7195 -38.7195 -37.8808 -37.8808 -37.7685 -37.7685
    -0.2897  -0.2897   4.8133   4.8133   5.8649   5.8649   6.1308   6.1308
     9.6480   9.6480  10.6910  10.6910

          k =-0.0000 0.1728 0.1141 (  4036 PWs)   bands (ev):

   -38.9517 -38.8057 -38.7110 -38.7077 -37.8748 -37.8556 -37.7854 -37.7796
    -1.1645   1.2144   4.5559   5.3349   5.4407   6.0320   6.2551   6.9031
     7.6527   8.8751  10.0204  11.0162

          k =-0.2161 0.1728 0.2568 (  4063 PWs)   bands (ev):

   -38.9102 -38.8279 -38.7234 -38.7196 -37.8965 -37.8565 -37.7764 -37.7689
    -0.7636   0.3652   4.2100   4.9398   5.6118   5.7050   6.3450   7.5475
     8.5029   8.8546  11.3644  12.0222

          k = 0.4321 0.1728-0.1712 (  4058 PWs)   bands (ev):

   -38.8872 -38.8482 -38.7302 -38.7143 -37.8999 -37.8592 -37.7779 -37.7616
    -0.5568   0.1181   4.0048   4.3462   4.8858   6.6522   6.9275   7.7304
     8.4330   9.6363  11.2344  11.8178

          k = 0.2161 0.1728-0.0285 (  4046 PWs)   bands (ev):

   -38.9420 -38.8126 -38.7164 -38.7051 -37.8790 -37.8572 -37.7945 -37.7668
    -1.0937   1.1551   3.9653   4.7199   4.7693   6.8686   7.0118   7.6951
     7.8597   9.0722   9.9565  11.1093

          k =-0.0000 0.3457 0.2282 (  4042 PWs)   bands (ev):

   -38.9010 -38.8414 -38.7192 -38.7166 -37.8815 -37.8758 -37.7721 -37.7682
    -0.6685   0.1696   4.7291   4.9562   5.6713   5.9791   6.0355   6.3320
     9.2182   9.9671   9.9735  11.1434

          k =-0.2161 0.3457 0.3709 (  4058 PWs)   bands (ev):

   -38.8687 -38.8598 -38.7346 -38.7162 -37.9055 -37.8557 -37.7746 -37.7630
    -0.3108  -0.1586   3.7835   4.3660   4.9577   6.6133   7.0282   7.7672
     8.5637   9.4284  11.7753  12.5340

          k = 0.4321 0.3457-0.0571 (  4062 PWs)   bands (ev):

   -38.8938 -38.8307 -38.7456 -38.7064 -37.9099 -37.8450 -37.7939 -37.7528
    -0.6877   0.5394   3.3812   3.7516   4.2509   6.8680   8.2981   8.5069
     9.5159   9.6991  10.8308  12.6118

          k = 0.2161 0.3457 0.0856 (  4055 PWs)   bands (ev):

   -38.9120 -38.8281 -38.7300 -38.7080 -37.8970 -37.8535 -37.7895 -37.7585
    -0.8340   0.6404   3.8846   4.0798   4.5421   6.8379   7.6536   8.0665
     8.3379   9.4964  11.1198  11.2606

          k = 0.1728-0.1728 0.0000 (  4045 PWs)   bands (ev):

   -38.9483 -38.8089 -38.7137 -38.7050 -37.8742 -37.8577 -37.7954 -37.7698
    -1.1449   1.2780   4.0013   4.8453   4.9417   6.7610   6.9086   7.4593
     7.8279   8.9855   9.6632  11.1942

          k =-0.0432-0.1728 0.1427 (  4038 PWs)   bands (ev):

   -38.9468 -38.8075 -38.7124 -38.7101 -37.8793 -37.8546 -37.7850 -37.7772
    -1.1229   1.0874   4.7409   5.0797   5.5335   5.8896   6.4172   6.7713
     7.7474   8.8930  10.3029  11.1487

          k = 0.6050-0.1728-0.2853 (  4062 PWs)   bands (ev):

   -38.8980 -38.8373 -38.7262 -38.7196 -37.8994 -37.8576 -37.7725 -37.7686
    -0.6243   0.1647   4.1003   4.7778   5.5067   5.8508   6.5221   7.5773
     8.5998   8.9997  11.4850  12.1544

          k = 0.3889-0.1728-0.1427 (  4060 PWs)   bands (ev):

   -38.9002 -38.8383 -38.7287 -38.7123 -37.8974 -37.8587 -37.7819 -37.7610
    -0.7010   0.3386   4.0347   4.2990   4.7829   6.7024   7.0942   7.6897
     8.4373   9.6400  11.0582  11.4624

          k =-0.0432 0.0000 0.2568 (  4044 PWs)   bands (ev):

   -38.9344 -38.8007 -38.7225 -38.7221 -37.9125 -37.8341 -37.7751 -37.7747
    -1.0216   0.8592   4.8564   4.8664   5.2455   6.0426   6.2569   7.4144
     7.5051   9.2122  10.9012  11.6514

          k = 0.6050-0.0000-0.1712 (  4051 PWs)   bands (ev):

   -38.8799 -38.8454 -38.7311 -38.7229 -37.9321 -37.8426 -37.7646 -37.7593
    -0.4124  -0.0858   4.0922   4.7077   4.8973   6.3723   7.1472   7.1887
     8.3014  10.4565  10.6434  12.4768

          k = 0.3889-0.0000-0.0285 (  4037 PWs)   bands (ev):

   -38.9143 -38.8319 -38.7218 -38.7090 -37.9072 -37.8524 -37.7748 -37.7612
    -0.8508   0.5677   3.7204   5.0961   5.2838   6.2513   6.2782   8.0581
     8.9247   9.1624   9.6141  11.2960

          k = 0.1728 0.1728 0.2282 (  4055 PWs)   bands (ev):

   -38.9212 -38.8202 -38.7200 -38.7186 -37.8930 -37.8551 -37.7796 -37.7700
    -0.8829   0.5642   4.3592   5.1200   5.4024   5.8920   6.1603   7.4714
     8.2324   8.8668  11.1743  11.8769

          k =-0.0432 0.1728 0.3709 (  4051 PWs)   bands (ev):

   -38.8966 -38.8235 -38.7332 -38.7268 -37.9350 -37.8379 -37.7636 -37.7612
    -0.6343   0.2112   4.2285   4.5692   4.9543   6.0784   7.1502   7.4590
     8.3533   9.9985  11.1961  12.2894

          k = 0.6050 0.1728-0.0571 (  4059 PWs)   bands (ev):

   -38.8663 -38.8520 -38.7451 -38.7155 -37.9424 -37.8395 -37.7669 -37.7515
    -0.3466  -0.0612   3.5319   3.9230   5.8191   6.0380   6.7733   8.3685
     9.4465  10.0559  11.1093  12.0745

          k = 0.3889 0.1728 0.0856 (  4056 PWs)   bands (ev):

   -38.9060 -38.8337 -38.7296 -38.7083 -37.9040 -37.8530 -37.7840 -37.7581
    -0.7781   0.5067   3.8292   4.1729   4.8578   6.5370   7.6041   7.9105
     8.3814   9.6397  10.7399  11.4039

          k = 0.1728-0.5185-0.2282 (  4054 PWs)   bands (ev):

   -38.8725 -38.8595 -38.7299 -38.7177 -37.9019 -37.8589 -37.7718 -37.7657
    -0.2872  -0.2200   3.9909   4.5199   5.1684   6.3023   6.7756   7.6454
     8.4953   9.4290  11.5165  12.2508

          k =-0.0432-0.5185-0.0856 (  4054 PWs)   bands (ev):

   -38.8763 -38.8543 -38.7318 -38.7163 -37.9309 -37.8452 -37.7669 -37.7565
    -0.4782   0.0211   3.7261   4.5674   5.1635   6.4135   7.1392   7.5232
     8.6123   9.9141  10.3856  12.5063

          k = 0.6050-0.5185-0.5136 (  4055 PWs)   bands (ev):

   -38.8830 -38.8409 -38.7447 -38.7078 -37.9231 -37.8443 -37.7811 -37.7520
    -0.5675   0.2740   3.4452   3.7898   4.8879   6.7194   7.4044   8.4295
     9.4543   9.8620  11.0169  12.1001

          k = 0.3889-0.5185-0.3709 (  4062 PWs)   bands (ev):

   -38.8816 -38.8457 -38.7352 -38.7175 -37.8890 -37.8625 -37.7835 -37.7635
    -0.4948   0.1396   3.6117   3.9119   4.7346   6.5663   7.5177   8.7097
     8.7558   9.0220  12.6210  12.9315

          k = 0.1728-0.3457-0.1141 (  4059 PWs)   bands (ev):

   -38.9125 -38.8302 -38.7263 -38.7098 -37.8935 -37.8584 -37.7857 -37.7612
    -0.8272   0.5632   4.0396   4.3124   4.7178   6.7244   7.2791   7.6028
     8.3943   9.5725  10.9345  11.0802

          k =-0.0432-0.3457 0.0285 (  4031 PWs)   bands (ev):

   -38.9243 -38.8248 -38.7192 -38.7072 -37.8974 -37.8550 -37.7793 -37.7634
    -0.9431   0.7475   3.7872   5.0211   5.6210   5.7735   6.4743   8.0079
     8.5866   9.2798   9.8040  10.7639

          k = 0.6050-0.3457-0.3994 (  4064 PWs)   bands (ev):

   -38.8978 -38.8370 -38.7302 -38.7145 -37.8889 -37.8628 -37.7858 -37.7622
    -0.6734   0.3404   3.9249   4.1382   4.5751   6.7700   7.3130   8.0939
     8.5811   9.1680  11.8324  12.0347

          k = 0.3889-0.3457-0.2568 (  4073 PWs)   bands (ev):

   -38.8717 -38.8558 -38.7300 -38.7246 -37.8794 -37.8728 -37.7770 -37.7701
    -0.3396  -0.0689   3.7221   3.7748   5.3026   5.8901   7.8952   8.3277
     8.7447   8.9318  12.9438  13.2788

          k = 0.3457-0.3457 0.0000 (  4070 PWs)   bands (ev):

   -38.9037 -38.8270 -38.7418 -38.7060 -37.9065 -37.8441 -37.7975 -37.7533
    -0.7804   0.6978   3.5182   3.6769   4.2521   6.8284   8.4709   8.9341
     9.0537   9.2147  11.0185  12.1006

          k = 0.1296-0.3457 0.1427 (  4051 PWs)   bands (ev):

   -38.9114 -38.8327 -38.7230 -38.7122 -37.8894 -37.8633 -37.7817 -37.7632
    -0.8075   0.4719   4.2113   4.5561   4.9346   6.5154   6.9495   7.1454
     8.5752   9.6059  10.6939  11.0333

          k = 0.7778-0.3457-0.2853 (  4047 PWs)   bands (ev):

   -38.8876 -38.8500 -38.7217 -38.7192 -37.8921 -37.8668 -37.7699 -37.7684
    -0.5058  -0.0297   4.4959   4.8065   5.5760   5.8551   6.2731   6.8679
     8.9475   9.5661  10.8788  11.4645

          k = 0.5618-0.3457-0.1427 (  4062 PWs)   bands (ev):

   -38.8779 -38.8462 -38.7421 -38.7118 -37.9098 -37.8505 -37.7824 -37.7581
    -0.4804   0.1261   3.4923   4.0904   4.5734   7.1589   7.3194   7.8497
     9.1952   9.5278  12.0638  12.3860

          k = 0.1296-0.1728 0.2568 (  4049 PWs)   bands (ev):

   -38.9193 -38.8184 -38.7227 -38.7192 -37.9024 -37.8489 -37.7756 -37.7698
    -0.8617   0.5198   4.3832   5.1870   5.6448   5.7937   5.9239   7.3895
     8.2371   8.9931  11.2358  11.8910

          k = 0.7778-0.1728-0.1712 (  4053 PWs)   bands (ev):

   -38.8884 -38.8282 -38.7374 -38.7256 -37.9396 -37.8373 -37.7619 -37.7585
    -0.5421   0.1072   4.0278   4.3758   5.1444   6.0381   7.3112   7.4865
     8.6723  10.0118  11.3564  12.4012

          k = 0.5618-0.1728-0.0285 (  4053 PWs)   bands (ev):

   -38.8727 -38.8490 -38.7435 -38.7124 -37.9378 -37.8406 -37.7704 -37.7511
    -0.4534   0.0731   3.4998   3.9001   5.7009   6.0541   6.9888   8.4333
     9.4463   9.8953  10.7661  12.2281

          k = 0.1296-0.0000 0.3709 (  4052 PWs)   bands (ev):

   -38.9015 -38.8146 -38.7335 -38.7303 -37.9392 -37.8344 -37.7625 -37.7609
    -0.6968   0.3194   4.2687   4.6409   4.7183   5.9753   7.3000   7.7217
     8.2538  10.0329  11.2817  12.1201

          k = 0.7778-0.0000-0.0571 (  4066 PWs)   bands (ev):

   -38.8783 -38.8146 -38.7457 -38.7419 -37.9688 -37.8294 -37.7518 -37.7506
    -0.4732   0.1253   3.6201   4.4366   4.4611   5.7211   8.3863   8.4622
     9.1935  11.2114  11.3867  12.0049

          k = 0.5618-0.0000 0.0856 (  4052 PWs)   bands (ev):

   -38.8641 -38.8609 -38.7339 -38.7195 -37.9394 -37.8415 -37.7629 -37.7560
    -0.3553  -0.1126   3.7062   4.6727   4.8456   6.7374   7.1324   7.3859
     8.6780  10.1640  10.4653  12.9418

          k = 0.1296-0.6914-0.0856 (  4059 PWs)   bands (ev):

   -38.8722 -38.8375 -38.7449 -38.7245 -37.9534 -37.8350 -37.7598 -37.7528
    -0.3254  -0.0958   3.6498   4.0891   5.3059   6.1127   7.0395   8.2589
     9.3334  10.2909  11.5400  11.9754

          k = 0.7778-0.6914-0.5136 (  4060 PWs)   bands (ev):

   -38.8712 -38.8350 -38.7448 -38.7281 -37.9593 -37.8331 -37.7567 -37.7515
    -0.3294  -0.0779   3.5932   4.1714   5.0131   6.1384   7.3039   8.3755
     9.3194  10.5639  11.2899  12.1397

          k = 0.5618-0.6914-0.3709 (  4053 PWs)   bands (ev):

   -38.8734 -38.8549 -38.7338 -38.7169 -37.9135 -37.8515 -37.7706 -37.7625
    -0.2976  -0.1961   3.8895   4.4448   5.2451   6.3888   6.8452   7.5379
     8.5827   9.5540  11.5041  12.4438

          k = 0.3457-0.5185-0.1141 (  4059 PWs)   bands (ev):

   -38.8834 -38.8397 -38.7444 -38.7093 -37.9105 -37.8482 -37.7865 -37.7554
    -0.5570   0.2733   3.4117   3.9658   4.4222   7.0496   7.6657   8.0760
     9.4231   9.6197  11.6125  12.6345

          k = 0.1296-0.5185 0.0285 (  4055 PWs)   bands (ev):

   -38.8803 -38.8472 -38.7379 -38.7119 -37.9329 -37.8430 -37.7709 -37.7531
    -0.5340   0.1488   3.5565   4.0865   5.7200   5.8738   7.3383   8.0359
     9.1809   9.7029  10.3930  12.5489

          k = 0.7778-0.5185-0.3994 (  4048 PWs)   bands (ev):

   -38.8690 -38.8632 -38.7294 -38.7167 -37.9166 -37.8513 -37.7694 -37.7604
    -0.3432  -0.1732   4.0797   4.5094   5.3995   6.0779   6.9818   7.2694
     8.4316  10.0253  10.8317  11.9796

          k = 0.5618-0.5185-0.2568 (  4065 PWs)   bands (ev):

   -38.8790 -38.8510 -38.7269 -38.7244 -37.8791 -37.8743 -37.7765 -37.7688
    -0.4259  -0.0019   3.8322   3.9484   5.3458   5.8381   7.8794   8.1304
     8.4692   8.9110  12.4035  12.9638

     the Fermi energy is     8.2601 ev

!    total energy              =    -131.12361007 Ry
     estimated scf accuracy    <          1.5E-09 Ry
     smearing contrib. (-TS)   =      -0.00075778 Ry
     internal energy E=F+TS    =    -131.12285230 Ry

     The total energy is F=E-TS. E is the sum of the following terms:
     one-electron contribution =     -43.77524053 Ry
     hartree contribution      =      23.53104058 Ry
     xc contribution           =     -34.81449138 Ry
     ewald contribution        =     -76.06416097 Ry

     convergence has been achieved in   9 iterations

     Forces acting on atoms (cartesian axes, Ry/au):

     atom    1 type  1   force =    -0.00000000    0.00000000    0.00000000
     atom    2 type  1   force =     0.00000000   -0.00000000   -0.00000000
     atom    3 type  2   force =    -0.00513385    0.00513385    0.03181917
     atom    4 type  2   force =     0.00513385   -0.00513385   -0.03181917
     atom    5 type  2   force =    -0.00513385   -0.00513385    0.03181917
     atom    6 type  2   force =     0.00513385    0.00513385   -0.03181917
     atom    7 type  2   force =     0.00513385   -0.00513385    0.03181917
     atom    8 type  2   force =    -0.00513385    0.00513385   -0.03181917
     atom    9 type  2   force =     0.00513385    0.00513385    0.03181917
     atom   10 type  2   force =    -0.00513385   -0.00513385   -0.03181917
     The non-local contrib.  to forces
     atom    1 type  1   force =    -0.00000000    0.00000000    0.00000000
     atom    2 type  1   force =     0.00000000   -0.00000000   -0.00000000
     atom    3 type  2   force =    -0.01754315    0.01754315   -0.20468187
     atom    4 type  2   force =     0.01754315   -0.01754315    0.20468187
     atom    5 type  2   force =    -0.01754315   -0.01754315   -0.20468187
     atom    6 type  2   force =     0.01754315    0.01754315    0.20468187
     atom    7 type  2   force =     0.01754315   -0.01754315   -0.20468187
     atom    8 type  2   force =    -0.01754315    0.01754315    0.20468187
     atom    9 type  2   force =     0.01754315    0.01754315   -0.20468187
     atom   10 type  2   force =    -0.01754315   -0.01754315    0.20468187
     The ionic contribution  to forces
     atom    1 type  1   force =     0.00000000    0.00000000   -0.00000000
     atom    2 type  1   force =    -0.00000000   -0.00000000   -0.00000000
     atom    3 type  2   force =    -0.01183960    0.01183960    0.50820112
     atom    4 type  2   force =     0.01183960   -0.01183960   -0.50820112
     atom    5 type  2   force =    -0.01183960   -0.01183960    0.50820112
     atom    6 type  2   force =     0.01183960    0.01183960   -0.50820112
     atom    7 type  2   force =     0.01183960   -0.01183960    0.50820112
     atom    8 type  2   force =    -0.01183960    0.01183960   -0.50820112
     atom    9 type  2   force =     0.01183960    0.01183960    0.50820112
     atom   10 type  2   force =    -0.01183960   -0.01183960   -0.50820112
     The local contribution  to forces
     atom    1 type  1   force =    -0.00000000   -0.00000000   -0.00000000
     atom    2 type  1   force =     0.00000000    0.00000000    0.00000000
     atom    3 type  2   force =     0.02425508   -0.02425508   -0.27168628
     atom    4 type  2   force =    -0.02425508    0.02425508    0.27168628
     atom    5 type  2   force =     0.02425508    0.02425508   -0.27168628
     atom    6 type  2   force =    -0.02425508   -0.02425508    0.27168628
     atom    7 type  2   force =    -0.02425508    0.02425508   -0.27168628
     atom    8 type  2   force =     0.02425508   -0.02425508    0.27168628
     atom    9 type  2   force =    -0.02425508   -0.02425508   -0.27168628
     atom   10 type  2   force =     0.02425508    0.02425508    0.27168628
     The core correction contribution to forces
     atom    1 type  1   force =     0.00000000    0.00000000    0.00000000
     atom    2 type  1   force =    -0.00000000   -0.00000000    0.00000000
     atom    3 type  2   force =     0.00000000    0.00000000    0.00000000
     atom    4 type  2   force =     0.00000000    0.00000000    0.00000000
     atom    5 type  2   force =     0.00000000    0.00000000    0.00000000
     atom    6 type  2   force =     0.00000000    0.00000000    0.00000000
     atom    7 type  2   force =     0.00000000    0.00000000    0.00000000
     atom    8 type  2   force =     0.00000000    0.00000000    0.00000000
     atom    9 type  2   force =     0.00000000    0.00000000    0.00000000
     atom   10 type  2   force =     0.00000000    0.00000000    0.00000000
     The Hubbard contrib.    to forces
     atom    1 type  1   force =     0.00000000    0.00000000    0.00000000
     atom    2 type  1   force =     0.00000000    0.00000000    0.00000000
     atom    3 type  2   force =     0.00000000    0.00000000    0.00000000
     atom    4 type  2   force =     0.00000000    0.00000000    0.00000000
     atom    5 type  2   force =     0.00000000    0.00000000    0.00000000
     atom    6 type  2   force =     0.00000000    0.00000000    0.00000000
     atom    7 type  2   force =     0.00000000    0.00000000    0.00000000
     atom    8 type  2   force =     0.00000000    0.00000000    0.00000000
     atom    9 type  2   force =     0.00000000    0.00000000    0.00000000
     atom   10 type  2   force =     0.00000000    0.00000000    0.00000000
     The SCF correction term to forces
     atom    1 type  1   force =    -0.00000000   -0.00000000    0.00000000
     atom    2 type  1   force =     0.00000000    0.00000000   -0.00000000
     atom    3 type  2   force =    -0.00000619    0.00000619   -0.00001379
     atom    4 type  2   force =     0.00000619   -0.00000619    0.00001379
     atom    5 type  2   force =    -0.00000619   -0.00000619   -0.00001379
     atom    6 type  2   force =     0.00000619    0.00000619    0.00001379
     atom    7 type  2   force =     0.00000619   -0.00000619   -0.00001379
     atom    8 type  2   force =    -0.00000619    0.00000619    0.00001379
     atom    9 type  2   force =     0.00000619    0.00000619   -0.00001379
     atom   10 type  2   force =    -0.00000619   -0.00000619    0.00001379

     Total force =     0.092311     Total SCF correction =     0.000046


     Computing stress (Cartesian axis) and pressure

          total   stress  (Ry/bohr**3)                   (kbar)     P=      683.39
   0.00450836   0.00000000  -0.00000000          663.20        0.00       -0.00
   0.00000000   0.00450836   0.00000000            0.00      663.20        0.00
  -0.00000000   0.00000000   0.00491998           -0.00        0.00      723.75

     Energy error            =      2.4E-01 Ry
     Gradient error          =      3.2E-02 Ry/Bohr
     Cell gradient error     =      2.2E+02 kbar

     number of scf cycles    =   3
     number of bfgs steps    =   2

     enthalpy           old  =    -129.0379129832 Ry
     enthalpy           new  =    -129.2775263972 Ry

     CASE: enthalpy          _new < enthalpy          _old

     new trust radius        =       0.1504740409 bohr
ibrav =      7
 celldm(1) =      9.16996379
 celldm(3) =      1.52616690
Input lattice vectors:
     0.59267478    -0.59267478     0.90452063
     0.59267478     0.59267478     0.90452063
    -0.59267478    -0.59267478     0.90452063
New lattice vectors in INITIAL alat:
     0.59267478    -0.59267478     0.90452063
     0.59267478     0.59267478     0.90452063
    -0.59267478    -0.59267478     0.90452063
New lattice vectors in NEW alat (for information only):
     0.50000000    -0.50000000     0.76308345
     0.50000000     0.50000000     0.76308345
    -0.50000000    -0.50000000     0.76308345
Discrepancy in bohr =     0.000000    0.000000    0.000000
     new conv_thr            =       0.0000000032 Ry

     new unit-cell volume =    588.40302 a.u.^3 (    87.19233 Ang^3 )
     density =      2.12726 g/cm^3

CELL_PARAMETERS (alat=  7.73608400)
   0.592674781  -0.592674781   0.904520631
   0.592674781   0.592674781   0.904520631
  -0.592674781  -0.592674781   0.904520631

ATOMIC_POSITIONS (crystal)
Si           -0.0000000000        0.2500000000        0.2500000000
Si           -0.0000000000        0.7500000000        0.7500000000
Li           -0.1886717431        0.9565882172        0.4565882172
Li            0.1886717431        1.0434117828       -0.4565882172
Li            0.5000000000        0.7679164742       -0.0434117828
Li           -0.5000000000        1.2320835258        0.0434117828
Li            0.1886717431        1.2679164742       -0.2320835258
Li           -0.1886717431        0.7320835258        0.2320835258
[...]

   -39.3880 -39.2606 -39.1820 -39.1792 -38.7102 -38.6724 -38.6470 -38.6421
    -1.6913   0.3745   4.0551   4.5923   4.7073   5.1741   5.3957   6.4641
     6.6844   7.8983   9.4145   9.4466

          k =-0.2036 0.1629 0.2635 (  7205 PWs)   bands (ev):

   -39.3384 -39.2805 -39.1999 -39.1989 -38.7064 -38.6972 -38.6331 -38.6272
    -1.2835  -0.4215   3.6276   4.3091   5.0280   5.1754   5.2651   6.6934
     7.2003   8.0151  10.0982  10.8212

          k = 0.4072 0.1629-0.1757 (  7198 PWs)   bands (ev):

   -39.3360 -39.2774 -39.2112 -39.1891 -38.7380 -38.6788 -38.6364 -38.6147
    -1.2314  -0.4684   3.3968   3.8601   4.1632   5.7148   6.3126   6.6897
     7.3006   8.8125   9.9620  10.7555

          k = 0.2036 0.1629-0.0293 (  7212 PWs)   bands (ev):

   -39.3860 -39.2588 -39.1895 -39.1716 -38.7331 -38.6639 -38.6564 -38.6222
    -1.6759   0.4061   3.4314   3.9591   4.3036   5.9252   6.0094   6.4338
     7.5771   8.4309   9.2892   9.6449

          k =-0.0000 0.3258 0.2342 (  7213 PWs)   bands (ev):

   -39.3374 -39.2842 -39.1999 -39.1954 -38.7124 -38.6941 -38.6315 -38.6269
    -1.2459  -0.5067   4.2226   4.2735   4.7958   5.1333   5.3055   5.5471
     8.2077   8.8882   8.9101  10.1698

          k =-0.2036 0.3258 0.3806 (  7201 PWs)   bands (ev):

   -39.3186 -39.2881 -39.2155 -39.1935 -38.7367 -38.6819 -38.6327 -38.6148
    -1.0373  -0.7069   3.2114   3.9084   4.1941   5.8165   6.2541   6.8009
     7.4018   8.5022  10.3269  11.4107

          k = 0.4072 0.3258-0.0586 (  7179 PWs)   bands (ev):

   -39.3498 -39.2537 -39.2292 -39.1738 -38.7596 -38.6650 -38.6512 -38.5995
    -1.4031  -0.0529   2.8276   3.1847   3.8818   5.8928   6.7676   7.8956
     8.2802   9.1392  10.5749  11.1737

          k = 0.2036 0.3258 0.0878 (  7203 PWs)   bands (ev):

   -39.3615 -39.2618 -39.2081 -39.1766 -38.7468 -38.6680 -38.6487 -38.6100
    -1.4830   0.0035   3.2946   3.4733   4.0669   5.8637   6.7108   6.9108
     7.4816   8.9270   9.9289  10.2704

          k = 0.1629-0.1629-0.0000 (  7225 PWs)   bands (ev):

   -39.3909 -39.2582 -39.1855 -39.1710 -38.7284 -38.6625 -38.6586 -38.6264
    -1.7128   0.4961   3.4747   4.1406   4.3765   5.8120   6.0192   6.2056
     7.5645   8.2510   9.1423   9.6653

          k =-0.0407-0.1629 0.1464 (  7221 PWs)   bands (ev):

   -39.3816 -39.2624 -39.1857 -39.1819 -38.7074 -38.6763 -38.6473 -38.6388
    -1.6438   0.2489   4.2573   4.3792   4.7306   5.0633   5.6696   6.1462
     6.7593   7.9287   9.5178   9.5913

          k = 0.5701-0.1629-0.2928 (  7202 PWs)   bands (ev):

   -39.3251 -39.2890 -39.2036 -39.2004 -38.7141 -38.6945 -38.6280 -38.6269
    -1.1504  -0.6008   3.5206   4.1964   4.7952   5.3932   5.4143   6.6783
     7.4081   8.1039  10.1965  10.9918

          k = 0.3665-0.1629-0.1464 (  7193 PWs)   bands (ev):

   -39.3483 -39.2701 -39.2087 -39.1847 -38.7404 -38.6750 -38.6405 -38.6140
    -1.3544  -0.2733   3.4295   3.7596   4.1354   5.7325   6.3999   6.7920
     7.2354   8.8634   9.8085  10.5146

          k =-0.0407 0.0000 0.2635 (  7214 PWs)   bands (ev):

   -39.3544 -39.2662 -39.1985 -39.1985 -38.7129 -38.6855 -38.6328 -38.6327
    -1.4599  -0.0758   4.1065   4.1136   4.7160   5.3243   5.8114   6.3102
     6.4191   8.3867   9.2658  10.5506

          k = 0.5701-0.0000-0.1757 (  7206 PWs)   bands (ev):

   -39.3051 -39.2906 -39.2137 -39.2044 -38.7592 -38.6785 -38.6168 -38.6133
    -0.8873  -0.8269   3.4773   3.9538   4.0484   5.4494   6.0743   6.5696
     7.5167   9.6899   9.7553  11.0778

          k = 0.3665-0.0000-0.0293 (  7208 PWs)   bands (ev):

   -39.3652 -39.2617 -39.1943 -39.1844 -38.7585 -38.6734 -38.6248 -38.6193
    -1.5000   0.0278   3.1057   4.2692   4.4010   5.4330   5.4719   7.4182
     7.8280   8.3858   9.2249   9.8763

          k = 0.1629 0.1629 0.2342 (  7209 PWs)   bands (ev):

   -39.3511 -39.2737 -39.1978 -39.1940 -38.7022 -38.6958 -38.6382 -38.6287
    -1.3994  -0.2413   3.7674   4.4397   4.9427   5.1392   5.2816   6.6492
     6.9367   7.9903   9.9518  10.5887

          k =-0.0407 0.1629 0.3806 (  7200 PWs)   bands (ev):

   -39.3050 -39.2872 -39.2150 -39.2086 -38.7550 -38.6796 -38.6169 -38.6144
    -1.0270  -0.6553   3.5962   3.8338   4.1171   5.2424   6.3718   6.5296
     7.4457   9.2187  10.0371  11.2319

          k = 0.5701 0.1629-0.0586 (  7199 PWs)   bands (ev):

   -39.3241 -39.2606 -39.2289 -39.1926 -38.7843 -38.6733 -38.6186 -38.5994
    -1.1434  -0.4352   2.8712   3.2277   4.8735   5.1584   5.9025   7.3704
     8.7944   9.3072  10.3656  11.1280

          k = 0.3665 0.1629 0.0878 (  7201 PWs)   bands (ev):

   -39.3572 -39.2629 -39.2083 -39.1795 -38.7520 -38.6714 -38.6404 -38.6100
    -1.4409  -0.0792   3.2500   3.5181   4.2926   5.5494   6.6252   6.8968
     7.5996   9.0155   9.6385  10.3443

          k = 0.1629-0.4887-0.2342 (  7196 PWs)   bands (ev):

   -39.3117 -39.2981 -39.2104 -39.1968 -38.7284 -38.6870 -38.6298 -38.6194
    -0.9397  -0.8360   3.4009   4.0255   4.3971   5.6120   5.8951   6.6452
     7.4388   8.5049  10.1942  11.0433

          k =-0.0407-0.4887-0.0878 (  7200 PWs)   bands (ev):

   -39.3341 -39.2679 -39.2106 -39.1952 -38.7728 -38.6746 -38.6172 -38.6094
    -1.2190  -0.4016   3.0725   3.7983   4.2805   5.5303   6.1206   6.6796
     8.1173   8.8966   9.9488  11.0368

          k = 0.5701-0.4887-0.5270 (  7208 PWs)   bands (ev):

   -39.3407 -39.2564 -39.2291 -39.1801 -38.7698 -38.6713 -38.6349 -38.5994
    -1.3105  -0.2151   2.8715   3.1544   4.3477   5.7210   6.1786   7.6010
     8.5631   9.1938  10.4017  11.0028

          k = 0.3665-0.4887-0.3806 (  7194 PWs)   bands (ev):

   -39.3295 -39.2803 -39.2157 -39.1900 -38.7272 -38.6806 -38.6435 -38.6149
    -1.1782  -0.5205   3.0681   3.4578   4.2537   6.1951   6.6792   7.0972
     7.4133   8.1321  11.1536  11.6058

          k = 0.1629-0.3258-0.1171 (  7206 PWs)   bands (ev):

   -39.3598 -39.2651 -39.2046 -39.1803 -38.7410 -38.6715 -38.6448 -38.6145
    -1.4608  -0.0785   3.4647   3.6887   4.1476   5.7499   6.3704   6.9290
     7.1859   8.8472   9.6710  10.2278

          k =-0.0407-0.3258 0.0293 (  7209 PWs)   bands (ev):

   -39.3730 -39.2608 -39.1914 -39.1805 -38.7504 -38.6728 -38.6314 -38.6214
    -1.5663   0.1492   3.1962   4.2042   4.7408   5.0443   5.6149   7.3517
     7.7158   8.4618   9.1563   9.4671

          k = 0.5701-0.3258-0.4099 (  7198 PWs)   bands (ev):

   -39.3439 -39.2731 -39.2110 -39.1857 -38.7305 -38.6762 -38.6465 -38.6148
    -1.3197  -0.3287   3.3134   3.6782   4.0526   6.3381   6.4108   6.8144
     7.1074   8.4315  10.5727  10.7815

          k = 0.3665-0.3258-0.2635 (  7186 PWs)   bands (ev):

   -39.3148 -39.2955 -39.2080 -39.1995 -38.7108 -38.6960 -38.6335 -38.6236
    -1.0083  -0.7478   3.1973   3.2866   4.8648   5.4725   7.0820   7.1806
     7.3129   7.6416  11.1697  11.7270

          k = 0.3258-0.3258-0.0000 (  7187 PWs)   bands (ev):

   -39.3580 -39.2547 -39.2214 -39.1712 -38.7582 -38.6633 -38.6544 -38.6006
    -1.4731   0.0801   2.9353   3.1120   3.9170   5.8311   6.8384   7.7131
     8.6818   8.7550  10.4784  10.8802

          k = 0.1222-0.3258 0.1464 (  7204 PWs)   bands (ev):

   -39.3564 -39.2690 -39.2019 -39.1845 -38.7344 -38.6758 -38.6407 -38.6190
    -1.4258  -0.1759   3.6602   3.9171   4.2561   5.5781   5.9860   6.6107
     7.3948   8.7441   9.4424  10.2216

          k = 0.7330-0.3258-0.2928 (  7208 PWs)   bands (ev):

   -39.3191 -39.2970 -39.2017 -39.2004 -38.7107 -38.6986 -38.6273 -38.6269
    -1.0642  -0.7295   3.8715   4.2142   4.8940   5.2307   5.3109   5.8834
     7.9137   8.6279   9.8713  10.2006

          k = 0.5294-0.3258-0.1464 (  7189 PWs)   bands (ev):

   -39.3322 -39.2696 -39.2251 -39.1849 -38.7503 -38.6732 -38.6403 -38.6062
    -1.2116  -0.4312   2.9437   3.5993   3.9609   6.2200   6.4193   7.0157
     7.9316   8.6498  10.6936  11.7063

          k = 0.1222-0.1629 0.2635 (  7211 PWs)   bands (ev):

   -39.3444 -39.2756 -39.1990 -39.1987 -38.7087 -38.6935 -38.6330 -38.6288
    -1.3499  -0.3097   3.7627   4.6308   4.8575   4.9531   5.3235   6.4992
     7.0262   8.1421   9.9294  10.6485

          k = 0.7330-0.1629-0.1757 (  7200 PWs)   bands (ev):

   -39.2963 -39.2901 -39.2197 -39.2078 -38.7650 -38.6777 -38.6151 -38.6100
    -0.9186  -0.7545   3.3856   3.6470   4.2567   5.1982   6.3539   6.7466
     7.7642   9.2483  10.1837  11.3749

          k = 0.5294-0.1629-0.0293 (  7199 PWs)   bands (ev):

   -39.3324 -39.2585 -39.2261 -39.1882 -38.7825 -38.6729 -38.6218 -38.5994
    -1.2262  -0.3237   2.8436   3.2140   4.9500   5.0736   6.0169   7.3357
     8.9302   9.2182  10.0598  11.1961

          k = 0.1222-0.0000 0.3806 (  7197 PWs)   bands (ev):

   -39.3071 -39.2810 -39.2154 -39.2123 -38.7577 -38.6790 -38.6151 -38.6142
    -1.0704  -0.5806   3.6151   3.8777   3.9179   5.1993   6.5640   6.6106
     7.4220   9.2352   9.9387  11.2188

          k = 0.7330-0.0000-0.0586 (  7173 PWs)   bands (ev):

   -39.2843 -39.2664 -39.2292 -39.2260 -38.8044 -38.6729 -38.5996 -38.5992
    -0.8064  -0.7223   2.7774   3.6591   3.6689   4.9935   7.1645   7.1739
     8.9391  10.2716  10.3229  11.2704

          k = 0.5294 0.0000 0.0878 (  7191 PWs)   bands (ev):

   -39.3247 -39.2692 -39.2133 -39.2006 -38.7791 -38.6745 -38.6123 -38.6081
    -1.1309  -0.4949   3.0205   3.8986   3.9840   5.7992   6.0960   6.5180
     8.2640   9.1381  10.0542  11.4025

          k = 0.1222-0.6516-0.0878 (  7190 PWs)   bands (ev):

   -39.3051 -39.2679 -39.2292 -39.2054 -38.7895 -38.6739 -38.6102 -38.6005
    -0.9518  -0.6465   2.9265   3.3705   4.3554   5.2944   6.1097   7.2745
     8.6778   9.5308  10.4605  11.2503

          k = 0.7330-0.6516-0.5270 (  7194 PWs)   bands (ev):

   -39.3028 -39.2647 -39.2286 -39.2098 -38.7971 -38.6733 -38.6061 -38.5993
    -0.9477  -0.6204   2.8166   3.4400   4.1180   5.3355   6.2947   7.2310
     8.9136   9.7434  10.5334  11.1480

          k = 0.5294-0.6516-0.3806 (  7193 PWs)   bands (ev):

   -39.3120 -39.2922 -39.2153 -39.1962 -38.7417 -38.6817 -38.6280 -38.6147
    -0.9509  -0.7981   3.3010   3.9278   4.4073   5.3666   6.2905   6.6425
     7.4608   8.6837  10.1738  11.3631

          k = 0.3258-0.4887-0.1171 (  7177 PWs)   bands (ev):

   -39.3386 -39.2620 -39.2286 -39.1806 -38.7549 -38.6698 -38.6444 -38.6029
    -1.2859  -0.2933   2.8670   3.4361   3.9112   6.1553   6.4809   7.3810
     8.0931   8.8302  10.9044  11.4169

          k = 0.1222-0.4887 0.0293 (  7200 PWs)   bands (ev):

   -39.3389 -39.2609 -39.2175 -39.1880 -38.7787 -38.6731 -38.6220 -38.6027
    -1.2800  -0.2685   2.8932   3.3827   4.7979   5.1011   6.3374   6.9212
     8.7390   9.0590   9.6504  11.2126

          k = 0.7330-0.4887-0.4099 (  7189 PWs)   bands (ev):

   -39.3219 -39.2843 -39.2116 -39.1961 -38.7492 -38.6794 -38.6249 -38.6144
    -1.0725  -0.6617   3.4970   3.8384   4.5229   5.1516   6.0991   6.6224
     7.4632   9.1817   9.8424  10.7523

          k = 0.5294-0.4887-0.2635 (  7193 PWs)   bands (ev):

   -39.3193 -39.2932 -39.2060 -39.1994 -38.7089 -38.6975 -38.6335 -38.6240
    -1.0624  -0.6964   3.3251   3.3930   4.9060   5.3754   6.7400   7.0624
     7.3543   7.7048  10.7450  11.6449

     the Fermi energy is     7.1929 ev

!    total energy              =    -131.38787912 Ry
     estimated scf accuracy    <          1.7E-12 Ry
     smearing contrib. (-TS)   =       0.00021213 Ry
     internal energy E=F+TS    =    -131.38809126 Ry

     The total energy is F=E-TS. E is the sum of the following terms:
     one-electron contribution =     -47.39388374 Ry
     hartree contribution      =      24.38933337 Ry
     xc contribution           =     -34.60446150 Ry
     ewald contribution        =     -73.77907939 Ry

     convergence has been achieved in   9 iterations

     Forces acting on atoms (cartesian axes, Ry/au):

     atom    1 type  1   force =    -0.00000000    0.00000000    0.00000000
     atom    2 type  1   force =     0.00000000   -0.00000000   -0.00000000
     atom    3 type  2   force =     0.00000530   -0.00000530    0.00007524
     atom    4 type  2   force =    -0.00000530    0.00000530   -0.00007524
     atom    5 type  2   force =     0.00000530    0.00000530    0.00007524
     atom    6 type  2   force =    -0.00000530   -0.00000530   -0.00007524
     atom    7 type  2   force =    -0.00000530    0.00000530    0.00007524
     atom    8 type  2   force =     0.00000530   -0.00000530   -0.00007524
     atom    9 type  2   force =    -0.00000530   -0.00000530    0.00007524
     atom   10 type  2   force =     0.00000530    0.00000530   -0.00007524
     The non-local contrib.  to forces
     atom    1 type  1   force =     0.00000000   -0.00000000   -0.00000000
     atom    2 type  1   force =    -0.00000000    0.00000000    0.00000000
     atom    3 type  2   force =    -0.02379912    0.02379912   -0.18286997
     atom    4 type  2   force =     0.02379912   -0.02379912    0.18286997
     atom    5 type  2   force =    -0.02379912   -0.02379912   -0.18286997
     atom    6 type  2   force =     0.02379912    0.02379912    0.18286997
     atom    7 type  2   force =     0.02379912   -0.02379912   -0.18286997
     atom    8 type  2   force =    -0.02379912    0.02379912    0.18286997
     atom    9 type  2   force =     0.02379912    0.02379912   -0.18286997
     atom   10 type  2   force =    -0.02379912   -0.02379912    0.18286997
     The ionic contribution  to forces
     atom    1 type  1   force =    -0.00000000   -0.00000000   -0.00000000
     atom    2 type  1   force =     0.00000000   -0.00000000    0.00000000
     atom    3 type  2   force =    -0.01675716    0.01675716    0.02772424
     atom    4 type  2   force =     0.01675716   -0.01675716   -0.02772424
     atom    5 type  2   force =    -0.01675716   -0.01675716    0.02772424
     atom    6 type  2   force =     0.01675716    0.01675716   -0.02772424
     atom    7 type  2   force =     0.01675716   -0.01675716    0.02772424
     atom    8 type  2   force =    -0.01675716    0.01675716   -0.02772424
     atom    9 type  2   force =     0.01675716    0.01675716    0.02772424
     atom   10 type  2   force =    -0.01675716   -0.01675716   -0.02772424
     The local contribution  to forces
     atom    1 type  1   force =     0.00000000   -0.00000000   -0.00000000
     atom    2 type  1   force =     0.00000000   -0.00000000   -0.00000000
     atom    3 type  2   force =     0.04056160   -0.04056160    0.15522112
     atom    4 type  2   force =    -0.04056160    0.04056160   -0.15522112
     atom    5 type  2   force =     0.04056160    0.04056160    0.15522112
     atom    6 type  2   force =    -0.04056160   -0.04056160   -0.15522112
     atom    7 type  2   force =    -0.04056160    0.04056160    0.15522112
     atom    8 type  2   force =     0.04056160   -0.04056160   -0.15522112
     atom    9 type  2   force =    -0.04056160   -0.04056160    0.15522112
     atom   10 type  2   force =     0.04056160    0.04056160   -0.15522112
     The core correction contribution to forces
     atom    1 type  1   force =     0.00000000    0.00000000    0.00000000
     atom    2 type  1   force =     0.00000000   -0.00000000    0.00000000
     atom    3 type  2   force =     0.00000000    0.00000000    0.00000000
     atom    4 type  2   force =     0.00000000    0.00000000    0.00000000
     atom    5 type  2   force =     0.00000000    0.00000000    0.00000000
     atom    6 type  2   force =     0.00000000    0.00000000    0.00000000
     atom    7 type  2   force =     0.00000000    0.00000000    0.00000000
     atom    8 type  2   force =     0.00000000    0.00000000    0.00000000
     atom    9 type  2   force =     0.00000000    0.00000000    0.00000000
     atom   10 type  2   force =     0.00000000    0.00000000    0.00000000
     The Hubbard contrib.    to forces
     atom    1 type  1   force =     0.00000000    0.00000000    0.00000000
     atom    2 type  1   force =     0.00000000    0.00000000    0.00000000
     atom    3 type  2   force =     0.00000000    0.00000000    0.00000000
     atom    4 type  2   force =     0.00000000    0.00000000    0.00000000
     atom    5 type  2   force =     0.00000000    0.00000000    0.00000000
     atom    6 type  2   force =     0.00000000    0.00000000    0.00000000
     atom    7 type  2   force =     0.00000000    0.00000000    0.00000000
     atom    8 type  2   force =     0.00000000    0.00000000    0.00000000
     atom    9 type  2   force =     0.00000000    0.00000000    0.00000000
     atom   10 type  2   force =     0.00000000    0.00000000    0.00000000
     The SCF correction term to forces
     atom    1 type  1   force =     0.00000000    0.00000000   -0.00000000
     atom    2 type  1   force =    -0.00000000   -0.00000000    0.00000000
     atom    3 type  2   force =    -0.00000002    0.00000002   -0.00000016
     atom    4 type  2   force =     0.00000002   -0.00000002    0.00000016
     atom    5 type  2   force =    -0.00000002   -0.00000002   -0.00000016
     atom    6 type  2   force =     0.00000002    0.00000002    0.00000016
     atom    7 type  2   force =     0.00000002   -0.00000002   -0.00000016
     atom    8 type  2   force =    -0.00000002    0.00000002    0.00000016
     atom    9 type  2   force =     0.00000002    0.00000002   -0.00000016
     atom   10 type  2   force =    -0.00000002   -0.00000002    0.00000016

     Total force =     0.000214     Total SCF correction =     0.000000


     Computing stress (Cartesian axis) and pressure

          total   stress  (Ry/bohr**3)                   (kbar)     P=      569.40
   0.00392448  -0.00000000  -0.00000000          577.31       -0.00       -0.00
  -0.00000000   0.00392448   0.00000000           -0.00      577.31        0.00
  -0.00000000   0.00000000   0.00376312           -0.00        0.00      553.57


     Writing all to output data dir ./output/SiLi.save/

     init_run     :      2.24s CPU      3.16s WALL (       2 calls)
     electrons    :    162.02s CPU    171.55s WALL (      18 calls)
     update_pot   :      5.73s CPU      5.84s WALL (      16 calls)
     forces       :      5.66s CPU      5.81s WALL (      18 calls)
     stress       :     33.37s CPU     34.47s WALL (      18 calls)

     Called by init_run:
     wfcinit      :      1.13s CPU      1.60s WALL (       2 calls)
     potinit      :      0.44s CPU      0.72s WALL (       2 calls)
     hinit0       :      0.58s CPU      0.71s WALL (       2 calls)

     Called by electrons:
     c_bands      :    142.36s CPU    150.18s WALL (     130 calls)
     sum_band     :     18.42s CPU     19.27s WALL (     130 calls)
     v_of_rho     :      1.27s CPU      2.16s WALL (     144 calls)
     mix_rho      :      0.10s CPU      0.17s WALL (     130 calls)

     Called by c_bands:
     init_us_2    :      2.86s CPU      3.20s WALL (   14006 calls)
     init_us_2:cp :      2.83s CPU      3.19s WALL (   14006 calls)
     cegterg      :    135.28s CPU    140.66s WALL (    6110 calls)

     Called by *egterg:
     cdiaghg      :     11.10s CPU     11.50s WALL (   24578 calls)
     h_psi        :    110.25s CPU    115.28s WALL (   25612 calls)
     g_psi        :      0.45s CPU      0.46s WALL (   19408 calls)

     Called by h_psi:
     h_psi:calbec :      9.07s CPU      9.44s WALL (   25612 calls)
     vloc_psi     :     93.45s CPU     97.88s WALL (   25612 calls)
     add_vuspsi   :      7.36s CPU      7.56s WALL (   25612 calls)

     General routines
     calbec       :     11.78s CPU     12.21s WALL (   29842 calls)
     fft          :      1.23s CPU      2.38s WALL (    1892 calls)
     ffts         :      0.05s CPU      0.09s WALL (     130 calls)
     fftw         :     97.33s CPU    101.78s WALL (  806810 calls)

     Parallel routines

     PWSCF        :   3m29.55s CPU   3m41.91s WALL


   This run was terminated on:  21:58: 8  29Dec2024            

=------------------------------------------------------------------------------=
   JOB DONE.
=------------------------------------------------------------------------------=
