
     Program PWSCF v.7.2 starts on 29Dec2024 at 19:59:52 

     This program is part of the open-source Quantum ESPRESSO suite
     for quantum simulation of materials; please cite
         "P. Giannozzi et al., J. Phys.:Condens. Matter 21 395502 (2009);
         "P. Giannozzi et al., J. Phys.:Condens. Matter 29 465901 (2017);
         "P. Giannozzi et al., J. Chem. Phys. 152 154105 (2020);
          URL http://www.quantum-espresso.org", 
     in publications or presentations arising from this work. More details at
     http://www.quantum-espresso.org/quote

     Parallel version (MPI & OpenMP), running on       8 processor cores
     Number of MPI processes:                 8
     Threads/MPI process:                     1

     MPI processes distributed on     1 nodes
     481847 MiB available memory on the printing compute node when the environment starts

     Waiting for input...
     Reading input from standard input

     Current dimensions of program PWSCF are:
     Max number of different atomic species (ntypx) = 10
     Max number of k-points (npk) =  40000
     Max angular momentum in pseudopotentials (lmaxx) =  4

     R & G space division:  proc/nbgrp/npool/nimage =       8
     Subspace diagonalization in iterative solution of the eigenvalue problem:
     a serial algorithm will be used


     Parallelization info
     --------------------
     sticks:   dense  smooth     PW     G-vecs:    dense   smooth      PW
     Min         187     187     54                 5507     5507     845
     Max         189     189     55                 5509     5509     846
     Sum        1505    1505    437                44059    44059    6763

     Using Slab Decomposition



     bravais-lattice index     =            1
     lattice parameter (alat)  =       7.7089  a.u.
     unit-cell volume          =     458.1245 (a.u.)^3
     number of atoms/cell      =            5
     number of atomic types    =            2
     number of electrons       =        16.00
     number of Kohn-Sham states=           12
     kinetic-energy cutoff     =      80.0000  Ry
     charge density cutoff     =     320.0000  Ry
     scf convergence threshold =      1.0E-08
     mixing beta               =       0.7000
     number of iterations used =            8  plain     mixing
     energy convergence thresh.=      1.0E-04
     force convergence thresh. =      1.0E-03
     press convergence thresh. =      1.0E+00
     Exchange-correlation= PBE
                           (   1   4   3   4   0   0   0)
     nstep                     =           50


     celldm(1)=   7.708937  celldm(2)=   0.000000  celldm(3)=   0.000000
     celldm(4)=   0.000000  celldm(5)=   0.000000  celldm(6)=   0.000000

     crystal axes: (cart. coord. in units of alat)
               a(1) = (   1.000000   0.000000   0.000000 )  
               a(2) = (   0.000000   1.000000   0.000000 )  
               a(3) = (   0.000000   0.000000   1.000000 )  

     reciprocal axes: (cart. coord. in units 2 pi/alat)
               b(1) = (  1.000000  0.000000  0.000000 )  
               b(2) = (  0.000000  1.000000  0.000000 )  
               b(3) = (  0.000000  0.000000  1.000000 )  


     PseudoPot. # 1 for Si read from file:
     ../pseudo/Si_ONCV_PBE_sr.upf
     MD5 check sum: e543d271109d17c80368dfa7c482276d
     Pseudo is Norm-conserving + core correction, Zval =  4.0
     Generated using ONCVPSP code by D. R. Hamann
     Using radial grid of 1510 points,  6 beta functions with: 
                l(1) =   0
                l(2) =   0
                l(3) =   1
                l(4) =   1
                l(5) =   2
                l(6) =   2

     PseudoPot. # 2 for Li read from file:
     ../pseudo/Li_ONCV_PBE_sr.upf
     MD5 check sum: 50ff420e78310ffa21704f3361e624a4
     Pseudo is Norm-conserving, Zval =  3.0
     Generated using ONCVPSP code by D. R. Hamann
     Using radial grid of 1944 points,  4 beta functions with: 
                l(1) =   0
                l(2) =   0
                l(3) =   1
                l(4) =   1

     atomic species   valence    mass     pseudopotential
        Si             4.00    28.08550     Si( 1.00)
        Li             3.00     6.94100     Li( 1.00)

     24 Sym. Ops. (no inversion) found



   Cartesian axes

     site n.     atom                  positions (alat units)
         1           Si  tau(   1) = (   0.0000000   0.0000000   0.0000000  )
         2           Li  tau(   2) = (   0.2598713   0.2598713   0.2598713  )
         3           Li  tau(   3) = (   0.2598713   0.7401287   0.7401287  )
         4           Li  tau(   4) = (   0.7401287   0.7401287   0.2598713  )
         5           Li  tau(   5) = (   0.7401287   0.2598713   0.7401287  )

     number of k points=    20  Marzari-Vanderbilt smearing, width (Ry)=  0.0200
                       cart. coord. in units 2pi/alat
        k(    1) = (   0.0000000   0.0000000   0.0000000), wk =   0.0058309
        k(    2) = (   0.0000000   0.0000000   0.1428571), wk =   0.0349854
        k(    3) = (   0.0000000   0.0000000   0.2857143), wk =   0.0349854
        k(    4) = (   0.0000000   0.0000000   0.4285714), wk =   0.0349854
        k(    5) = (   0.0000000   0.1428571   0.1428571), wk =   0.0699708
        k(    6) = (   0.0000000   0.1428571   0.2857143), wk =   0.1399417
        k(    7) = (   0.0000000   0.1428571   0.4285714), wk =   0.1399417
        k(    8) = (   0.0000000   0.2857143   0.2857143), wk =   0.0699708
        k(    9) = (   0.0000000   0.2857143   0.4285714), wk =   0.1399417
        k(   10) = (   0.0000000   0.4285714   0.4285714), wk =   0.0699708
        k(   11) = (   0.1428571   0.1428571   0.1428571), wk =   0.0466472
        k(   12) = (   0.1428571   0.1428571   0.2857143), wk =   0.1399417
        k(   13) = (   0.1428571   0.1428571   0.4285714), wk =   0.1399417
        k(   14) = (   0.1428571   0.2857143   0.2857143), wk =   0.1399417
        k(   15) = (   0.1428571   0.2857143   0.4285714), wk =   0.2798834
        k(   16) = (   0.1428571   0.4285714   0.4285714), wk =   0.1399417
        k(   17) = (   0.2857143   0.2857143   0.2857143), wk =   0.0466472
        k(   18) = (   0.2857143   0.2857143   0.4285714), wk =   0.1399417
        k(   19) = (   0.2857143   0.4285714   0.4285714), wk =   0.1399417
        k(   20) = (   0.4285714   0.4285714   0.4285714), wk =   0.0466472

     Dense  grid:    44059 G-vectors     FFT dimensions: (  45,  45,  45)

     Estimated max dynamical RAM per process >      18.51 MB

     Estimated total dynamical RAM >     148.10 MB

     Initial potential from superposition of free atoms

     starting charge      15.9811, renormalised to      16.0000
     Starting wfcs are   12 randomized atomic wfcs

     total cpu time spent up to now is        0.9 secs

     Self-consistent Calculation

     iteration #  1     ecut=    80.00 Ry     beta= 0.70
     Davidson diagonalization with overlap
     ethr =  1.00E-02,  avg # of iterations =  6.8

     total cpu time spent up to now is        1.8 secs

     total energy              =     -65.55499219 Ry
     estimated scf accuracy    <       0.36666367 Ry

     iteration #  2     ecut=    80.00 Ry     beta= 0.70
     Davidson diagonalization with overlap
     ethr =  2.29E-03,  avg # of iterations =  2.0

     total cpu time spent up to now is        2.2 secs

     total energy              =     -65.64886692 Ry
     estimated scf accuracy    <       0.41068620 Ry

     iteration #  3     ecut=    80.00 Ry     beta= 0.70
     Davidson diagonalization with overlap
     ethr =  2.29E-03,  avg # of iterations =  1.8

     total cpu time spent up to now is        2.6 secs

     total energy              =     -65.71213721 Ry
     estimated scf accuracy    <       0.00109457 Ry

     iteration #  4     ecut=    80.00 Ry     beta= 0.70
     Davidson diagonalization with overlap
     ethr =  6.84E-06,  avg # of iterations =  6.0

     total cpu time spent up to now is        3.0 secs

     total energy              =     -65.71294350 Ry
     estimated scf accuracy    <       0.00029237 Ry

     iteration #  5     ecut=    80.00 Ry     beta= 0.70
     Davidson diagonalization with overlap
     ethr =  1.83E-06,  avg # of iterations =  2.1

     total cpu time spent up to now is        3.4 secs

     total energy              =     -65.71297505 Ry
     estimated scf accuracy    <       0.00000986 Ry

     iteration #  6     ecut=    80.00 Ry     beta= 0.70
     Davidson diagonalization with overlap
     ethr =  6.16E-08,  avg # of iterations =  2.2

     total cpu time spent up to now is        3.7 secs

     total energy              =     -65.71297733 Ry
     estimated scf accuracy    <       0.00000003 Ry

     iteration #  7     ecut=    80.00 Ry     beta= 0.70
     Davidson diagonalization with overlap
     ethr =  2.18E-10,  avg # of iterations =  4.2

     total cpu time spent up to now is        4.1 secs

     total energy              =     -65.71297737 Ry
     estimated scf accuracy    <       0.00000002 Ry

     iteration #  8     ecut=    80.00 Ry     beta= 0.70
     Davidson diagonalization with overlap
     ethr =  1.45E-10,  avg # of iterations =  2.0

     total cpu time spent up to now is        4.4 secs

     End of self-consistent calculation

          k = 0.0000 0.0000 0.0000 (  5497 PWs)   bands (ev):

   -42.6007 -42.5462 -42.5462 -42.5462  -4.2041   2.7109   4.1835   4.1835
     4.1835   4.5316   4.5316  10.5183

          k = 0.0000 0.0000 0.1429 (  5522 PWs)   bands (ev):

   -42.5980 -42.5488 -42.5461 -42.5461  -4.1305   2.1946   3.5140   4.1709
     4.1709   4.7049   5.8461  10.0385

          k = 0.0000 0.0000 0.2857 (  5546 PWs)   bands (ev):

   -42.5904 -42.5562 -42.5461 -42.5461  -3.9446   1.1059   3.8037   4.1416
     4.1416   5.2136   6.2303   9.2205

          k = 0.0000 0.0000 0.4286 (  5518 PWs)   bands (ev):

   -42.5798 -42.5667 -42.5460 -42.5460  -3.7669   0.4106   4.1173   4.1173
     4.4828   5.4221   5.9588   7.7674

          k = 0.0000 0.1429 0.1429 (  5529 PWs)   bands (ev):

   -42.5954 -42.5489 -42.5484 -42.5462  -4.0570   2.0977   2.7381   4.0147
     4.1855   5.5755   6.2612   9.6173

          k = 0.0000 0.1429 0.2857 (  5535 PWs)   bands (ev):

   -42.5882 -42.5557 -42.5482 -42.5465  -3.8711   1.1826   2.6927   3.9156
     4.4926   5.8645   6.7527   8.7429

          k = 0.0000 0.1429 0.4286 (  5525 PWs)   bands (ev):

   -42.5781 -42.5657 -42.5476 -42.5470  -3.6937   0.4937   2.9445   3.7311
     5.0149   5.7358   6.8414   7.6223

          k = 0.0000 0.2857 0.2857 (  5506 PWs)   bands (ev):

   -42.5821 -42.5551 -42.5533 -42.5478  -3.6859   1.2816   1.6153   3.4898
     4.9742   6.0677   7.5152   8.3976

          k = 0.0000 0.2857 0.4286 (  5523 PWs)   bands (ev):

   -42.5735 -42.5628 -42.5520 -42.5497  -3.5096   0.7247   1.7287   3.0792
     5.5704   6.0912   7.1635   8.2362

          k = 0.0000 0.4286 0.4286 (  5522 PWs)   bands (ev):

   -42.5671 -42.5597 -42.5573 -42.5537  -3.3349   0.9762   1.0403   2.5399
     5.9368   6.5753   7.4786   7.7071

          k = 0.1429 0.1429 0.1429 (  5515 PWs)   bands (ev):

   -42.5930 -42.5492 -42.5483 -42.5483  -3.9836   2.0425   2.7988   2.7988
     4.8416   6.3116   6.3116   9.7030

          k = 0.1429 0.1429 0.2857 (  5530 PWs)   bands (ev):

   -42.5861 -42.5553 -42.5487 -42.5483  -3.7984   1.2506   2.5650   2.9434
     4.9283   6.4740   6.8524   8.6068

          k = 0.1429 0.1429 0.4286 (  5549 PWs)   bands (ev):

   -42.5766 -42.5648 -42.5487 -42.5482  -3.6217   0.5722   2.7225   3.0687
     4.9071   6.6273   6.7393   7.8414

          k = 0.1429 0.2857 0.2857 (  5532 PWs)   bands (ev):

   -42.5804 -42.5551 -42.5533 -42.5494  -3.6150   1.3234   1.6682   2.7676
     5.0260   6.5819   7.2390   8.5555

          k = 0.1429 0.2857 0.4286 (  5534 PWs)   bands (ev):

   -42.5724 -42.5623 -42.5526 -42.5507  -3.4409   0.7889   1.7365   2.6610
     5.0732   6.6023   7.0431   8.4746

          k = 0.1429 0.4286 0.4286 (  5528 PWs)   bands (ev):

   -42.5666 -42.5596 -42.5572 -42.5542  -3.2700   1.0202   1.0864   2.3157
     5.2708   6.7957   7.0609   8.0738

          k = 0.2857 0.2857 0.2857 (  5548 PWs)   bands (ev):

   -42.5757 -42.5557 -42.5532 -42.5532  -3.4372   1.3578   1.7974   1.7974
     5.0839   6.6497   6.6497   9.0258

          k = 0.2857 0.2857 0.4286 (  5559 PWs)   bands (ev):

   -42.5693 -42.5608 -42.5544 -42.5531  -3.2694   0.9603   1.6479   1.9137
     5.0121   6.2136   6.7248   8.3132

          k = 0.2857 0.4286 0.4286 (  5558 PWs)   bands (ev):

   -42.5654 -42.5593 -42.5572 -42.5554  -3.1090   1.1266   1.1983   1.7541
     5.0494   6.2007   6.3315   7.3930

          k = 0.4286 0.4286 0.4286 (  5562 PWs)   bands (ev):

   -42.5642 -42.5587 -42.5571 -42.5571  -2.9602   1.2133   1.2983   1.2983
     5.2413   5.8506   5.8506   6.5015

     the Fermi energy is     4.1842 ev

!    total energy              =     -65.71297738 Ry
     estimated scf accuracy    <          7.2E-10 Ry
     smearing contrib. (-TS)   =      -0.00022033 Ry
     internal energy E=F+TS    =     -65.71275705 Ry

     The total energy is F=E-TS. E is the sum of the following terms:
     one-electron contribution =     -32.80075677 Ry
     hartree contribution      =      14.55593253 Ry
     xc contribution           =     -16.89289804 Ry
     ewald contribution        =     -30.57503478 Ry

     convergence has been achieved in   8 iterations

     Forces acting on atoms (cartesian axes, Ry/au):

     atom    1 type  1   force =     0.00000000    0.00000000    0.00000000
     atom    2 type  2   force =     0.10444503    0.10444503    0.10444503
     atom    3 type  2   force =     0.10444503   -0.10444503   -0.10444503
     atom    4 type  2   force =    -0.10444503   -0.10444503    0.10444503
     atom    5 type  2   force =    -0.10444503    0.10444503   -0.10444503
     The non-local contrib.  to forces
     atom    1 type  1   force =     0.00000000    0.00000000    0.00000000
     atom    2 type  2   force =     0.02867847    0.02867847    0.02867847
     atom    3 type  2   force =     0.02867847   -0.02867847   -0.02867847
     atom    4 type  2   force =    -0.02867847   -0.02867847    0.02867847
     atom    5 type  2   force =    -0.02867847    0.02867847   -0.02867847
     The ionic contribution  to forces
     atom    1 type  1   force =    -0.00000000   -0.00000000   -0.00000000
     atom    2 type  2   force =     0.75450463    0.75450463    0.75450463
     atom    3 type  2   force =     0.75450463   -0.75450463   -0.75450463
     atom    4 type  2   force =    -0.75450463   -0.75450463    0.75450463
     atom    5 type  2   force =    -0.75450463    0.75450463   -0.75450463
     The local contribution  to forces
     atom    1 type  1   force =     0.00000000    0.00000000    0.00000000
     atom    2 type  2   force =    -0.67874873   -0.67874873   -0.67874873
     atom    3 type  2   force =    -0.67874873    0.67874873    0.67874873
     atom    4 type  2   force =     0.67874873    0.67874873   -0.67874873
     atom    5 type  2   force =     0.67874873   -0.67874873    0.67874873
     The core correction contribution to forces
     atom    1 type  1   force =     0.00000000    0.00000000    0.00000000
     atom    2 type  2   force =     0.00000000    0.00000000    0.00000000
     atom    3 type  2   force =     0.00000000    0.00000000    0.00000000
     atom    4 type  2   force =     0.00000000    0.00000000    0.00000000
     atom    5 type  2   force =     0.00000000    0.00000000    0.00000000
     The Hubbard contrib.    to forces
     atom    1 type  1   force =     0.00000000    0.00000000    0.00000000
     atom    2 type  2   force =     0.00000000    0.00000000    0.00000000
     atom    3 type  2   force =     0.00000000    0.00000000    0.00000000
     atom    4 type  2   force =     0.00000000    0.00000000    0.00000000
     atom    5 type  2   force =     0.00000000    0.00000000    0.00000000
     The SCF correction term to forces
     atom    1 type  1   force =     0.00000000   -0.00000000   -0.00000000
     atom    2 type  2   force =     0.00001065    0.00001065    0.00001065
     atom    3 type  2   force =     0.00001065   -0.00001065   -0.00001065
     atom    4 type  2   force =    -0.00001065   -0.00001065    0.00001065
     atom    5 type  2   force =    -0.00001065    0.00001065   -0.00001065

     Total force =     0.361808     Total SCF correction =     0.000037


     Computing stress (Cartesian axis) and pressure

          total   stress  (Ry/bohr**3)                   (kbar)     P=      269.74
   0.00183367   0.00000000   0.00000000          269.74        0.00        0.00
   0.00000000   0.00183367   0.00000000            0.00      269.74        0.00
   0.00000000   0.00000000   0.00183367            0.00        0.00      269.74


     BFGS Geometry Optimization
     Energy error            =      0.0E+00 Ry
     Gradient error          =      1.0E-01 Ry/Bohr
     Cell gradient error     =      2.3E+02 kbar

     number of scf cycles    =   1
     number of bfgs steps    =   0

     enthalpy           new  =     -64.1558437042 Ry

     new trust radius        =       0.1809040998 bohr
ibrav =      1
 celldm(1) =      7.40727494
Input lattice vectors:
     0.96086848     0.00000000     0.00000000
     0.00000000     0.96086848     0.00000000
     0.00000000     0.00000000     0.96086848
New lattice vectors in INITIAL alat:
     0.96086848     0.00000000     0.00000000
     0.00000000     0.96086848     0.00000000
     0.00000000     0.00000000     0.96086848
New lattice vectors in NEW alat (for information only):
     1.00000000     0.00000000     0.00000000
     0.00000000     1.00000000     0.00000000
     0.00000000     0.00000000     1.00000000
Discrepancy in bohr =     0.000000    0.000000    0.000000
     new conv_thr            =       0.0000000100 Ry

     new unit-cell volume =    406.42030 a.u.^3 (    60.22528 Ang^3 )
     density =      1.53989 g/cm^3

CELL_PARAMETERS (alat=  7.70893741)
   0.960868477   0.000000000   0.000000000
   0.000000000   0.960868477   0.000000000
   0.000000000   0.000000000   0.960868477

ATOMIC_POSITIONS (crystal)
Si            0.0000000000        0.0000000000        0.0000000000
Li            0.2734198939        0.2734198939        0.2734198939
Li            0.2734198939        0.7265801061        0.7265801061
Li            0.7265801061        0.7265801061        0.2734198939
Li            0.7265801061        0.2734198939        0.7265801061



     Writing config-only to output data dir ./output/SiLi.save/
     NEW-OLD atomic charge density approx. for the potential

     negative rho (up, down):  1.166E-06 0.000E+00
     extrapolated charge   13.96690, renormalised to   16.00000

     total cpu time spent up to now is        6.1 secs

     Self-consistent Calculation

     iteration #  1     ecut=    80.00 Ry     beta= 0.70
     Davidson diagonalization with overlap
     ethr =  1.00E-06,  avg # of iterations =  9.4

     total cpu time spent up to now is        6.9 secs

     total energy              =     -65.65886701 Ry
     estimated scf accuracy    <       0.05202776 Ry

     iteration #  2     ecut=    80.00 Ry     beta= 0.70
     Davidson diagonalization with overlap
     ethr =  3.25E-04,  avg # of iterations =  2.5

     total cpu time spent up to now is        7.3 secs

     total energy              =     -65.72133223 Ry
     estimated scf accuracy    <       0.11647291 Ry

     iteration #  3     ecut=    80.00 Ry     beta= 0.70
     Davidson diagonalization with overlap
     ethr =  3.25E-04,  avg # of iterations =  1.8

     total cpu time spent up to now is        7.6 secs

     total energy              =     -65.72703663 Ry
     estimated scf accuracy    <       0.01171742 Ry

     iteration #  4     ecut=    80.00 Ry     beta= 0.70
     Davidson diagonalization with overlap
     ethr =  7.32E-05,  avg # of iterations =  1.4

     total cpu time spent up to now is        7.9 secs

     total energy              =     -65.72741999 Ry
     estimated scf accuracy    <       0.00112391 Ry

     iteration #  5     ecut=    80.00 Ry     beta= 0.70
     Davidson diagonalization with overlap
     ethr =  7.02E-06,  avg # of iterations =  2.6

     total cpu time spent up to now is        8.2 secs

     total energy              =     -65.72765233 Ry
     estimated scf accuracy    <       0.00001282 Ry

     iteration #  6     ecut=    80.00 Ry     beta= 0.70
     Davidson diagonalization with overlap
     ethr =  8.02E-08,  avg # of iterations =  2.9

     total cpu time spent up to now is        8.6 secs

     total energy              =     -65.72765742 Ry
     estimated scf accuracy    <       0.00000050 Ry

     iteration #  7     ecut=    80.00 Ry     beta= 0.70
     Davidson diagonalization with overlap
     ethr =  3.13E-09,  avg # of iterations =  2.1

     total cpu time spent up to now is        9.0 secs

     total energy              =     -65.72765757 Ry
     estimated scf accuracy    <       0.00000026 Ry

     iteration #  8     ecut=    80.00 Ry     beta= 0.70
     Davidson diagonalization with overlap
     ethr =  1.60E-09,  avg # of iterations =  1.9

     total cpu time spent up to now is        9.3 secs

     End of self-consistent calculation

          k = 0.0000 0.0000 0.0000 (  5497 PWs)   bands (ev):

   -41.6833 -41.5876 -41.5876 -41.5876  -3.6451   3.7205   5.1953   5.1953
     5.1953   5.2759   5.2759  11.7602

          k = 0.0000 0.0000 0.1487 (  5522 PWs)   bands (ev):

   -41.6792 -41.5916 -41.5876 -41.5876  -3.5582   3.0701   4.3705   5.1830
     5.1830   5.4678   6.8722  11.2579

          k = 0.0000 0.0000 0.2974 (  5546 PWs)   bands (ev):

   -41.6683 -41.6022 -41.5874 -41.5874  -3.3354   1.8007   4.7027   5.1536
     5.1536   6.0364   7.2889  10.2774

          k = 0.0000 0.0000 0.4460 (  5518 PWs)   bands (ev):

   -41.6558 -41.6145 -41.5873 -41.5873  -3.1164   1.0074   5.1284   5.1284
     5.3722   6.4683   6.9126   8.6293

          k = 0.0000 0.1487 0.1487 (  5529 PWs)   bands (ev):

   -41.6753 -41.5918 -41.5909 -41.5877  -3.4708   3.0043   3.4689   4.8882
     5.1713   6.5478   7.3447  10.7729

          k = 0.0000 0.1487 0.2974 (  5535 PWs)   bands (ev):

   -41.6649 -41.6015 -41.5907 -41.5880  -3.2465   1.8840   3.5030   4.8379
     5.4389   6.8357   7.8952   9.7686

          k = 0.0000 0.1487 0.4460 (  5525 PWs)   bands (ev):

   -41.6530 -41.6132 -41.5900 -41.5885  -3.0259   1.0907   3.7990   4.6114
     5.9911   6.7960   7.8518   8.6516

          k = 0.0000 0.2974 0.2974 (  5506 PWs)   bands (ev):

   -41.6559 -41.6007 -41.5983 -41.5897  -3.0183   2.0305   2.2430   4.3344
     5.9529   7.0852   8.6627   9.3923

          k = 0.0000 0.2974 0.4460 (  5523 PWs)   bands (ev):

   -41.6457 -41.6096 -41.5970 -41.5918  -2.7933   1.3221   2.4246   3.8626
     6.6462   7.1438   8.0484   9.4396

          k = 0.0000 0.4460 0.4460 (  5522 PWs)   bands (ev):

   -41.6377 -41.6056 -41.6043 -41.5961  -2.5636   1.5794   1.6182   3.2780
     7.0701   7.6254   8.5053   8.7771

          k = 0.1487 0.1487 0.1487 (  5515 PWs)   bands (ev):

   -41.6716 -41.5921 -41.5909 -41.5909  -3.3832   2.9615   3.5445   3.5445
     5.8352   7.3782   7.3782  10.6129

          k = 0.1487 0.1487 0.2974 (  5530 PWs)   bands (ev):

   -41.6617 -41.6010 -41.5914 -41.5907  -3.1581   1.9582   3.3794   3.7285
     5.8863   7.4703   7.9999   9.6835

          k = 0.1487 0.1487 0.4460 (  5549 PWs)   bands (ev):

   -41.6504 -41.6120 -41.5913 -41.5906  -2.9367   1.1697   3.5506   3.8936
     5.8145   7.5831   7.8368   9.0450

          k = 0.1487 0.2974 0.2974 (  5532 PWs)   bands (ev):

   -41.6532 -41.6007 -41.5983 -41.5922  -2.9312   2.0691   2.3043   3.5504
     5.9753   7.5420   8.2729   9.7059

          k = 0.1487 0.2974 0.4460 (  5534 PWs)   bands (ev):

   -41.6437 -41.6089 -41.5976 -41.5937  -2.7077   1.3879   2.4311   3.4242
     6.0429   7.4294   8.1170   9.6944

          k = 0.1487 0.4460 0.4460 (  5528 PWs)   bands (ev):

   -41.6363 -41.6055 -41.6042 -41.5973  -2.4823   1.6252   1.6697   3.0393
     6.3134   7.6604   8.0059   9.0367

          k = 0.2974 0.2974 0.2974 (  5548 PWs)   bands (ev):

   -41.6461 -41.6014 -41.5981 -41.5981  -2.7080   2.0952   2.4556   2.4556
     6.0362   7.5167   7.5167  10.0175

          k = 0.2974 0.2974 0.4460 (  5559 PWs)   bands (ev):

   -41.6383 -41.6072 -41.5997 -41.5980  -2.4892   1.5638   2.3329   2.5943
     5.9528   6.9874   7.6435   9.1804

          k = 0.2974 0.4460 0.4460 (  5558 PWs)   bands (ev):

   -41.6327 -41.6053 -41.6041 -41.6006  -2.2765   1.7363   1.7955   2.4256
     6.0004   6.9973   7.1633   8.1766

          k = 0.4460 0.4460 0.4460 (  5562 PWs)   bands (ev):

   -41.6292 -41.6052 -41.6040 -41.6040  -2.0790   1.8251   1.9091   1.9091
     6.1463   6.6172   6.6172   7.2821

     the Fermi energy is     5.1652 ev

!    total energy              =     -65.72765762 Ry
     estimated scf accuracy    <          1.1E-09 Ry
     smearing contrib. (-TS)   =      -0.00024399 Ry
     internal energy E=F+TS    =     -65.72741363 Ry

     The total energy is F=E-TS. E is the sum of the following terms:
     one-electron contribution =     -29.64551437 Ry
     hartree contribution      =      13.51710159 Ry
     xc contribution           =     -16.96576014 Ry
     ewald contribution        =     -32.63324071 Ry

     convergence has been achieved in   8 iterations

     Forces acting on atoms (cartesian axes, Ry/au):

     atom    1 type  1   force =     0.00000000    0.00000000    0.00000000
     atom    2 type  2   force =     0.08371715    0.08371715    0.08371715
     atom    3 type  2   force =     0.08371715   -0.08371715   -0.08371715
     atom    4 type  2   force =    -0.08371715   -0.08371715    0.08371715
     atom    5 type  2   force =    -0.08371715    0.08371715   -0.08371715
     The non-local contrib.  to forces
     atom    1 type  1   force =     0.00000000    0.00000000    0.00000000
     atom    2 type  2   force =     0.01710896    0.01710896    0.01710896
     atom    3 type  2   force =     0.01710896   -0.01710896   -0.01710896
     atom    4 type  2   force =    -0.01710896   -0.01710896    0.01710896
     atom    5 type  2   force =    -0.01710896    0.01710896   -0.01710896
     The ionic contribution  to forces
     atom    1 type  1   force =     0.00000000   -0.00000000    0.00000000
     atom    2 type  2   force =     0.53425881    0.53425881    0.53425881
     atom    3 type  2   force =     0.53425881   -0.53425881   -0.53425881
     atom    4 type  2   force =    -0.53425881   -0.53425881    0.53425881
     atom    5 type  2   force =    -0.53425881    0.53425881   -0.53425881
     The local contribution  to forces
     atom    1 type  1   force =    -0.00000000    0.00000000    0.00000000
     atom    2 type  2   force =    -0.46766297   -0.46766297   -0.46766297
     atom    3 type  2   force =    -0.46766297    0.46766297    0.46766297
     atom    4 type  2   force =     0.46766297    0.46766297   -0.46766297
     atom    5 type  2   force =     0.46766297   -0.46766297    0.46766297
     The core correction contribution to forces
     atom    1 type  1   force =     0.00000000    0.00000000    0.00000000
     atom    2 type  2   force =     0.00000000    0.00000000    0.00000000
     atom    3 type  2   force =     0.00000000    0.00000000    0.00000000
     atom    4 type  2   force =     0.00000000    0.00000000    0.00000000
     atom    5 type  2   force =     0.00000000    0.00000000    0.00000000
     The Hubbard contrib.    to forces
     atom    1 type  1   force =     0.00000000    0.00000000    0.00000000
     atom    2 type  2   force =     0.00000000    0.00000000    0.00000000
     atom    3 type  2   force =     0.00000000    0.00000000    0.00000000
     atom    4 type  2   force =     0.00000000    0.00000000    0.00000000
     atom    5 type  2   force =     0.00000000    0.00000000    0.00000000
     The SCF correction term to forces
     atom    1 type  1   force =    -0.00000000   -0.00000000   -0.00000000
     atom    2 type  2   force =     0.00001235    0.00001235    0.00001235
     atom    3 type  2   force =     0.00001235   -0.00001235   -0.00001235
     atom    4 type  2   force =    -0.00001235   -0.00001235    0.00001235
     atom    5 type  2   force =    -0.00001235    0.00001235   -0.00001235

     Total force =     0.290005     Total SCF correction =     0.000043


     Computing stress (Cartesian axis) and pressure

          total   stress  (Ry/bohr**3)                   (kbar)     P=      312.55
   0.00212467   0.00000000   0.00000000          312.55        0.00        0.00
   0.00000000   0.00212467   0.00000000            0.00      312.55        0.00
   0.00000000   0.00000000   0.00212467            0.00        0.00      312.55

     Energy error            =      1.9E-01 Ry
     Gradient error          =      8.4E-02 Ry/Bohr
     Cell gradient error     =      1.9E+02 kbar

     number of scf cycles    =   2
     number of bfgs steps    =   1

     enthalpy           old  =     -64.1558437042 Ry
     enthalpy           new  =     -64.3462630886 Ry

     CASE: enthalpy          _new < enthalpy          _old

     new trust radius        =       0.2607375701 bohr
ibrav =      1
 celldm(1) =      6.96567922
Input lattice vectors:
     0.90358487     0.00000000     0.00000000
     0.00000000     0.90358487     0.00000000
     0.00000000     0.00000000     0.90358487
New lattice vectors in INITIAL alat:
     0.90358487     0.00000000     0.00000000
     0.00000000     0.90358487     0.00000000
     0.00000000     0.00000000     0.90358487
New lattice vectors in NEW alat (for information only):
     1.00000000     0.00000000     0.00000000
     0.00000000     1.00000000     0.00000000
     0.00000000     0.00000000     1.00000000
Discrepancy in bohr =     0.000000    0.000000    0.000000
     new conv_thr            =       0.0000000084 Ry

     new unit-cell volume =    337.97954 a.u.^3 (    50.08340 Ang^3 )
     density =      1.85172 g/cm^3

CELL_PARAMETERS (alat=  7.70893741)
   0.903584872   0.000000000   0.000000000
   0.000000000   0.903584872   0.000000000
   0.000000000   0.000000000   0.903584872

ATOMIC_POSITIONS (crystal)
Si            0.0000000000        0.0000000000        0.0000000000
Li            0.2937427396        0.2937427396        0.2937427396
Li            0.2937427396        0.7062572604        0.7062572604
Li            0.7062572604        0.7062572604        0.2937427396
Li            0.7062572604        0.2937427396        0.7062572604



     Writing config-only to output data dir ./output/SiLi.save/
     NEW-OLD atomic charge density approx. for the potential

     negative rho (up, down):  1.635E-05 0.000E+00
     extrapolated charge   12.76382, renormalised to   16.00000

     total cpu time spent up to now is       11.0 secs

     Self-consistent Calculation

     iteration #  1     ecut=    80.00 Ry     beta= 0.70
     Davidson diagonalization with overlap
     ethr =  1.00E-06,  avg # of iterations =  9.7

     total cpu time spent up to now is       11.9 secs

     total energy              =     -65.56222390 Ry
     estimated scf accuracy    <       0.17133695 Ry

     iteration #  2     ecut=    80.00 Ry     beta= 0.70
     Davidson diagonalization with overlap
     ethr =  1.07E-03,  avg # of iterations =  2.1

     total cpu time spent up to now is       12.2 secs

     total energy              =     -65.66713244 Ry
     estimated scf accuracy    <       0.02963456 Ry

     iteration #  3     ecut=    80.00 Ry     beta= 0.70
     Davidson diagonalization with overlap
     ethr =  1.85E-04,  avg # of iterations =  1.1

     total cpu time spent up to now is       12.5 secs

     total energy              =     -65.66741478 Ry
     estimated scf accuracy    <       0.00242510 Ry

     iteration #  4     ecut=    80.00 Ry     beta= 0.70
     Davidson diagonalization with overlap
     ethr =  1.52E-05,  avg # of iterations =  2.2

     total cpu time spent up to now is       12.9 secs

     total energy              =     -65.66762204 Ry
     estimated scf accuracy    <       0.00101497 Ry

     iteration #  5     ecut=    80.00 Ry     beta= 0.70
     Davidson diagonalization with overlap
     ethr =  6.34E-06,  avg # of iterations =  1.8

     total cpu time spent up to now is       13.2 secs

     total energy              =     -65.66779650 Ry
     estimated scf accuracy    <       0.00000358 Ry

     iteration #  6     ecut=    80.00 Ry     beta= 0.70
     Davidson diagonalization with overlap
     ethr =  2.23E-08,  avg # of iterations =  3.5

     total cpu time spent up to now is       13.6 secs

     total energy              =     -65.66779844 Ry
     estimated scf accuracy    <       0.00000024 Ry

     iteration #  7     ecut=    80.00 Ry     beta= 0.70
     Davidson diagonalization with overlap
     ethr =  1.48E-09,  avg # of iterations =  2.0

     total cpu time spent up to now is       13.9 secs

     total energy              =     -65.66779848 Ry
     estimated scf accuracy    <       0.00000001 Ry

     iteration #  8     ecut=    80.00 Ry     beta= 0.70
     Davidson diagonalization with overlap
     ethr =  6.69E-11,  avg # of iterations =  2.0

     total cpu time spent up to now is       14.2 secs

     End of self-consistent calculation

          k = 0.0000 0.0000 0.0000 (  5497 PWs)   bands (ev):

   -40.3354 -40.0694 -40.0694 -40.0694  -2.6498   5.7330   6.5981   6.5981
     6.9683   6.9683   6.9683  13.8087

          k = 0.0000 0.0000 0.1581 (  5522 PWs)   bands (ev):

   -40.3285 -40.0761 -40.0693 -40.0693  -2.5429   4.6462   6.0606   6.8196
     6.9555   6.9555   8.7023  13.2870

          k = 0.0000 0.0000 0.3162 (  5546 PWs)   bands (ev):

   -40.3114 -40.0928 -40.0690 -40.0690  -2.2645   3.0957   6.4320   6.9234
     6.9234   7.4814   9.1920  12.1818

          k = 0.0000 0.0000 0.4743 (  5518 PWs)   bands (ev):

   -40.2955 -40.1084 -40.0687 -40.0687  -1.9816   2.1586   6.8944   6.8944
     7.0119   8.4136   8.5589  10.2243

          k = 0.0000 0.1581 0.1581 (  5529 PWs)   bands (ev):

   -40.3218 -40.0764 -40.0751 -40.0694  -2.4345   4.7392   4.7430   6.4582
     6.9220   8.2953   9.2756  12.7107

          k = 0.0000 0.1581 0.3162 (  5535 PWs)   bands (ev):

   -40.3053 -40.0919 -40.0748 -40.0696  -2.1511   3.1793   5.0022   6.4607
     7.1474   8.5829   9.9240  11.5872

          k = 0.0000 0.1581 0.4743 (  5525 PWs)   bands (ev):

   -40.2901 -40.1068 -40.0739 -40.0700  -1.8616   2.2339   5.3256   6.1861
     7.7642   8.6715   9.5138  10.6626

          k = 0.0000 0.3162 0.3162 (  5506 PWs)   bands (ev):

   -40.2905 -40.0907 -40.0879 -40.0714  -1.8524   3.3523   3.4750   5.8640
     7.6745   8.9347  10.6492  11.1422

          k = 0.0000 0.3162 0.4743 (  5523 PWs)   bands (ev):

   -40.2768 -40.1028 -40.0868 -40.0733  -1.5426   2.4376   3.6867   5.3426
     8.5096   8.9622   9.6954  11.4931

          k = 0.0000 0.4743 0.4743 (  5522 PWs)   bands (ev):

   -40.2647 -40.0990 -40.0982 -40.0768  -1.2047   2.6466   2.6819   4.7508
     8.9189   9.4176  10.2806  10.7782

          k = 0.1581 0.1581 0.1581 (  5515 PWs)   bands (ev):

   -40.3154 -40.0769 -40.0750 -40.0750  -2.3248   4.7729   4.8436   4.8436
     7.6158   9.2681   9.2681  12.4559

          k = 0.1581 0.1581 0.3162 (  5530 PWs)   bands (ev):

   -40.2995 -40.0912 -40.0758 -40.0747  -2.0376   3.2562   4.9310   5.0961
     7.6392   9.1891  10.0229  11.6255

          k = 0.1581 0.1581 0.4743 (  5549 PWs)   bands (ev):

   -40.2849 -40.1055 -40.0755 -40.0744  -1.7429   2.3068   5.0638   5.3353
     7.5374   9.0277   9.9544  11.2325

          k = 0.1581 0.3162 0.3162 (  5532 PWs)   bands (ev):

   -40.2853 -40.0906 -40.0878 -40.0763  -1.7384   3.4281   3.4993   4.9654
     7.7355   9.1853  10.0477  11.7762

          k = 0.1581 0.3162 0.4743 (  5534 PWs)   bands (ev):

   -40.2722 -40.1020 -40.0872 -40.0776  -1.4274   2.5029   3.6938   4.8278
     7.8656   8.8356   9.9676  11.7638

          k = 0.1581 0.4743 0.4743 (  5528 PWs)   bands (ev):

   -40.2607 -40.0988 -40.0980 -40.0805  -1.0938   2.7073   2.7306   4.4414
     8.2182   9.1221   9.6426  10.7210

          k = 0.3162 0.3162 0.3162 (  5548 PWs)   bands (ev):

   -40.2726 -40.0912 -40.0874 -40.0874  -1.4371   3.5335   3.6178   3.6178
     7.8540   9.0232   9.0232  11.8101

          k = 0.3162 0.3162 0.4743 (  5559 PWs)   bands (ev):

   -40.2611 -40.1001 -40.0894 -40.0871  -1.1223   2.6739   3.6142   3.7964
     7.7714   8.3462   9.2264  10.8116

          k = 0.3162 0.4743 0.4743 (  5558 PWs)   bands (ev):

   -40.2511 -40.0984 -40.0976 -40.0895  -0.8017   2.8484   2.8574   3.6659
     7.8083   8.4150   8.6119   9.6926

          k = 0.4743 0.4743 0.4743 (  5562 PWs)   bands (ev):

   -40.2426 -40.0983 -40.0973 -40.0973  -0.4983   2.9413   2.9953   2.9953
     7.8860   7.9560   7.9560   8.8480

     the Fermi energy is     6.8830 ev

!    total energy              =     -65.66779848 Ry
     estimated scf accuracy    <          1.2E-10 Ry
     smearing contrib. (-TS)   =      -0.00036220 Ry
     internal energy E=F+TS    =     -65.66743628 Ry

     The total energy is F=E-TS. E is the sum of the following terms:
     one-electron contribution =     -25.67346079 Ry
     hartree contribution      =      12.45622409 Ry
     xc contribution           =     -17.12912830 Ry
     ewald contribution        =     -35.32107128 Ry

     convergence has been achieved in   8 iterations

     Forces acting on atoms (cartesian axes, Ry/au):

     atom    1 type  1   force =     0.00000000    0.00000000    0.00000000
     atom    2 type  2   force =     0.03822609    0.03822609    0.03822609
     atom    3 type  2   force =     0.03822609   -0.03822609   -0.03822609
     atom    4 type  2   force =    -0.03822609   -0.03822609    0.03822609
     atom    5 type  2   force =    -0.03822609    0.03822609   -0.03822609
     The non-local contrib.  to forces
     atom    1 type  1   force =     0.00000000    0.00000000    0.00000000
     atom    2 type  2   force =     0.00654597    0.00654597    0.00654597
     atom    3 type  2   force =     0.00654597   -0.00654597   -0.00654597
     atom    4 type  2   force =    -0.00654597   -0.00654597    0.00654597
     atom    5 type  2   force =    -0.00654597    0.00654597   -0.00654597
     The ionic contribution  to forces
     atom    1 type  1   force =    -0.00000000    0.00000000    0.00000000
     atom    2 type  2   force =     0.12043826    0.12043826    0.12043826
     atom    3 type  2   force =     0.12043826   -0.12043826   -0.12043826
     atom    4 type  2   force =    -0.12043826   -0.12043826    0.12043826
     atom    5 type  2   force =    -0.12043826    0.12043826   -0.12043826
     The local contribution  to forces
     atom    1 type  1   force =     0.00000000   -0.00000000    0.00000000
     atom    2 type  2   force =    -0.08876194   -0.08876194   -0.08876194
     atom    3 type  2   force =    -0.08876194    0.08876194    0.08876194
     atom    4 type  2   force =     0.08876194    0.08876194   -0.08876194
     atom    5 type  2   force =     0.08876194   -0.08876194    0.08876194
     The core correction contribution to forces
     atom    1 type  1   force =     0.00000000   -0.00000000   -0.00000000
     atom    2 type  2   force =     0.00000000    0.00000000    0.00000000
     atom    3 type  2   force =     0.00000000    0.00000000    0.00000000
     atom    4 type  2   force =     0.00000000    0.00000000    0.00000000
     atom    5 type  2   force =     0.00000000    0.00000000    0.00000000
     The Hubbard contrib.    to forces
     atom    1 type  1   force =     0.00000000    0.00000000    0.00000000
     atom    2 type  2   force =     0.00000000    0.00000000    0.00000000
     atom    3 type  2   force =     0.00000000    0.00000000    0.00000000
     atom    4 type  2   force =     0.00000000    0.00000000    0.00000000
     atom    5 type  2   force =     0.00000000    0.00000000    0.00000000
     The SCF correction term to forces
     atom    1 type  1   force =     0.00000000   -0.00000000   -0.00000000
     atom    2 type  2   force =     0.00000380    0.00000380    0.00000380
     atom    3 type  2   force =     0.00000380   -0.00000380   -0.00000380
     atom    4 type  2   force =    -0.00000380   -0.00000380    0.00000380
     atom    5 type  2   force =    -0.00000380    0.00000380   -0.00000380

     Total force =     0.132419     Total SCF correction =     0.000013


     Computing stress (Cartesian axis) and pressure

          total   stress  (Ry/bohr**3)                   (kbar)     P=      439.60
   0.00298833   0.00000000   0.00000000          439.60        0.00        0.00
   0.00000000   0.00298833   0.00000000            0.00      439.60        0.00
   0.00000000   0.00000000   0.00298833            0.00        0.00      439.60

     Energy error            =      1.7E-01 Ry
     Gradient error          =      3.8E-02 Ry/Bohr
     Cell gradient error     =      6.0E+01 kbar

     number of scf cycles    =   3
     number of bfgs steps    =   2

     enthalpy           old  =     -64.3462630886 Ry
     enthalpy           new  =     -64.5190293700 Ry

     CASE: enthalpy          _new < enthalpy          _old

     new trust radius        =       0.1594376135 bohr
ibrav =      1
 celldm(1) =      6.73086501
Input lattice vectors:
     0.87312488     0.00000000     0.00000000
     0.00000000     0.87312488     0.00000000
     0.00000000     0.00000000     0.87312488
New lattice vectors in INITIAL alat:
     0.87312488     0.00000000     0.00000000
     0.00000000     0.87312488     0.00000000
     0.00000000     0.00000000     0.87312488
New lattice vectors in NEW alat (for information only):
     1.00000000     0.00000000     0.00000000
     0.00000000     1.00000000     0.00000000
     0.00000000     0.00000000     1.00000000
Discrepancy in bohr =     0.000000    0.000000    0.000000
     new conv_thr            =       0.0000000038 Ry

     new unit-cell volume =    304.93877 a.u.^3 (    45.18726 Ang^3 )
     density =      2.05235 g/cm^3

CELL_PARAMETERS (alat=  7.70893741)
   0.873124875   0.000000000   0.000000000
   0.000000000   0.873124875   0.000000000
   0.000000000   0.000000000   0.873124875

ATOMIC_POSITIONS (crystal)
Si            0.0000000000        0.0000000000        0.0000000000
Li            0.3069577250        0.3069577250        0.3069577250
Li            0.3069577250        0.6930422750        0.6930422750
Li            0.6930422750        0.6930422750        0.3069577250
Li            0.6930422750        0.3069577250        0.6930422750



     Writing config-only to output data dir ./output/SiLi.save/
     NEW-OLD atomic charge density approx. for the potential
     extrapolated charge   14.26841, renormalised to   16.00000

     total cpu time spent up to now is       15.9 secs

     Self-consistent Calculation

     iteration #  1     ecut=    80.00 Ry     beta= 0.70
     Davidson diagonalization with overlap
     ethr =  1.00E-06,  avg # of iterations =  8.2

     total cpu time spent up to now is       16.6 secs

     total energy              =     -65.52131695 Ry
     estimated scf accuracy    <       0.04439253 Ry

     iteration #  2     ecut=    80.00 Ry     beta= 0.70
     Davidson diagonalization with overlap
     ethr =  2.77E-04,  avg # of iterations =  2.8

     total cpu time spent up to now is       17.0 secs

     total energy              =     -65.56670455 Ry
     estimated scf accuracy    <       0.10005491 Ry

     iteration #  3     ecut=    80.00 Ry     beta= 0.70
     Davidson diagonalization with overlap
     ethr =  2.77E-04,  avg # of iterations =  1.8

     total cpu time spent up to now is       17.3 secs

     total energy              =     -65.57467471 Ry
     estimated scf accuracy    <       0.00679281 Ry

     iteration #  4     ecut=    80.00 Ry     beta= 0.70
     Davidson diagonalization with overlap
     ethr =  4.25E-05,  avg # of iterations =  1.6

     total cpu time spent up to now is       17.6 secs

     total energy              =     -65.57471374 Ry
     estimated scf accuracy    <       0.00089127 Ry

     iteration #  5     ecut=    80.00 Ry     beta= 0.70
     Davidson diagonalization with overlap
     ethr =  5.57E-06,  avg # of iterations =  2.6

     total cpu time spent up to now is       17.9 secs

     total energy              =     -65.57489192 Ry
     estimated scf accuracy    <       0.00000463 Ry

     iteration #  6     ecut=    80.00 Ry     beta= 0.70
     Davidson diagonalization with overlap
     ethr =  2.89E-08,  avg # of iterations =  3.2

     total cpu time spent up to now is       18.3 secs

     total energy              =     -65.57489478 Ry
     estimated scf accuracy    <       0.00000057 Ry

     iteration #  7     ecut=    80.00 Ry     beta= 0.70
     Davidson diagonalization with overlap
     ethr =  3.59E-09,  avg # of iterations =  1.9

     total cpu time spent up to now is       18.6 secs

     total energy              =     -65.57489484 Ry
     estimated scf accuracy    <       0.00000003 Ry

     iteration #  8     ecut=    80.00 Ry     beta= 0.70
     Davidson diagonalization with overlap
     ethr =  1.58E-10,  avg # of iterations =  2.9

     total cpu time spent up to now is       19.0 secs

     total energy              =     -65.57489485 Ry
     estimated scf accuracy    <          4.8E-09 Ry

     iteration #  9     ecut=    80.00 Ry     beta= 0.70
     Davidson diagonalization with overlap
     ethr =  2.99E-11,  avg # of iterations =  2.0

     total cpu time spent up to now is       19.3 secs

     End of self-consistent calculation

          k = 0.0000 0.0000 0.0000 (  5497 PWs)   bands (ev):

   -39.8071 -39.2919 -39.2919 -39.2919  -2.0025   7.2660   7.4641   7.4641
     8.0982   8.0982   8.0982  14.9947

          k = 0.0000 0.0000 0.1636 (  5522 PWs)   bands (ev):

   -39.7984 -39.3004 -39.2917 -39.2917  -1.8831   5.6284   7.4048   7.7028
     8.0864   8.0864   9.8926  14.4644

          k = 0.0000 0.0000 0.3272 (  5546 PWs)   bands (ev):

   -39.7779 -39.3207 -39.2912 -39.2912  -1.5698   3.9546   7.7293   8.0551
     8.0551   8.4181  10.4294  13.4223

          k = 0.0000 0.0000 0.4908 (  5518 PWs)   bands (ev):

   -39.7601 -39.3383 -39.2909 -39.2909  -1.2473   2.9444   8.0253   8.0253
     8.2060   9.6058   9.7007  11.2890

          k = 0.0000 0.1636 0.1636 (  5529 PWs)   bands (ev):

   -39.7901 -39.3007 -39.2992 -39.2917  -1.7614   5.5577   5.9219   7.6008
     8.0466   9.4430  10.5332  13.8790

          k = 0.0000 0.1636 0.3272 (  5535 PWs)   bands (ev):

   -39.7702 -39.3196 -39.2988 -39.2918  -1.4409   4.0275   6.0325   7.5653
     8.2866   9.7295  11.2283  12.7434

          k = 0.0000 0.1636 0.4908 (  5525 PWs)   bands (ev):

   -39.7529 -39.3367 -39.2979 -39.2920  -1.1081   3.0100   6.3337   7.2780
     8.9380   9.8578  10.5646  12.0343

          k = 0.0000 0.3272 0.3272 (  5506 PWs)   bands (ev):

   -39.7518 -39.3184 -39.3155 -39.2933  -1.0973   4.0671   4.4817   6.9389
     8.7724  10.1466  11.8797  12.2547

          k = 0.0000 0.3272 0.4908 (  5523 PWs)   bands (ev):

   -39.7358 -39.3327 -39.3145 -39.2948  -0.7307   3.1787   4.5295   6.4345
     9.5421  10.1611  10.8353  12.7643

          k = 0.0000 0.4908 0.4908 (  5522 PWs)   bands (ev):

   -39.7211 -39.3293 -39.3286 -39.2976  -0.3118   3.3122   3.4108   5.8875
     9.7782  10.6634  11.3741  12.1626

          k = 0.1636 0.1636 0.1636 (  5515 PWs)   bands (ev):

   -39.7820 -39.3012 -39.2990 -39.2990  -1.6379   5.6749   5.6749   6.1012
     8.8130  10.4877  10.4877  13.5893

          k = 0.1636 0.1636 0.3272 (  5530 PWs)   bands (ev):

   -39.7627 -39.3189 -39.2998 -39.2985  -1.3115   4.0999   5.9750   6.0612
     8.8387  10.2557  11.3038  12.8904

          k = 0.1636 0.1636 0.4908 (  5549 PWs)   bands (ev):

   -39.7459 -39.3353 -39.2994 -39.2981  -0.9701   3.0757   6.1161   6.2704
     8.7464   9.9077  11.2853  12.6871

          k = 0.1636 0.3272 0.3272 (  5532 PWs)   bands (ev):

   -39.7449 -39.3182 -39.3153 -39.3000  -0.9660   4.1542   4.4875   5.9520
     8.9251  10.1920  11.1307  13.1184

          k = 0.1636 0.3272 0.4908 (  5534 PWs)   bands (ev):

   -39.7295 -39.3319 -39.3148 -39.3009  -0.5957   3.2444   4.5436   5.8290
     9.0771   9.6966  11.0833  13.0518

          k = 0.1636 0.4908 0.4908 (  5528 PWs)   bands (ev):

   -39.7153 -39.3291 -39.3284 -39.3032  -0.1800   3.3816   3.4649   5.4944
     9.3147  10.0903  10.6413  11.8719

          k = 0.3272 0.3272 0.3272 (  5548 PWs)   bands (ev):

   -39.7285 -39.3187 -39.3148 -39.3148  -0.6132   4.3751   4.3751   4.5820
     9.1083   9.9352   9.9352  12.9783

          k = 0.3272 0.3272 0.4908 (  5559 PWs)   bands (ev):

   -39.7144 -39.3300 -39.3167 -39.3143  -0.2296   3.4109   4.5362   4.5877
     9.0071   9.1594  10.1775  11.9319

          k = 0.3272 0.4908 0.4908 (  5558 PWs)   bands (ev):

   -39.7015 -39.3285 -39.3278 -39.3163   0.1770   3.5549   3.5965   4.5491
     8.8554   9.3698   9.4807  10.8192

          k = 0.4908 0.4908 0.4908 (  5562 PWs)   bands (ev):

   -39.6897 -39.3282 -39.3273 -39.3273   0.5735   3.7129   3.7166   3.7166
     8.7452   8.7452   8.8855  10.1529

     the Fermi energy is     7.9942 ev

!    total energy              =     -65.57489485 Ry
     estimated scf accuracy    <          1.2E-10 Ry
     smearing contrib. (-TS)   =      -0.00006916 Ry
     internal energy E=F+TS    =     -65.57482569 Ry

     The total energy is F=E-TS. E is the sum of the following terms:
     one-electron contribution =     -23.99070476 Ry
     hartree contribution      =      12.15927647 Ry
     xc contribution           =     -17.24361061 Ry
     ewald contribution        =     -36.49978679 Ry

     convergence has been achieved in   9 iterations

     Forces acting on atoms (cartesian axes, Ry/au):

     atom    1 type  1   force =     0.00000000    0.00000000    0.00000000
     atom    2 type  2   force =    -0.00810012   -0.00810012   -0.00810012
     atom    3 type  2   force =    -0.00810012    0.00810012    0.00810012
     atom    4 type  2   force =     0.00810012    0.00810012   -0.00810012
     atom    5 type  2   force =     0.00810012   -0.00810012    0.00810012
     The non-local contrib.  to forces
     atom    1 type  1   force =     0.00000000    0.00000000    0.00000000
     atom    2 type  2   force =     0.01671865    0.01671865    0.01671865
     atom    3 type  2   force =     0.01671865   -0.01671865   -0.01671865
     atom    4 type  2   force =    -0.01671865   -0.01671865    0.01671865
     atom    5 type  2   force =    -0.01671865    0.01671865   -0.01671865
     The ionic contribution  to forces
     atom    1 type  1   force =     0.00000000    0.00000000   -0.00000000
     atom    2 type  2   force =    -0.23468329   -0.23468329   -0.23468329
     atom    3 type  2   force =    -0.23468329    0.23468329    0.23468329
     atom    4 type  2   force =     0.23468329    0.23468329   -0.23468329
     atom    5 type  2   force =     0.23468329   -0.23468329    0.23468329
     The local contribution  to forces
     atom    1 type  1   force =     0.00000000    0.00000000   -0.00000000
     atom    2 type  2   force =     0.20987011    0.20987011    0.20987011
     atom    3 type  2   force =     0.20987011   -0.20987011   -0.20987011
     atom    4 type  2   force =    -0.20987011   -0.20987011    0.20987011
     atom    5 type  2   force =    -0.20987011    0.20987011   -0.20987011
     The core correction contribution to forces
     atom    1 type  1   force =    -0.00000000    0.00000000    0.00000000
     atom    2 type  2   force =     0.00000000    0.00000000    0.00000000
     atom    3 type  2   force =     0.00000000    0.00000000    0.00000000
     atom    4 type  2   force =     0.00000000    0.00000000    0.00000000
     atom    5 type  2   force =     0.00000000    0.00000000    0.00000000
     The Hubbard contrib.    to forces
     atom    1 type  1   force =     0.00000000    0.00000000    0.00000000
     atom    2 type  2   force =     0.00000000    0.00000000    0.00000000
     atom    3 type  2   force =     0.00000000    0.00000000    0.00000000
     atom    4 type  2   force =     0.00000000    0.00000000    0.00000000
     atom    5 type  2   force =     0.00000000    0.00000000    0.00000000
     The SCF correction term to forces
     atom    1 type  1   force =    -0.00000000    0.00000000    0.00000000
     atom    2 type  2   force =    -0.00000559   -0.00000559   -0.00000559
     atom    3 type  2   force =    -0.00000559    0.00000559    0.00000559
     atom    4 type  2   force =     0.00000559    0.00000559   -0.00000559
     atom    5 type  2   force =     0.00000559   -0.00000559    0.00000559

     Total force =     0.028060     Total SCF correction =     0.000019


     Computing stress (Cartesian axis) and pressure

          total   stress  (Ry/bohr**3)                   (kbar)     P=      554.88
   0.00377201   0.00000000   0.00000000          554.88        0.00        0.00
   0.00000000   0.00377201   0.00000000            0.00      554.88        0.00
   0.00000000   0.00000000   0.00377201            0.00        0.00      554.88

     Energy error            =      1.9E-02 Ry
     Gradient error          =      8.1E-03 Ry/Bohr
     Cell gradient error     =      5.5E+01 kbar

     number of scf cycles    =   4
     number of bfgs steps    =   3

     enthalpy           old  =     -64.5190293700 Ry
     enthalpy           new  =     -64.5384290387 Ry

     CASE: enthalpy          _new < enthalpy          _old

     new trust radius        =       0.0436458957 bohr
ibrav =      1
 celldm(1) =      6.81498089
Input lattice vectors:
     0.88403635     0.00000000     0.00000000
     0.00000000     0.88403635     0.00000000
     0.00000000     0.00000000     0.88403635
New lattice vectors in INITIAL alat:
     0.88403635     0.00000000     0.00000000
     0.00000000     0.88403635     0.00000000
     0.00000000     0.00000000     0.88403635
New lattice vectors in NEW alat (for information only):
     1.00000000     0.00000000     0.00000000
     0.00000000     1.00000000     0.00000000
     0.00000000     0.00000000     1.00000000
Discrepancy in bohr =     0.000000    0.000000    0.000000
     new conv_thr            =       0.0000000008 Ry

     new unit-cell volume =    316.51473 a.u.^3 (    46.90264 Ang^3 )
     density =      1.97729 g/cm^3

CELL_PARAMETERS (alat=  7.70893741)
   0.884036350   0.000000000   0.000000000
   0.000000000   0.884036350   0.000000000
   0.000000000   0.000000000   0.884036350

ATOMIC_POSITIONS (crystal)
Si            0.0000000000        0.0000000000        0.0000000000
Li            0.3040326889        0.3040326889        0.3040326889
Li            0.3040326889        0.6959673111        0.6959673111
Li            0.6959673111        0.6959673111        0.3040326889
Li            0.6959673111        0.3040326889        0.6959673111



     Writing config-only to output data dir ./output/SiLi.save/
     NEW-OLD atomic charge density approx. for the potential
     extrapolated charge   16.58448, renormalised to   16.00000

     total cpu time spent up to now is       20.9 secs

     Self-consistent Calculation

     iteration #  1     ecut=    80.00 Ry     beta= 0.70
     Davidson diagonalization with overlap
     ethr =  1.00E-06,  avg # of iterations =  6.3

     total cpu time spent up to now is       21.5 secs

     total energy              =     -65.60881868 Ry
     estimated scf accuracy    <       0.00684292 Ry

     iteration #  2     ecut=    80.00 Ry     beta= 0.70
     Davidson diagonalization with overlap
     ethr =  4.28E-05,  avg # of iterations =  2.8

     total cpu time spent up to now is       21.9 secs

     total energy              =     -65.61581591 Ry
     estimated scf accuracy    <       0.01672645 Ry

     iteration #  3     ecut=    80.00 Ry     beta= 0.70
     Davidson diagonalization with overlap
     ethr =  4.28E-05,  avg # of iterations =  1.9

     total cpu time spent up to now is       22.1 secs

     total energy              =     -65.61729464 Ry
     estimated scf accuracy    <       0.00113328 Ry

     iteration #  4     ecut=    80.00 Ry     beta= 0.70
     Davidson diagonalization with overlap
     ethr =  7.08E-06,  avg # of iterations =  1.1

     total cpu time spent up to now is       22.4 secs

     total energy              =     -65.61703240 Ry
     estimated scf accuracy    <       0.00060243 Ry

     iteration #  5     ecut=    80.00 Ry     beta= 0.70
     Davidson diagonalization with overlap
     ethr =  3.77E-06,  avg # of iterations =  1.9

     total cpu time spent up to now is       22.7 secs

     total energy              =     -65.61712980 Ry
     estimated scf accuracy    <       0.00000122 Ry

     iteration #  6     ecut=    80.00 Ry     beta= 0.70
     Davidson diagonalization with overlap
     ethr =  7.61E-09,  avg # of iterations =  4.1

     total cpu time spent up to now is       23.1 secs

     total energy              =     -65.61713241 Ry
     estimated scf accuracy    <       0.00000052 Ry

     iteration #  7     ecut=    80.00 Ry     beta= 0.70
     Davidson diagonalization with overlap
     ethr =  3.26E-09,  avg # of iterations =  1.0

     total cpu time spent up to now is       23.3 secs

     total energy              =     -65.61713237 Ry
     estimated scf accuracy    <       0.00000014 Ry

     iteration #  8     ecut=    80.00 Ry     beta= 0.70
     Davidson diagonalization with overlap
     ethr =  9.05E-10,  avg # of iterations =  1.9

     total cpu time spent up to now is       23.6 secs

     total energy              =     -65.61713239 Ry
     estimated scf accuracy    <       0.00000002 Ry

     iteration #  9     ecut=    80.00 Ry     beta= 0.70
     Davidson diagonalization with overlap
     ethr =  9.66E-11,  avg # of iterations =  1.5

     total cpu time spent up to now is       23.9 secs

     total energy              =     -65.61713240 Ry
     estimated scf accuracy    <          1.0E-09 Ry

     iteration # 10     ecut=    80.00 Ry     beta= 0.70
     Davidson diagonalization with overlap
     ethr =  6.45E-12,  avg # of iterations =  2.0

     total cpu time spent up to now is       24.2 secs

     End of self-consistent calculation

          k = 0.0000 0.0000 0.0000 (  5497 PWs)   bands (ev):

   -39.9963 -39.5688 -39.5688 -39.5688  -2.2432   6.7246   7.1641   7.1641
     7.6787   7.6787   7.6787  14.5357

          k = 0.0000 0.0000 0.1616 (  5522 PWs)   bands (ev):

   -39.9884 -39.5765 -39.5686 -39.5686  -2.1275   5.2871   6.9165   7.3967
     7.6690   7.6690   9.4614  14.0054

          k = 0.0000 0.0000 0.3232 (  5546 PWs)   bands (ev):

   -39.9696 -39.5950 -39.5682 -39.5682  -1.8249   3.6482   7.2571   7.6428
     7.6428   8.0938   9.9754  12.9774

          k = 0.0000 0.0000 0.4848 (  5518 PWs)   bands (ev):

   -39.9530 -39.6113 -39.5679 -39.5679  -1.5144   2.6606   7.6176   7.6176
     7.7601   9.2355   9.2483  10.9010

          k = 0.0000 0.1616 0.1616 (  5529 PWs)   bands (ev):

   -39.9808 -39.5767 -39.5754 -39.5686  -2.0098   5.2619   5.5124   7.1828
     7.6363   9.0216  10.0828  13.4336

          k = 0.0000 0.1616 0.3232 (  5535 PWs)   bands (ev):

   -39.9626 -39.5940 -39.5750 -39.5688  -1.7006   3.7254   5.6644   7.1617
     7.8771   9.3046  10.7550  12.3137

          k = 0.0000 0.1616 0.4848 (  5525 PWs)   bands (ev):

   -39.9466 -39.6098 -39.5742 -39.5689  -1.3811   2.7296   5.9732   6.8819
     8.5092   9.4304  10.1603  11.5581

          k = 0.0000 0.3232 0.3232 (  5506 PWs)   bands (ev):

   -39.9458 -39.5929 -39.5902 -39.5702  -1.3706   3.8045   4.1262   6.5508
     8.3794   9.6801  11.4252  11.8354

          k = 0.0000 0.3232 0.4848 (  5523 PWs)   bands (ev):

   -39.9311 -39.6060 -39.5892 -39.5718  -1.0216   2.9101   4.2248   6.0438
     9.1783   9.6859  10.4091  12.2952

          k = 0.0000 0.4848 0.4848 (  5522 PWs)   bands (ev):

   -39.9177 -39.6027 -39.6020 -39.5745  -0.6286   3.0662   3.1448   5.4859
     9.4357  10.2021  10.9621  11.6600

          k = 0.1616 0.1616 0.1616 (  5515 PWs)   bands (ev):

   -39.9734 -39.5772 -39.5752 -39.5752  -1.8905   5.3743   5.3743   5.6329
     8.3646  10.0499  10.0499  13.1594

          k = 0.1616 0.1616 0.3232 (  5530 PWs)   bands (ev):

   -39.9558 -39.5933 -39.5759 -39.5748  -1.5760   3.8000   5.6542   5.6609
     8.3887   9.8626  10.8337  12.4307

          k = 0.1616 0.1616 0.4848 (  5549 PWs)   bands (ev):

   -39.9403 -39.6085 -39.5756 -39.5744  -1.2488   2.7980   5.7371   5.9408
     8.2921   9.5612  10.7981  12.1887

          k = 0.1616 0.3232 0.3232 (  5532 PWs)   bands (ev):

   -39.9396 -39.5927 -39.5900 -39.5762  -1.2445   3.8893   4.1400   5.5983
     8.4803   9.7981  10.7197  12.6285

          k = 0.1616 0.3232 0.4848 (  5534 PWs)   bands (ev):

   -39.9254 -39.6052 -39.5895 -39.5772  -0.8926   2.9766   4.2385   5.4742
     8.6276   9.3416  10.6597  12.5651

          k = 0.1616 0.4848 0.4848 (  5528 PWs)   bands (ev):

   -39.9125 -39.6025 -39.6018 -39.5794  -0.5031   3.1347   3.1988   5.1248
     8.9111   9.6890  10.2544  11.4095

          k = 0.3232 0.3232 0.3232 (  5548 PWs)   bands (ev):

   -39.9248 -39.5932 -39.5895 -39.5895  -0.9073   4.1041   4.1041   4.2099
     8.6328   9.5720   9.5720  12.5013

          k = 0.3232 0.3232 0.4848 (  5559 PWs)   bands (ev):

   -39.9119 -39.6034 -39.5914 -39.5891  -0.5452   3.1470   4.2060   4.3103
     8.5407   8.8222   9.7984  11.4691

          k = 0.3232 0.4848 0.4848 (  5558 PWs)   bands (ev):

   -39.9002 -39.6020 -39.6013 -39.5911  -0.1663   3.3053   3.3300   4.2398
     8.4656   8.9735   9.1274  10.3451

          k = 0.4848 0.4848 0.4848 (  5562 PWs)   bands (ev):

   -39.8897 -39.6017 -39.6009 -39.6009   0.1994   3.4406   3.4644   3.4644
     8.4110   8.4110   8.5038   9.6131

     the Fermi energy is     7.5862 ev

!    total energy              =     -65.61713240 Ry
     estimated scf accuracy    <          1.1E-10 Ry
     smearing contrib. (-TS)   =      -0.00015242 Ry
     internal energy E=F+TS    =     -65.61697997 Ry

     The total energy is F=E-TS. E is the sum of the following terms:
     one-electron contribution =     -24.58323646 Ry
     hartree contribution      =      12.25694177 Ry
     xc contribution           =     -17.19642145 Ry
     ewald contribution        =     -36.09426383 Ry

     convergence has been achieved in  10 iterations

     Forces acting on atoms (cartesian axes, Ry/au):

     atom    1 type  1   force =     0.00000000    0.00000000    0.00000000
     atom    2 type  2   force =     0.00240115    0.00240115    0.00240115
     atom    3 type  2   force =     0.00240115   -0.00240115   -0.00240115
     atom    4 type  2   force =    -0.00240115   -0.00240115    0.00240115
     atom    5 type  2   force =    -0.00240115    0.00240115   -0.00240115
     The non-local contrib.  to forces
     atom    1 type  1   force =     0.00000000    0.00000000    0.00000000
     atom    2 type  2   force =     0.01322370    0.01322370    0.01322370
     atom    3 type  2   force =     0.01322370   -0.01322370   -0.01322370
     atom    4 type  2   force =    -0.01322370   -0.01322370    0.01322370
     atom    5 type  2   force =    -0.01322370    0.01322370   -0.01322370
     The ionic contribution  to forces
     atom    1 type  1   force =     0.00000000    0.00000000    0.00000000
     atom    2 type  2   force =    -0.14751677   -0.14751677   -0.14751677
     atom    3 type  2   force =    -0.14751677    0.14751677    0.14751677
     atom    4 type  2   force =     0.14751677    0.14751677   -0.14751677
     atom    5 type  2   force =     0.14751677   -0.14751677    0.14751677
     The local contribution  to forces
     atom    1 type  1   force =     0.00000000    0.00000000   -0.00000000
     atom    2 type  2   force =     0.13669361    0.13669361    0.13669361
     atom    3 type  2   force =     0.13669361   -0.13669361   -0.13669361
     atom    4 type  2   force =    -0.13669361   -0.13669361    0.13669361
     atom    5 type  2   force =    -0.13669361    0.13669361   -0.13669361
     The core correction contribution to forces
     atom    1 type  1   force =     0.00000000   -0.00000000    0.00000000
     atom    2 type  2   force =     0.00000000    0.00000000    0.00000000
     atom    3 type  2   force =     0.00000000    0.00000000    0.00000000
     atom    4 type  2   force =     0.00000000    0.00000000    0.00000000
     atom    5 type  2   force =     0.00000000    0.00000000    0.00000000
     The Hubbard contrib.    to forces
     atom    1 type  1   force =     0.00000000    0.00000000    0.00000000
     atom    2 type  2   force =     0.00000000    0.00000000    0.00000000
     atom    3 type  2   force =     0.00000000    0.00000000    0.00000000
     atom    4 type  2   force =     0.00000000    0.00000000    0.00000000
     atom    5 type  2   force =     0.00000000    0.00000000    0.00000000
     The SCF correction term to forces
     atom    1 type  1   force =    -0.00000000    0.00000000    0.00000000
     atom    2 type  2   force =     0.00000060    0.00000060    0.00000060
     atom    3 type  2   force =     0.00000060   -0.00000060   -0.00000060
     atom    4 type  2   force =    -0.00000060   -0.00000060    0.00000060
     atom    5 type  2   force =    -0.00000060    0.00000060   -0.00000060

     Total force =     0.008318     Total SCF correction =     0.000002


     Computing stress (Cartesian axis) and pressure

          total   stress  (Ry/bohr**3)                   (kbar)     P=      503.19
   0.00342063   0.00000000   0.00000000          503.19        0.00        0.00
   0.00000000   0.00342063   0.00000000            0.00      503.19        0.00
   0.00000000   0.00000000   0.00342063            0.00        0.00      503.19

     Energy error            =      2.9E-03 Ry
     Gradient error          =      2.4E-03 Ry/Bohr
     Cell gradient error     =      3.2E+00 kbar

     number of scf cycles    =   5
     number of bfgs steps    =   4

     enthalpy           old  =     -64.5384290387 Ry
     enthalpy           new  =     -64.5413206905 Ry

     CASE: enthalpy          _new < enthalpy          _old

     new trust radius        =       0.0050961754 bohr
ibrav =      1
 celldm(1) =      6.81597125
Input lattice vectors:
     0.88416482     0.00000000     0.00000000
     0.00000000     0.88416482     0.00000000
     0.00000000     0.00000000     0.88416482
New lattice vectors in INITIAL alat:
     0.88416482     0.00000000     0.00000000
     0.00000000     0.88416482     0.00000000
     0.00000000     0.00000000     0.88416482
New lattice vectors in NEW alat (for information only):
     1.00000000     0.00000000     0.00000000
     0.00000000     1.00000000     0.00000000
     0.00000000     0.00000000     1.00000000
Discrepancy in bohr =     0.000000    0.000000    0.000000
     new conv_thr            =       0.0000000002 Ry

     new unit-cell volume =    316.65274 a.u.^3 (    46.92309 Ang^3 )
     density =      1.97643 g/cm^3

CELL_PARAMETERS (alat=  7.70893741)
   0.884164819   0.000000000   0.000000000
   0.000000000   0.884164819   0.000000000
   0.000000000   0.000000000   0.884164819

ATOMIC_POSITIONS (crystal)
Si            0.0000000000        0.0000000000        0.0000000000
Li            0.3044644257        0.3044644257        0.3044644257
Li            0.3044644257        0.6955355743        0.6955355743
Li            0.6955355743        0.6955355743        0.3044644257
Li            0.6955355743        0.3044644257        0.6955355743



     Writing config-only to output data dir ./output/SiLi.save/
     NEW-OLD atomic charge density approx. for the potential
     extrapolated charge   16.00697, renormalised to   16.00000

     total cpu time spent up to now is       25.8 secs

     Self-consistent Calculation

     iteration #  1     ecut=    80.00 Ry     beta= 0.70
     Davidson diagonalization with overlap
     ethr =  1.00E-06,  avg # of iterations =  3.0

     Threshold (ethr) on eigenvalues was too large:
     Diagonalizing with lowered threshold

     Davidson diagonalization with overlap
     ethr =  4.17E-08,  avg # of iterations =  1.4

     total cpu time spent up to now is       26.4 secs

     total energy              =     -65.61765330 Ry
     estimated scf accuracy    <       0.00000743 Ry

     iteration #  2     ecut=    80.00 Ry     beta= 0.70
     Davidson diagonalization with overlap
     ethr =  4.65E-08,  avg # of iterations =  2.1

     total cpu time spent up to now is       26.7 secs

     total energy              =     -65.61765522 Ry
     estimated scf accuracy    <       0.00000501 Ry

     iteration #  3     ecut=    80.00 Ry     beta= 0.70
     Davidson diagonalization with overlap
     ethr =  3.13E-08,  avg # of iterations =  1.8

     total cpu time spent up to now is       26.9 secs

     total energy              =     -65.61765620 Ry
     estimated scf accuracy    <       0.00000010 Ry

     iteration #  4     ecut=    80.00 Ry     beta= 0.70
     Davidson diagonalization with overlap
     ethr =  6.01E-10,  avg # of iterations =  2.0

     total cpu time spent up to now is       27.2 secs

     total energy              =     -65.61765620 Ry
     estimated scf accuracy    <       0.00000002 Ry

     iteration #  5     ecut=    80.00 Ry     beta= 0.70
     Davidson diagonalization with overlap
     ethr =  1.16E-10,  avg # of iterations =  1.7

     total cpu time spent up to now is       27.5 secs

     total energy              =     -65.61765620 Ry
     estimated scf accuracy    <          6.1E-10 Ry

     iteration #  6     ecut=    80.00 Ry     beta= 0.70
     Davidson diagonalization with overlap
     ethr =  3.82E-12,  avg # of iterations =  2.3

     total cpu time spent up to now is       27.8 secs

     End of self-consistent calculation

          k = 0.0000 0.0000 0.0000 (  5497 PWs)   bands (ev):

   -40.0084 -39.5759 -39.5759 -39.5759  -2.2452   6.7326   7.1665   7.1665
     7.6747   7.6747   7.6747  14.5236

          k = 0.0000 0.0000 0.1616 (  5522 PWs)   bands (ev):

   -40.0006 -39.5836 -39.5757 -39.5757  -2.1294   5.2878   6.9222   7.3990
     7.6655   7.6655   9.4602  13.9926

          k = 0.0000 0.0000 0.3231 (  5546 PWs)   bands (ev):

   -39.9820 -39.6019 -39.5753 -39.5753  -1.8261   3.6483   7.2607   7.6407
     7.6407   8.0960   9.9725  12.9772

          k = 0.0000 0.0000 0.4847 (  5518 PWs)   bands (ev):

   -39.9656 -39.6181 -39.5750 -39.5750  -1.5151   2.6602   7.6165   7.6165
     7.7604   9.2342   9.2512  10.9004

          k = 0.0000 0.1616 0.1616 (  5529 PWs)   bands (ev):

   -39.9931 -39.5838 -39.5825 -39.5757  -2.0115   5.2606   5.5156   7.1855
     7.6343   9.0195  10.0827  13.4250

          k = 0.0000 0.1616 0.3231 (  5535 PWs)   bands (ev):

   -39.9750 -39.6010 -39.5821 -39.5759  -1.7017   3.7253   5.6656   7.1620
     7.8776   9.3015  10.7527  12.3093

          k = 0.0000 0.1616 0.4847 (  5525 PWs)   bands (ev):

   -39.9591 -39.6166 -39.5813 -39.5761  -1.3815   2.7291   5.9736   6.8832
     8.5078   9.4283  10.1540  11.5624

          k = 0.0000 0.3231 0.3231 (  5506 PWs)   bands (ev):

   -39.9583 -39.5999 -39.5972 -39.5773  -1.3711   3.8027   4.1283   6.5528
     8.3787   9.6728  11.4202  11.8298

          k = 0.0000 0.3231 0.4847 (  5523 PWs)   bands (ev):

   -39.9438 -39.6129 -39.5962 -39.5788  -1.0214   2.9092   4.2245   6.0479
     9.1735   9.6774  10.4062  12.2903

          k = 0.0000 0.4847 0.4847 (  5522 PWs)   bands (ev):

   -39.9304 -39.6096 -39.6090 -39.5815  -0.6273   3.0643   3.1437   5.4921
     9.4206  10.1991  10.9557  11.6596

          k = 0.1616 0.1616 0.1616 (  5515 PWs)   bands (ev):

   -39.9858 -39.5843 -39.5823 -39.5823  -1.8919   5.3733   5.3733   5.6380
     8.3619  10.0492  10.0492  13.1519

          k = 0.1616 0.1616 0.3231 (  5530 PWs)   bands (ev):

   -39.9682 -39.6003 -39.5830 -39.5819  -1.5768   3.7999   5.6568   5.6608
     8.3861   9.8585  10.8298  12.4290

          k = 0.1616 0.1616 0.4847 (  5549 PWs)   bands (ev):

   -39.9529 -39.6153 -39.5827 -39.5815  -1.2491   2.7976   5.7387   5.9420
     8.2898   9.5523  10.7941  12.1946

          k = 0.1616 0.3231 0.3231 (  5532 PWs)   bands (ev):

   -39.9521 -39.5997 -39.5970 -39.5833  -1.2447   3.8880   4.1421   5.6005
     8.4771   9.7891  10.7125  12.6256

          k = 0.1616 0.3231 0.4847 (  5534 PWs)   bands (ev):

   -39.9381 -39.6121 -39.5966 -39.5842  -0.8920   2.9760   4.2389   5.4778
     8.6236   9.3303  10.6518  12.5579

          k = 0.1616 0.4847 0.4847 (  5528 PWs)   bands (ev):

   -39.9252 -39.6094 -39.6088 -39.5864  -0.5015   3.1333   3.1982   5.1305
     8.9013   9.6797  10.2459  11.4003

          k = 0.3231 0.3231 0.3231 (  5548 PWs)   bands (ev):

   -39.9374 -39.6002 -39.5965 -39.5965  -0.9068   4.1042   4.1042   4.2134
     8.6284   9.5618   9.5618  12.4883

          k = 0.3231 0.3231 0.4847 (  5559 PWs)   bands (ev):

   -39.9246 -39.6103 -39.5984 -39.5962  -0.5438   3.1470   4.2085   4.3120
     8.5358   8.8095   9.7875  11.4573

          k = 0.3231 0.4847 0.4847 (  5558 PWs)   bands (ev):

   -39.9130 -39.6089 -39.6083 -39.5980  -0.1637   3.3054   3.3308   4.2436
     8.4551   8.9631   9.1156  10.3347

          k = 0.4847 0.4847 0.4847 (  5562 PWs)   bands (ev):

   -39.9025 -39.6087 -39.6079 -39.6079   0.2032   3.4428   3.4662   3.4662
     8.3969   8.3969   8.4925   9.6060

     the Fermi energy is     7.5846 ev

!    total energy              =     -65.61765620 Ry
     estimated scf accuracy    <          7.7E-11 Ry
     smearing contrib. (-TS)   =      -0.00015119 Ry
     internal energy E=F+TS    =     -65.61750501 Ry

     The total energy is F=E-TS. E is the sum of the following terms:
     one-electron contribution =     -24.60215712 Ry
     hartree contribution      =      12.26335096 Ry
     xc contribution           =     -17.19509705 Ry
     ewald contribution        =     -36.08360180 Ry

     convergence has been achieved in   6 iterations

     Forces acting on atoms (cartesian axes, Ry/au):

     atom    1 type  1   force =     0.00000000    0.00000000    0.00000000
     atom    2 type  2   force =     0.00057041    0.00057041    0.00057041
     atom    3 type  2   force =     0.00057041   -0.00057041   -0.00057041
     atom    4 type  2   force =    -0.00057041   -0.00057041    0.00057041
     atom    5 type  2   force =    -0.00057041    0.00057041   -0.00057041
     The non-local contrib.  to forces
     atom    1 type  1   force =     0.00000000    0.00000000    0.00000000
     atom    2 type  2   force =     0.01388910    0.01388910    0.01388910
     atom    3 type  2   force =     0.01388910   -0.01388910   -0.01388910
     atom    4 type  2   force =    -0.01388910   -0.01388910    0.01388910
     atom    5 type  2   force =    -0.01388910    0.01388910   -0.01388910
     The ionic contribution  to forces
     atom    1 type  1   force =    -0.00000000    0.00000000    0.00000000
     atom    2 type  2   force =    -0.15936820   -0.15936820   -0.15936820
     atom    3 type  2   force =    -0.15936820    0.15936820    0.15936820
     atom    4 type  2   force =     0.15936820    0.15936820   -0.15936820
     atom    5 type  2   force =     0.15936820   -0.15936820    0.15936820
     The local contribution  to forces
     atom    1 type  1   force =    -0.00000000    0.00000000    0.00000000
     atom    2 type  2   force =     0.14604571    0.14604571    0.14604571
     atom    3 type  2   force =     0.14604571   -0.14604571   -0.14604571
     atom    4 type  2   force =    -0.14604571   -0.14604571    0.14604571
     atom    5 type  2   force =    -0.14604571    0.14604571   -0.14604571
     The core correction contribution to forces
     atom    1 type  1   force =    -0.00000000    0.00000000    0.00000000
     atom    2 type  2   force =     0.00000000    0.00000000    0.00000000
     atom    3 type  2   force =     0.00000000    0.00000000    0.00000000
     atom    4 type  2   force =     0.00000000    0.00000000    0.00000000
     atom    5 type  2   force =     0.00000000    0.00000000    0.00000000
     The Hubbard contrib.    to forces
     atom    1 type  1   force =     0.00000000    0.00000000    0.00000000
     atom    2 type  2   force =     0.00000000    0.00000000    0.00000000
     atom    3 type  2   force =     0.00000000    0.00000000    0.00000000
     atom    4 type  2   force =     0.00000000    0.00000000    0.00000000
     atom    5 type  2   force =     0.00000000    0.00000000    0.00000000
     The SCF correction term to forces
     atom    1 type  1   force =    -0.00000000    0.00000000    0.00000000
     atom    2 type  2   force =     0.00000380    0.00000380    0.00000380
     atom    3 type  2   force =     0.00000380   -0.00000380   -0.00000380
     atom    4 type  2   force =    -0.00000380   -0.00000380    0.00000380
     atom    5 type  2   force =    -0.00000380    0.00000380   -0.00000380

     Total force =     0.001976     Total SCF correction =     0.000013


     Computing stress (Cartesian axis) and pressure

          total   stress  (Ry/bohr**3)                   (kbar)     P=      501.62
   0.00340992   0.00000000   0.00000000          501.62        0.00        0.00
   0.00000000   0.00340992   0.00000000            0.00      501.62        0.00
   0.00000000   0.00000000   0.00340992            0.00        0.00      501.62

     Energy error            =      5.5E-05 Ry
     Gradient error          =      5.7E-04 Ry/Bohr
     Cell gradient error     =      1.6E+00 kbar

     number of scf cycles    =   6
     number of bfgs steps    =   5

     enthalpy           old  =     -64.5413206905 Ry
     enthalpy           new  =     -64.5413754174 Ry

     CASE: enthalpy          _new < enthalpy          _old

     new trust radius        =       0.0014842157 bohr
ibrav =      1
 celldm(1) =      6.81787248
Input lattice vectors:
     0.88441145     0.00000000     0.00000000
     0.00000000     0.88441145     0.00000000
     0.00000000     0.00000000     0.88441145
New lattice vectors in INITIAL alat:
     0.88441145     0.00000000     0.00000000
     0.00000000     0.88441145     0.00000000
     0.00000000     0.00000000     0.88441145
New lattice vectors in NEW alat (for information only):
     1.00000000     0.00000000     0.00000000
     0.00000000     1.00000000     0.00000000
     0.00000000     0.00000000     1.00000000
Discrepancy in bohr =     0.000000    0.000000    0.000000
     new conv_thr            =            1.0E-10 Ry

     new unit-cell volume =    316.91779 a.u.^3 (    46.96237 Ang^3 )
     density =      1.97478 g/cm^3

CELL_PARAMETERS (alat=  7.70893741)
   0.884411446   0.000000000   0.000000000
   0.000000000   0.884411446   0.000000000
   0.000000000   0.000000000   0.884411446

ATOMIC_POSITIONS (crystal)
Si            0.0000000000        0.0000000000        0.0000000000
Li            0.3045901469        0.3045901469        0.3045901469
Li            0.3045901469        0.6954098531        0.6954098531
Li            0.6954098531        0.6954098531        0.3045901469
Li            0.6954098531        0.3045901469        0.6954098531



     Writing config-only to output data dir ./output/SiLi.save/
     NEW-OLD atomic charge density approx. for the potential
     extrapolated charge   16.01337, renormalised to   16.00000

     total cpu time spent up to now is       29.3 secs

     Self-consistent Calculation

     iteration #  1     ecut=    80.00 Ry     beta= 0.70
     Davidson diagonalization with overlap
     ethr =  1.00E-06,  avg # of iterations =  2.0

     Threshold (ethr) on eigenvalues was too large:
     Diagonalizing with lowered threshold

[...]
   0.00000000   0.00000000   0.00339977            0.00        0.00      500.12

     Energy error            =      4.5E-06 Ry
     Gradient error          =      5.1E-06 Ry/Bohr
     Cell gradient error     =      1.2E-01 kbar
ibrav =      1
 celldm(1) =      6.81787248
Input lattice vectors:
     0.88441145     0.00000000     0.00000000
     0.00000000     0.88441145     0.00000000
     0.00000000     0.00000000     0.88441145
New lattice vectors in INITIAL alat:
     0.88441145     0.00000000     0.00000000
     0.00000000     0.88441145     0.00000000
     0.00000000     0.00000000     0.88441145
New lattice vectors in NEW alat (for information only):
     1.00000000     0.00000000     0.00000000
     0.00000000     1.00000000     0.00000000
     0.00000000     0.00000000     1.00000000
Discrepancy in bohr =     0.000000    0.000000    0.000000

     bfgs converged in   7 scf cycles and   6 bfgs steps
     (criteria: energy <  1.0E-04 Ry, force <  1.0E-03 Ry/Bohr, cell <  1.0E+00 kbar)

     End of BFGS Geometry Optimization

     Final enthalpy           =     -64.5413799041 Ry

     File ./output/SiLi.bfgs deleted, as requested
Begin final coordinates
     new unit-cell volume =    316.91779 a.u.^3 (    46.96237 Ang^3 )
     density =      1.97478 g/cm^3

CELL_PARAMETERS (alat=  7.70893741)
   0.884411446   0.000000000   0.000000000
   0.000000000   0.884411446   0.000000000
   0.000000000   0.000000000   0.884411446

ATOMIC_POSITIONS (crystal)
Si            0.0000000000        0.0000000000        0.0000000000
Li            0.3045901469        0.3045901469        0.3045901469
Li            0.3045901469        0.6954098531        0.6954098531
Li            0.6954098531        0.6954098531        0.3045901469
Li            0.6954098531        0.3045901469        0.6954098531
End final coordinates



     Writing config-only to output data dir ./output/SiLi.save/

     Final scf calculation at the relaxed structure.
     The G-vectors are recalculated for the final unit cell
     Results may differ from those at the preceding step.

     Parallelization info
     --------------------
     sticks:   dense  smooth     PW     G-vecs:    dense   smooth      PW
     Min         148     148     43                 3830     3830     599
     Max         149     149     44                 3833     3833     601
     Sum        1185    1185    349                30647    30647    4801

     Using Slab Decomposition



     bravais-lattice index     =            1
     lattice parameter (alat)  =       7.7089  a.u.
     unit-cell volume          =     316.9178 (a.u.)^3
     number of atoms/cell      =            5
     number of atomic types    =            2
     number of electrons       =        16.00
     number of Kohn-Sham states=           12
     kinetic-energy cutoff     =      80.0000  Ry
     charge density cutoff     =     320.0000  Ry
     scf convergence threshold =      1.0E-10
     mixing beta               =       0.7000
     number of iterations used =            8  plain     mixing
     press convergence thresh. =      1.0E+00
     Exchange-correlation= PBE
                           (   1   4   3   4   0   0   0)

     celldm(1)=   7.708937  celldm(2)=   0.000000  celldm(3)=   0.000000
     celldm(4)=   0.000000  celldm(5)=   0.000000  celldm(6)=   0.000000

     crystal axes: (cart. coord. in units of alat)
               a(1) = (   0.884411   0.000000   0.000000 )  
               a(2) = (   0.000000   0.884411   0.000000 )  
               a(3) = (   0.000000   0.000000   0.884411 )  

     reciprocal axes: (cart. coord. in units 2 pi/alat)
               b(1) = (  1.130695  0.000000  0.000000 )  
               b(2) = (  0.000000  1.130695  0.000000 )  
               b(3) = (  0.000000  0.000000  1.130695 )  


     PseudoPot. # 1 for Si read from file:
     ../pseudo/Si_ONCV_PBE_sr.upf
     MD5 check sum: e543d271109d17c80368dfa7c482276d
     Pseudo is Norm-conserving + core correction, Zval =  4.0
     Generated using ONCVPSP code by D. R. Hamann
     Using radial grid of 1510 points,  6 beta functions with: 
                l(1) =   0
                l(2) =   0
                l(3) =   1
                l(4) =   1
                l(5) =   2
                l(6) =   2

     PseudoPot. # 2 for Li read from file:
     ../pseudo/Li_ONCV_PBE_sr.upf
     MD5 check sum: 50ff420e78310ffa21704f3361e624a4
     Pseudo is Norm-conserving, Zval =  3.0
     Generated using ONCVPSP code by D. R. Hamann
     Using radial grid of 1944 points,  4 beta functions with: 
                l(1) =   0
                l(2) =   0
                l(3) =   1
                l(4) =   1

     atomic species   valence    mass     pseudopotential
        Si             4.00    28.08550     Si( 1.00)
        Li             3.00     6.94100     Li( 1.00)

     24 Sym. Ops. (no inversion) found



   Cartesian axes

     site n.     atom                  positions (alat units)
         1           Si  tau(   1) = (   0.0000000   0.0000000   0.0000000  )
         2           Li  tau(   2) = (   0.2693830   0.2693830   0.2693830  )
         3           Li  tau(   3) = (   0.2693830   0.6150284   0.6150284  )
         4           Li  tau(   4) = (   0.6150284   0.6150284   0.2693830  )
         5           Li  tau(   5) = (   0.6150284   0.2693830   0.6150284  )

     number of k points=    20  Marzari-Vanderbilt smearing, width (Ry)=  0.0200
                       cart. coord. in units 2pi/alat
        k(    1) = (   0.0000000   0.0000000   0.0000000), wk =   0.0058309
        k(    2) = (   0.0000000   0.0000000   0.1615279), wk =   0.0349854
        k(    3) = (   0.0000000   0.0000000   0.3230558), wk =   0.0349854
        k(    4) = (   0.0000000   0.0000000   0.4845838), wk =   0.0349854
        k(    5) = (   0.0000000   0.1615279   0.1615279), wk =   0.0699708
        k(    6) = (   0.0000000   0.1615279   0.3230558), wk =   0.1399417
        k(    7) = (   0.0000000   0.1615279   0.4845838), wk =   0.1399417
        k(    8) = (   0.0000000   0.3230558   0.3230558), wk =   0.0699708
        k(    9) = (   0.0000000   0.3230558   0.4845838), wk =   0.1399417
        k(   10) = (   0.0000000   0.4845838   0.4845838), wk =   0.0699708
        k(   11) = (   0.1615279   0.1615279   0.1615279), wk =   0.0466472
        k(   12) = (   0.1615279   0.1615279   0.3230558), wk =   0.1399417
        k(   13) = (   0.1615279   0.1615279   0.4845838), wk =   0.1399417
        k(   14) = (   0.1615279   0.3230558   0.3230558), wk =   0.1399417
        k(   15) = (   0.1615279   0.3230558   0.4845838), wk =   0.2798834
        k(   16) = (   0.1615279   0.4845838   0.4845838), wk =   0.1399417
        k(   17) = (   0.3230558   0.3230558   0.3230558), wk =   0.0466472
        k(   18) = (   0.3230558   0.3230558   0.4845838), wk =   0.1399417
        k(   19) = (   0.3230558   0.4845838   0.4845838), wk =   0.1399417
        k(   20) = (   0.4845838   0.4845838   0.4845838), wk =   0.0466472

     Dense  grid:    30647 G-vectors     FFT dimensions: (  40,  40,  40)

     Estimated max dynamical RAM per process >      16.42 MB

     Estimated total dynamical RAM >     131.37 MB

     Initial potential from superposition of free atoms

     starting charge      15.9811, renormalised to      16.0000
     Starting wfcs are   12 randomized atomic wfcs

     total cpu time spent up to now is       32.7 secs

     Self-consistent Calculation

     iteration #  1     ecut=    80.00 Ry     beta= 0.70
     Davidson diagonalization with overlap
     c_bands:  1 eigenvalues not converged
     c_bands:  1 eigenvalues not converged
     c_bands:  1 eigenvalues not converged
     c_bands:  1 eigenvalues not converged
     c_bands:  1 eigenvalues not converged
     ethr =  1.00E-06,  avg # of iterations = 16.1

     total cpu time spent up to now is       33.4 secs

     total energy              =     -65.61341680 Ry
     estimated scf accuracy    <       0.02629738 Ry

     iteration #  2     ecut=    80.00 Ry     beta= 0.70
     Davidson diagonalization with overlap
     ethr =  1.64E-04,  avg # of iterations =  2.0

     total cpu time spent up to now is       33.6 secs

     total energy              =     -65.61551984 Ry
     estimated scf accuracy    <       0.01396617 Ry

     iteration #  3     ecut=    80.00 Ry     beta= 0.70
     Davidson diagonalization with overlap
     ethr =  8.73E-05,  avg # of iterations =  2.0

     total cpu time spent up to now is       33.8 secs

     total energy              =     -65.61840447 Ry
     estimated scf accuracy    <       0.00090834 Ry

     iteration #  4     ecut=    80.00 Ry     beta= 0.70
     Davidson diagonalization with overlap
     ethr =  5.68E-06,  avg # of iterations =  1.1

     total cpu time spent up to now is       34.0 secs

     total energy              =     -65.61851384 Ry
     estimated scf accuracy    <       0.00000953 Ry

     iteration #  5     ecut=    80.00 Ry     beta= 0.70
     Davidson diagonalization with overlap
     ethr =  5.96E-08,  avg # of iterations =  3.2

     total cpu time spent up to now is       34.3 secs

     total energy              =     -65.61851901 Ry
     estimated scf accuracy    <       0.00000232 Ry

     iteration #  6     ecut=    80.00 Ry     beta= 0.70
     Davidson diagonalization with overlap
     ethr =  1.45E-08,  avg # of iterations =  1.9

     total cpu time spent up to now is       34.5 secs

     total energy              =     -65.61851937 Ry
     estimated scf accuracy    <          9.1E-09 Ry

     iteration #  7     ecut=    80.00 Ry     beta= 0.70
     Davidson diagonalization with overlap
     ethr =  5.69E-11,  avg # of iterations =  4.0

     total cpu time spent up to now is       34.7 secs

     total energy              =     -65.61851938 Ry
     estimated scf accuracy    <          4.0E-10 Ry

     iteration #  8     ecut=    80.00 Ry     beta= 0.70
     Davidson diagonalization with overlap
     ethr =  2.48E-12,  avg # of iterations =  1.8

     total cpu time spent up to now is       34.9 secs

     End of self-consistent calculation

          k = 0.0000 0.0000 0.0000 (  3887 PWs)   bands (ev):

   -40.0168 -39.5836 -39.5836 -39.5836  -2.2502   6.7265   7.1621   7.1621
     7.6658   7.6658   7.6658  14.5105

          k = 0.0000 0.0000 0.1615 (  3827 PWs)   bands (ev):

   -40.0090 -39.5912 -39.5834 -39.5834  -2.1343   5.2820   6.9162   7.3946
     7.6569   7.6569   9.4521  13.9792

          k = 0.0000 0.0000 0.3231 (  3839 PWs)   bands (ev):

   -39.9904 -39.6095 -39.5830 -39.5830  -1.8311   3.6430   7.2540   7.6326
     7.6326   8.0912   9.9634  12.9693

          k = 0.0000 0.0000 0.4846 (  3836 PWs)   bands (ev):

   -39.9741 -39.6256 -39.5827 -39.5827  -1.5200   2.6550   7.6089   7.6089
     7.7528   9.2255   9.2461  10.8933

          k = 0.0000 0.1615 0.1615 (  3834 PWs)   bands (ev):

   -40.0015 -39.5915 -39.5901 -39.5834  -2.0164   5.2548   5.5098   7.1794
     7.6262   9.0113  10.0747  13.4136

          k = 0.0000 0.1615 0.3231 (  3823 PWs)   bands (ev):

   -39.9835 -39.6086 -39.5898 -39.5835  -1.7066   3.7200   5.6597   7.1550
     7.8707   9.2929  10.7435  12.3000

          k = 0.0000 0.1615 0.4846 (  3836 PWs)   bands (ev):

   -39.9677 -39.6241 -39.5889 -39.5837  -1.3865   2.7240   5.9674   6.8768
     8.4997   9.4199  10.1443  11.5558

          k = 0.0000 0.3231 0.3231 (  3828 PWs)   bands (ev):

   -39.9669 -39.6074 -39.6048 -39.5850  -1.3760   3.7973   4.1230   6.5469
     8.3714   9.6618  11.4102  11.8201

          k = 0.0000 0.3231 0.4846 (  3823 PWs)   bands (ev):

   -39.9524 -39.6204 -39.6038 -39.5865  -1.0263   2.9041   4.2190   6.0427
     9.1649   9.6656  10.3975  12.2800

          k = 0.0000 0.4846 0.4846 (  3830 PWs)   bands (ev):

   -39.9391 -39.6172 -39.6165 -39.5892  -0.6323   3.0592   3.1386   5.4877
     9.4082  10.1899  10.9458  11.6506

          k = 0.1615 0.1615 0.1615 (  3836 PWs)   bands (ev):

   -39.9942 -39.5919 -39.5899 -39.5899  -1.8969   5.3676   5.3676   5.6320
     8.3530  10.0412  10.0412  13.1413

          k = 0.1615 0.1615 0.3231 (  3824 PWs)   bands (ev):

   -39.9767 -39.6078 -39.5907 -39.5895  -1.5818   3.7946   5.6509   5.6553
     8.3773   9.8499  10.8199  12.4203

          k = 0.1615 0.1615 0.4846 (  3833 PWs)   bands (ev):

   -39.9615 -39.6228 -39.5903 -39.5892  -1.2540   2.7925   5.7327   5.9367
     8.2810   9.5425  10.7839  12.1883

          k = 0.1615 0.3231 0.3231 (  3824 PWs)   bands (ev):

   -39.9607 -39.6073 -39.6046 -39.5909  -1.2496   3.8828   4.1369   5.5952
     8.4681   9.7785  10.7022  12.6158

          k = 0.1615 0.3231 0.4846 (  3827 PWs)   bands (ev):

   -39.9467 -39.6196 -39.6042 -39.5918  -0.8970   2.9710   4.2337   5.4731
     8.6141   9.3194  10.6411  12.5464

          k = 0.1615 0.4846 0.4846 (  3823 PWs)   bands (ev):

   -39.9340 -39.6170 -39.6163 -39.5940  -0.5065   3.1284   3.1933   5.1264
     8.8901   9.6689  10.2355  11.3885

          k = 0.3231 0.3231 0.3231 (  3821 PWs)   bands (ev):

   -39.9460 -39.6077 -39.6041 -39.6041  -0.9117   4.0995   4.0995   4.2084
     8.6183   9.5511   9.5511  12.4746

          k = 0.3231 0.3231 0.4846 (  3824 PWs)   bands (ev):

   -39.9333 -39.6179 -39.6059 -39.6037  -0.5487   3.1424   4.2038   4.3078
     8.5256   8.7984   9.7764  11.4444

          k = 0.3231 0.4846 0.4846 (  3821 PWs)   bands (ev):

   -39.9217 -39.6165 -39.6158 -39.6056  -0.1687   3.3011   3.3264   4.2398
     8.4438   8.9519   9.1046  10.3224

          k = 0.4846 0.4846 0.4846 (  3828 PWs)   bands (ev):

   -39.9113 -39.6162 -39.6154 -39.6154   0.1982   3.4390   3.4625   3.4625
     8.3852   8.3852   8.4811   9.5939

     the Fermi energy is     7.5769 ev

!    total energy              =     -65.61851938 Ry
     estimated scf accuracy    <          7.7E-11 Ry
     smearing contrib. (-TS)   =      -0.00015283 Ry
     internal energy E=F+TS    =     -65.61836655 Ry

     The total energy is F=E-TS. E is the sum of the following terms:
     one-electron contribution =     -24.62076615 Ry
     hartree contribution      =      12.26793762 Ry
     xc contribution           =     -17.19365467 Ry
     ewald contribution        =     -36.07188334 Ry

     convergence has been achieved in   8 iterations

     Forces acting on atoms (cartesian axes, Ry/au):

     atom    1 type  1   force =     0.00000000    0.00000000    0.00000000
     atom    2 type  2   force =    -0.00000193   -0.00000193   -0.00000193
     atom    3 type  2   force =    -0.00000193    0.00000193    0.00000193
     atom    4 type  2   force =     0.00000193    0.00000193   -0.00000193
     atom    5 type  2   force =     0.00000193   -0.00000193    0.00000193
     The non-local contrib.  to forces
     atom    1 type  1   force =     0.00000000    0.00000000    0.00000000
     atom    2 type  2   force =     0.01411429    0.01411429    0.01411429
     atom    3 type  2   force =     0.01411429   -0.01411429   -0.01411429
     atom    4 type  2   force =    -0.01411429   -0.01411429    0.01411429
     atom    5 type  2   force =    -0.01411429    0.01411429   -0.01411429
     The ionic contribution  to forces
     atom    1 type  1   force =    -0.00000000    0.00000000    0.00000000
     atom    2 type  2   force =    -0.16274847   -0.16274847   -0.16274847
     atom    3 type  2   force =    -0.16274847    0.16274847    0.16274847
     atom    4 type  2   force =     0.16274847    0.16274847   -0.16274847
     atom    5 type  2   force =     0.16274847   -0.16274847    0.16274847
     The local contribution  to forces
     atom    1 type  1   force =     0.00000000    0.00000000    0.00000000
     atom    2 type  2   force =     0.14862789    0.14862789    0.14862789
     atom    3 type  2   force =     0.14862789   -0.14862789   -0.14862789
     atom    4 type  2   force =    -0.14862789   -0.14862789    0.14862789
     atom    5 type  2   force =    -0.14862789    0.14862789   -0.14862789
     The core correction contribution to forces
     atom    1 type  1   force =    -0.00000000   -0.00000000   -0.00000000
     atom    2 type  2   force =     0.00000000    0.00000000    0.00000000
     atom    3 type  2   force =     0.00000000    0.00000000    0.00000000
     atom    4 type  2   force =     0.00000000    0.00000000    0.00000000
     atom    5 type  2   force =     0.00000000    0.00000000    0.00000000
     The Hubbard contrib.    to forces
     atom    1 type  1   force =     0.00000000    0.00000000    0.00000000
     atom    2 type  2   force =     0.00000000    0.00000000    0.00000000
     atom    3 type  2   force =     0.00000000    0.00000000    0.00000000
     atom    4 type  2   force =     0.00000000    0.00000000    0.00000000
     atom    5 type  2   force =     0.00000000    0.00000000    0.00000000
     The SCF correction term to forces
     atom    1 type  1   force =    -0.00000000    0.00000000   -0.00000000
     atom    2 type  2   force =     0.00000436    0.00000436    0.00000436
     atom    3 type  2   force =     0.00000436   -0.00000436   -0.00000436
     atom    4 type  2   force =    -0.00000436   -0.00000436    0.00000436
     atom    5 type  2   force =    -0.00000436    0.00000436   -0.00000436

     Total force =     0.000007     Total SCF correction =     0.000015
     SCF correction compared to forces is large: reduce conv_thr to get better values


     Computing stress (Cartesian axis) and pressure

          total   stress  (Ry/bohr**3)                   (kbar)     P=      500.04
   0.00339922   0.00000000   0.00000000          500.04        0.00        0.00
   0.00000000   0.00339922   0.00000000            0.00      500.04        0.00
   0.00000000   0.00000000   0.00339922            0.00        0.00      500.04


     Writing all to output data dir ./output/SiLi.save/

     init_run     :      1.05s CPU      1.33s WALL (       2 calls)
     electrons    :     18.72s CPU     22.38s WALL (       8 calls)
     update_pot   :      2.80s CPU      2.90s WALL (       6 calls)
     forces       :      1.95s CPU      2.06s WALL (       8 calls)
     stress       :      6.17s CPU      6.66s WALL (       8 calls)

     Called by init_run:
     wfcinit      :      0.15s CPU      0.16s WALL (       2 calls)
     potinit      :      0.36s CPU      0.48s WALL (       2 calls)
     hinit0       :      0.49s CPU      0.61s WALL (       2 calls)

     Called by electrons:
     c_bands      :     15.61s CPU     17.94s WALL (      64 calls)
     sum_band     :      2.35s CPU      2.74s WALL (      64 calls)
     v_of_rho     :      0.75s CPU      1.52s WALL (      70 calls)
     mix_rho      :      0.06s CPU      0.20s WALL (      64 calls)

     Called by c_bands:
     init_us_2    :      0.51s CPU      0.59s WALL (    2920 calls)
     init_us_2:cp :      0.50s CPU      0.58s WALL (    2920 calls)
     cegterg      :     14.60s CPU     15.45s WALL (    1280 calls)

     Called by *egterg:
     cdiaghg      :      0.77s CPU      0.82s WALL (    4858 calls)
     h_psi        :     12.46s CPU     13.16s WALL (    5058 calls)
     g_psi        :      0.07s CPU      0.08s WALL (    3738 calls)

     Called by h_psi:
     h_psi:calbec :      0.76s CPU      0.81s WALL (    5058 calls)
     vloc_psi     :     11.06s CPU     11.66s WALL (    5058 calls)
     add_vuspsi   :      0.59s CPU      0.62s WALL (    5058 calls)

     General routines
     calbec       :      0.93s CPU      0.99s WALL (    5858 calls)
     fft          :      0.93s CPU      2.10s WALL (     900 calls)
     ffts         :      0.03s CPU      0.07s WALL (      64 calls)
     fftw         :     11.59s CPU     12.18s WALL (  102198 calls)

     Parallel routines

     PWSCF        :     30.94s CPU     35.82s WALL


   This run was terminated on:  20: 0:28  29Dec2024            

=------------------------------------------------------------------------------=
   JOB DONE.
=------------------------------------------------------------------------------=
