
     Program PWSCF v.7.3.1 starts on 18Feb2025 at 18:43:53 

     This program is part of the open-source Quantum ESPRESSO suite
     for quantum simulation of materials; please cite
         "P. Giannozzi et al., J. Phys.:Condens. Matter 21 395502 (2009);
         "P. Giannozzi et al., J. Phys.:Condens. Matter 29 465901 (2017);
         "P. Giannozzi et al., J. Chem. Phys. 152 154105 (2020);
          URL http://www.quantum-espresso.org", 
     in publications or presentations arising from this work. More details at
     http://www.quantum-espresso.org/quote

     Parallel version (MPI & OpenMP), running on      16 processor cores
     Number of MPI processes:                16
     Threads/MPI process:                     1

     MPI processes distributed on     1 nodes
     492435 MiB available memory on the printing compute node when the environment starts

     Waiting for input...
     Reading input from standard input

     Current dimensions of program PWSCF are:
     Max number of different atomic species (ntypx) = 10
     Max number of k-points (npk) =  40000
     Max angular momentum in pseudopotentials (lmaxx) =  4

     R & G space division:  proc/nbgrp/npool/nimage =      16
     Subspace diagonalization in iterative solution of the eigenvalue problem:
     a serial algorithm will be used


     Parallelization info
     --------------------
     sticks:   dense  smooth     PW     G-vecs:    dense   smooth      PW
     Min         127     127     39                 3629     3629     623
     Max         128     128     40                 3631     3631     625
     Sum        2037    2037    631                58077    58077    9983

     Using Slab Decomposition



     bravais-lattice index     =            7
     lattice parameter (alat)  =       8.3196  a.u.
     unit-cell volume          =     600.9915 (a.u.)^3
     number of atoms/cell      =           10
     number of atomic types    =            2
     number of electrons       =        32.00
     number of Kohn-Sham states=           20
     kinetic-energy cutoff     =      80.0000  Ry
     charge density cutoff     =     320.0000  Ry
     scf convergence threshold =      1.0E-08
     mixing beta               =       0.7000
     number of iterations used =            8  plain     mixing
     energy convergence thresh.=      1.0E-04
     force convergence thresh. =      5.0E-04
     press convergence thresh. =      1.0E+00
     Exchange-correlation= PBE
                           (   1   4   3   4   0   0   0)
     nstep                     =           50


     celldm(1)=   8.319555  celldm(2)=   0.000000  celldm(3)=   2.087363
     celldm(4)=   0.000000  celldm(5)=   0.000000  celldm(6)=   0.000000

     crystal axes: (cart. coord. in units of alat)
               a(1) = (   0.500000  -0.500000   1.043681 )  
               a(2) = (   0.500000   0.500000   1.043681 )  
               a(3) = (  -0.500000  -0.500000   1.043681 )  

     reciprocal axes: (cart. coord. in units 2 pi/alat)
               b(1) = (  1.000000 -1.000000  0.000000 )  
               b(2) = (  0.000000  1.000000  0.479073 )  
               b(3) = ( -1.000000  0.000000  0.479073 )  


     PseudoPot. # 1 for Si read from file:
     ../pseudo/Si_ONCV_PBE_sr.upf
     MD5 check sum: e543d271109d17c80368dfa7c482276d
     Pseudo is Norm-conserving + core correction, Zval =  4.0
     Generated using ONCVPSP code by D. R. Hamann
     Using radial grid of 1510 points,  6 beta functions with: 
                l(1) =   0
                l(2) =   0
                l(3) =   1
                l(4) =   1
                l(5) =   2
                l(6) =   2

     PseudoPot. # 2 for Li read from file:
     ../pseudo/Li_ONCV_PBE_sr.upf
     MD5 check sum: 50ff420e78310ffa21704f3361e624a4
     Pseudo is Norm-conserving, Zval =  3.0
     Generated using ONCVPSP code by D. R. Hamann
     Using radial grid of 1944 points,  4 beta functions with: 
                l(1) =   0
                l(2) =   0
                l(3) =   1
                l(4) =   1

     atomic species   valence    mass     pseudopotential
     Si                4.00    28.08550     Si( 1.00)
     Li                3.00     6.94100     Li( 1.00)

     16 Sym. Ops., with inversion, found ( 8 have fractional translation)



   Cartesian axes

     site n.     atom                  positions (alat units)
         1        Si     tau(   1) = (   0.0000000   0.0000000   0.5218407  )
         2        Si     tau(   2) = (   0.0000000   0.0000000   1.5655222  )
         3        Li     tau(   3) = (   0.1580985   0.6580985   0.2405780  )
         4        Li     tau(   4) = (   0.8419015   0.3419015   1.8467850  )
         5        Li     tau(   5) = (   0.3419015   0.1580985   0.2405780  )
         6        Li     tau(   6) = (   0.6580985   0.8419015   1.8467850  )
         7        Li     tau(   7) = (   0.8419015   0.3419015   0.2405780  )
         8        Li     tau(   8) = (   0.1580985   0.6580985   1.8467850  )
         9        Li     tau(   9) = (   0.6580985   0.8419015   0.2405780  )
        10        Li     tau(  10) = (   0.3419015   0.1580985   1.8467850  )

     number of k points=   213  Marzari-Vanderbilt smearing, width (Ry)=  0.0200

     Number of k-points >= 100: set verbosity='high' to print them.

     Dense  grid:    58077 G-vectors     FFT dimensions: (  60,  60,  60)

     Estimated max dynamical RAM per process >      44.72 MB

     Estimated total dynamical RAM >     715.51 MB

     Initial potential from superposition of free atoms

     starting charge      31.9623, renormalised to      32.0000
     Starting wfcs are   24 randomized atomic wfcs

     total cpu time spent up to now is        4.4 secs

     per-process dynamical memory:    64.2 Mb

     Self-consistent Calculation

     iteration #  1     ecut=    80.00 Ry     beta= 0.70
     CG style diagonalization
     ethr =  1.00E-02,  avg # of iterations =  3.4

     Threshold (ethr) on eigenvalues was too large:
     Diagonalizing with lowered threshold

     CG style diagonalization
     ethr =  8.06E-04,  avg # of iterations =  2.8

     total cpu time spent up to now is       22.9 secs

     total energy              =    -131.28847678 Ry
     estimated scf accuracy    <       0.19892182 Ry

     iteration #  2     ecut=    80.00 Ry     beta= 0.70
     CG style diagonalization
     ethr =  6.22E-04,  avg # of iterations =  3.8

     total cpu time spent up to now is       33.1 secs

     total energy              =    -131.33109143 Ry
     estimated scf accuracy    <       0.36097900 Ry

     iteration #  3     ecut=    80.00 Ry     beta= 0.70
     CG style diagonalization
     ethr =  6.22E-04,  avg # of iterations =  3.4

     total cpu time spent up to now is       42.3 secs

     total energy              =    -131.38579200 Ry
     estimated scf accuracy    <       0.00205194 Ry

     iteration #  4     ecut=    80.00 Ry     beta= 0.70
     CG style diagonalization
     c_bands:  1 eigenvalues not converged
     c_bands:  1 eigenvalues not converged
     c_bands:  1 eigenvalues not converged
     c_bands:  1 eigenvalues not converged
     c_bands:  1 eigenvalues not converged
     c_bands:  1 eigenvalues not converged
     c_bands:  1 eigenvalues not converged
     c_bands:  1 eigenvalues not converged
     c_bands:  1 eigenvalues not converged
     c_bands:  1 eigenvalues not converged
     c_bands:  1 eigenvalues not converged
     ethr =  6.41E-06,  avg # of iterations =  4.9

     total cpu time spent up to now is       55.4 secs

     total energy              =    -131.38708959 Ry
     estimated scf accuracy    <       0.00074861 Ry

     iteration #  5     ecut=    80.00 Ry     beta= 0.70
     CG style diagonalization
     c_bands:  1 eigenvalues not converged
     ethr =  2.34E-06,  avg # of iterations =  3.2

     total cpu time spent up to now is       63.9 secs

     total energy              =    -131.38717472 Ry
     estimated scf accuracy    <       0.00002437 Ry

     iteration #  6     ecut=    80.00 Ry     beta= 0.70
     CG style diagonalization
     ethr =  7.62E-08,  avg # of iterations =  3.9

     total cpu time spent up to now is       74.2 secs

     total energy              =    -131.38718627 Ry
     estimated scf accuracy    <       0.00001504 Ry

     iteration #  7     ecut=    80.00 Ry     beta= 0.70
     CG style diagonalization
     ethr =  4.70E-08,  avg # of iterations =  3.1

     total cpu time spent up to now is       82.4 secs

     total energy              =    -131.38718834 Ry
     estimated scf accuracy    <       0.00000023 Ry

     iteration #  8     ecut=    80.00 Ry     beta= 0.70
     CG style diagonalization
     ethr =  7.04E-10,  avg # of iterations =  4.3

     total cpu time spent up to now is       94.0 secs

     End of self-consistent calculation

     Number of k-points >= 100: set verbosity='high' to print the bands.

     the Fermi energy is     6.9736 ev

!    total energy              =    -131.38718846 Ry
     estimated scf accuracy    <          2.9E-09 Ry
     smearing contrib. (-TS)   =       0.00107440 Ry
     internal energy E=F+TS    =    -131.38826286 Ry

     The total energy is F=E-TS. E is the sum of the following terms:
     one-electron contribution =     -47.92491573 Ry
     hartree contribution      =      24.73425501 Ry
     xc contribution           =     -34.64515925 Ry
     ewald contribution        =     -73.55244289 Ry

     convergence has been achieved in   8 iterations

     Forces acting on atoms (cartesian axes, Ry/au):

     atom    1 type  1   force =    -0.00000000    0.00000000    0.00000000
     atom    2 type  1   force =     0.00000000    0.00000000   -0.00000000
     atom    3 type  2   force =    -0.00441604   -0.00441604   -0.05963073
     atom    4 type  2   force =     0.00441604    0.00441604    0.05963073
     atom    5 type  2   force =     0.00441604   -0.00441604   -0.05963073
     atom    6 type  2   force =    -0.00441604    0.00441604    0.05963073
     atom    7 type  2   force =     0.00441604    0.00441604   -0.05963073
     atom    8 type  2   force =    -0.00441604   -0.00441604    0.05963073
     atom    9 type  2   force =    -0.00441604    0.00441604   -0.05963073
     atom   10 type  2   force =     0.00441604   -0.00441604    0.05963073

     Total force =     0.169584     Total SCF correction =     0.000045


     Computing stress (Cartesian axis) and pressure

          total   stress  (Ry/bohr**3)                   (kbar)     P=      597.91
   0.00418710  -0.00000000  -0.00000000          615.94       -0.00       -0.00
  -0.00000000   0.00418710   0.00000000           -0.00      615.94        0.00
  -0.00000000   0.00000000   0.00381942           -0.00        0.00      561.86


     BFGS Geometry Optimization
     Energy error            =      0.0E+00 Ry
     Gradient error          =      6.0E-02 Ry/Bohr
     Cell gradient error     =      1.2E+02 kbar

     number of scf cycles    =   1
     number of bfgs steps    =   0

     enthalpy           new  =    -129.3444600273 Ry

     new trust radius        =       0.0966106889 bohr
ibrav =      7
 celldm(1) =      8.48348614
 celldm(3) =      2.06854666
Input lattice vectors:
     0.50985215    -0.50985215     1.05465296
     0.50985215     0.50985215     1.05465296
    -0.50985215    -0.50985215     1.05465296
New lattice vectors in INITIAL alat:
     0.50985215    -0.50985215     1.05465296
     0.50985215     0.50985215     1.05465296
    -0.50985215    -0.50985215     1.05465296
New lattice vectors in NEW alat (for information only):
     0.50000000    -0.50000000     1.03427333
     0.50000000     0.50000000     1.03427333
    -0.50000000    -0.50000000     1.03427333
Discrepancy in bohr =     0.000000    0.000000    0.000000
     new conv_thr            =       0.0000000100 Ry

     new unit-cell volume =    631.47824 a.u.^3 (    93.57542 Ang^3 )
     density =      1.98215 g/cm^3

CELL_PARAMETERS (alat=  8.31955512)
   0.509852151  -0.509852151   1.054652963
   0.509852151   0.509852151   1.054652963
  -0.509852151  -0.509852151   1.054652963

ATOMIC_POSITIONS (crystal)
Si               0.0000000000        0.2500000000        0.2500000000
Si               0.0000000000        0.7500000000        0.7500000000
Li              -0.5000000000        0.7693884213       -0.0457469742
Li               0.5000000000        1.2306115787        0.0457469742
Li               0.1848646046        0.2693884213       -0.2306115787
Li              -0.1848646046        1.7306115787        0.2306115787
Li               0.5000000000        0.4542530258       -0.7306115787
Li              -0.5000000000        1.5457469742        0.7306115787
Li              -0.1848646046        0.9542530258       -0.5457469742
Li               0.1848646046        1.0457469742        0.5457469742



     Writing config-only to output data dir ./output/SiLi.save/ :
     XML data file
     NEW-OLD atomic charge density approx. for the potential

     total cpu time spent up to now is      100.2 secs

     per-process dynamical memory:    68.2 Mb

     Self-consistent Calculation

     iteration #  1     ecut=    80.00 Ry     beta= 0.70
     CG style diagonalization
     c_bands:  1 eigenvalues not converged
     c_bands:  1 eigenvalues not converged
     c_bands:  1 eigenvalues not converged
     c_bands:  1 eigenvalues not converged
     c_bands:  1 eigenvalues not converged
     c_bands:  1 eigenvalues not converged
     c_bands:  2 eigenvalues not converged
     c_bands:  1 eigenvalues not converged
     c_bands:  1 eigenvalues not converged
     c_bands:  1 eigenvalues not converged
     c_bands:  1 eigenvalues not converged
     c_bands:  1 eigenvalues not converged
     c_bands:  1 eigenvalues not converged
     c_bands:  1 eigenvalues not converged
     c_bands:  1 eigenvalues not converged
     c_bands:  1 eigenvalues not converged
     c_bands:  2 eigenvalues not converged
     c_bands:  1 eigenvalues not converged
     c_bands:  1 eigenvalues not converged
     c_bands:  1 eigenvalues not converged
     c_bands:  1 eigenvalues not converged
     c_bands:  1 eigenvalues not converged
     c_bands:  1 eigenvalues not converged
     c_bands:  1 eigenvalues not converged
     c_bands:  1 eigenvalues not converged
     c_bands:  1 eigenvalues not converged
     c_bands:  1 eigenvalues not converged
     c_bands:  1 eigenvalues not converged
     c_bands:  1 eigenvalues not converged
     c_bands:  1 eigenvalues not converged
     c_bands:  2 eigenvalues not converged
     c_bands:  1 eigenvalues not converged
     c_bands:  1 eigenvalues not converged
     c_bands:  1 eigenvalues not converged
     c_bands:  1 eigenvalues not converged
     c_bands:  1 eigenvalues not converged
     c_bands:  1 eigenvalues not converged
     c_bands:  1 eigenvalues not converged
     c_bands:  1 eigenvalues not converged
     c_bands:  1 eigenvalues not converged
     c_bands:  2 eigenvalues not converged
     ethr =  1.00E-06,  avg # of iterations =  8.7

     total cpu time spent up to now is      125.4 secs

     total energy              =    -131.51659395 Ry
     estimated scf accuracy    <       0.01404064 Ry

     iteration #  2     ecut=    80.00 Ry     beta= 0.70
     CG style diagonalization
     ethr =  4.39E-05,  avg # of iterations =  3.7

     total cpu time spent up to now is      135.2 secs

     total energy              =    -131.51844164 Ry
     estimated scf accuracy    <       0.03223164 Ry

     iteration #  3     ecut=    80.00 Ry     beta= 0.70
     CG style diagonalization
     ethr =  4.39E-05,  avg # of iterations =  3.4

     total cpu time spent up to now is      144.2 secs

     total energy              =    -131.52373079 Ry
     estimated scf accuracy    <       0.00001530 Ry

     iteration #  4     ecut=    80.00 Ry     beta= 0.70
     CG style diagonalization
     ethr =  4.78E-08,  avg # of iterations =  5.1

     total cpu time spent up to now is      157.7 secs

     total energy              =    -131.52380691 Ry
     estimated scf accuracy    <       0.00001545 Ry

     iteration #  5     ecut=    80.00 Ry     beta= 0.70
     CG style diagonalization
     ethr =  4.78E-08,  avg # of iterations =  3.1

     total cpu time spent up to now is      165.8 secs

     total energy              =    -131.52380877 Ry
     estimated scf accuracy    <       0.00000040 Ry

     iteration #  6     ecut=    80.00 Ry     beta= 0.70
     CG style diagonalization
     ethr =  1.26E-09,  avg # of iterations =  3.6

     total cpu time spent up to now is      175.6 secs

     total energy              =    -131.52380888 Ry
     estimated scf accuracy    <       0.00000001 Ry

     iteration #  7     ecut=    80.00 Ry     beta= 0.70
     CG style diagonalization
     ethr =  3.48E-11,  avg # of iterations =  3.7

     total cpu time spent up to now is      185.4 secs

     End of self-consistent calculation

     Number of k-points >= 100: set verbosity='high' to print the bands.

     the Fermi energy is     6.5514 ev

!    total energy              =    -131.52380888 Ry
     estimated scf accuracy    <          2.1E-09 Ry
     smearing contrib. (-TS)   =       0.00111331 Ry
     internal energy E=F+TS    =    -131.52492220 Ry

     The total energy is F=E-TS. E is the sum of the following terms:
     one-electron contribution =     -49.08641463 Ry
     hartree contribution      =      24.74937752 Ry
     xc contribution           =     -34.46524044 Ry
     ewald contribution        =     -72.72264465 Ry

     convergence has been achieved in   7 iterations

     Forces acting on atoms (cartesian axes, Ry/au):

     atom    1 type  1   force =     0.00000000    0.00000000   -0.00000000
     atom    2 type  1   force =     0.00000000    0.00000000    0.00000000
     atom    3 type  2   force =     0.00146116    0.00146116   -0.03615659
     atom    4 type  2   force =    -0.00146116   -0.00146116    0.03615659
     atom    5 type  2   force =    -0.00146116    0.00146116   -0.03615659
     atom    6 type  2   force =     0.00146116   -0.00146116    0.03615659
     atom    7 type  2   force =    -0.00146116   -0.00146116   -0.03615659
     atom    8 type  2   force =     0.00146116    0.00146116    0.03615659
     atom    9 type  2   force =     0.00146116   -0.00146116   -0.03615659
     atom   10 type  2   force =    -0.00146116    0.00146116    0.03615659

     Total force =     0.102433     Total SCF correction =     0.000093


     Computing stress (Cartesian axis) and pressure

          total   stress  (Ry/bohr**3)                   (kbar)     P=      493.66
   0.00339930  -0.00000000  -0.00000000          500.05       -0.00       -0.00
  -0.00000000   0.00339930   0.00000000           -0.00      500.05        0.00
  -0.00000000   0.00000000   0.00326885           -0.00        0.00      480.86

     Energy error            =      3.3E-02 Ry
     Gradient error          =      3.6E-02 Ry/Bohr
     Cell gradient error     =      1.9E+01 kbar

     number of scf cycles    =   2
     number of bfgs steps    =   1

     enthalpy           old  =    -129.3444600273 Ry
     enthalpy           new  =    -129.3774579697 Ry

     CASE: enthalpy          _new < enthalpy          _old

     new trust radius        =       0.0699253256 bohr
ibrav =      7
 celldm(1) =      8.52408507
 celldm(3) =      2.05371606
Input lattice vectors:
     0.51229212    -0.51229212     1.05210256
     0.51229212     0.51229212     1.05210256
    -0.51229212    -0.51229212     1.05210256
New lattice vectors in INITIAL alat:
     0.51229212    -0.51229212     1.05210256
     0.51229212     0.51229212     1.05210256
    -0.51229212    -0.51229212     1.05210256
New lattice vectors in NEW alat (for information only):
     0.50000000    -0.50000000     1.02685803
     0.50000000     0.50000000     1.02685803
    -0.50000000    -0.50000000     1.02685803
Discrepancy in bohr =     0.000000    0.000000    0.000000
     new conv_thr            =       0.0000000072 Ry

     new unit-cell volume =    635.99504 a.u.^3 (    94.24474 Ang^3 )
     density =      1.96807 g/cm^3

CELL_PARAMETERS (alat=  8.31955512)
   0.512292121  -0.512292121   1.052102558
   0.512292121   0.512292121   1.052102558
  -0.512292121  -0.512292121   1.052102558

ATOMIC_POSITIONS (crystal)
Si              -0.0000000000        0.2500000000        0.2500000000
Si              -0.0000000000        0.7500000000        0.7500000000
Li              -0.5000000000        0.7655406501       -0.0498664234
Li               0.5000000000        1.2344593499        0.0498664234
Li               0.1845929265        0.2655406501       -0.2344593499
Li              -0.1845929265        1.7344593499        0.2344593499
Li               0.5000000000        0.4501335766       -0.7344593499
Li              -0.5000000000        1.5498664234        0.7344593499
Li              -0.1845929265        0.9501335766       -0.5498664234
Li               0.1845929265        1.0498664234        0.5498664234



     Writing config-only to output data dir ./output/SiLi.save/ :
     XML data file
     NEW-OLD atomic charge density approx. for the potential

     total cpu time spent up to now is      191.5 secs

     per-process dynamical memory:    68.2 Mb

     Self-consistent Calculation

     iteration #  1     ecut=    80.00 Ry     beta= 0.70
     CG style diagonalization
     c_bands:  1 eigenvalues not converged
     c_bands:  1 eigenvalues not converged
     c_bands:  1 eigenvalues not converged
     c_bands:  1 eigenvalues not converged
     c_bands:  1 eigenvalues not converged
     c_bands:  1 eigenvalues not converged
     c_bands:  2 eigenvalues not converged
     c_bands:  1 eigenvalues not converged
     c_bands:  2 eigenvalues not converged
     c_bands:  1 eigenvalues not converged
     c_bands:  1 eigenvalues not converged
     c_bands:  1 eigenvalues not converged
     c_bands:  1 eigenvalues not converged
     c_bands:  1 eigenvalues not converged
     c_bands:  2 eigenvalues not converged
     c_bands:  1 eigenvalues not converged
     c_bands:  2 eigenvalues not converged
     c_bands:  1 eigenvalues not converged
     c_bands:  1 eigenvalues not converged
     c_bands:  1 eigenvalues not converged
     c_bands:  1 eigenvalues not converged
     c_bands:  1 eigenvalues not converged
     c_bands:  2 eigenvalues not converged
     c_bands:  1 eigenvalues not converged
     c_bands:  3 eigenvalues not converged
     c_bands:  2 eigenvalues not converged
     c_bands:  1 eigenvalues not converged
     c_bands:  1 eigenvalues not converged
     c_bands:  1 eigenvalues not converged
     c_bands:  1 eigenvalues not converged
     c_bands:  1 eigenvalues not converged
     c_bands:  1 eigenvalues not converged
     c_bands:  1 eigenvalues not converged
     c_bands:  1 eigenvalues not converged
     c_bands:  1 eigenvalues not converged
     c_bands:  1 eigenvalues not converged
     c_bands:  1 eigenvalues not converged
     c_bands:  1 eigenvalues not converged
     c_bands:  1 eigenvalues not converged
     c_bands:  1 eigenvalues not converged
     c_bands:  1 eigenvalues not converged
     ethr =  1.00E-06,  avg # of iterations =  8.7

     total cpu time spent up to now is      216.0 secs

     total energy              =    -131.54555889 Ry
     estimated scf accuracy    <       0.01620188 Ry

     iteration #  2     ecut=    80.00 Ry     beta= 0.70
     CG style diagonalization
     ethr =  5.06E-05,  avg # of iterations =  3.7

     total cpu time spent up to now is      225.8 secs

     total energy              =    -131.54776173 Ry
     estimated scf accuracy    <       0.03680967 Ry

     iteration #  3     ecut=    80.00 Ry     beta= 0.70
     CG style diagonalization
     ethr =  5.06E-05,  avg # of iterations =  3.4

     total cpu time spent up to now is      234.7 secs

     total energy              =    -131.55380346 Ry
     estimated scf accuracy    <       0.00001574 Ry

     iteration #  4     ecut=    80.00 Ry     beta= 0.70
     CG style diagonalization
     c_bands:  1 eigenvalues not converged
     ethr =  4.92E-08,  avg # of iterations =  5.1

     total cpu time spent up to now is      248.4 secs

     total energy              =    -131.55389064 Ry
     estimated scf accuracy    <       0.00001410 Ry

     iteration #  5     ecut=    80.00 Ry     beta= 0.70
     CG style diagonalization
     ethr =  4.41E-08,  avg # of iterations =  3.2

     total cpu time spent up to now is      256.9 secs

     total energy              =    -131.55389301 Ry
     estimated scf accuracy    <       0.00000007 Ry

     iteration #  6     ecut=    80.00 Ry     beta= 0.70
     CG style diagonalization
     ethr =  2.19E-10,  avg # of iterations =  4.3

     total cpu time spent up to now is      268.6 secs

     total energy              =    -131.55389308 Ry
     estimated scf accuracy    <       0.00000001 Ry

     iteration #  7     ecut=    80.00 Ry     beta= 0.70
     CG style diagonalization
     ethr =  4.29E-11,  avg # of iterations =  3.2

     total cpu time spent up to now is      277.3 secs

     End of self-consistent calculation

     Number of k-points >= 100: set verbosity='high' to print the bands.

     the Fermi energy is     6.5071 ev

!    total energy              =    -131.55389309 Ry
     estimated scf accuracy    <          6.2E-11 Ry
     smearing contrib. (-TS)   =       0.00121677 Ry
     internal energy E=F+TS    =    -131.55510985 Ry

     The total energy is F=E-TS. E is the sum of the following terms:
     one-electron contribution =     -48.86712925 Ry
     hartree contribution      =      24.55150183 Ry
     xc contribution           =     -34.41297840 Ry
     ewald contribution        =     -72.82650403 Ry

     convergence has been achieved in   7 iterations

     Forces acting on atoms (cartesian axes, Ry/au):

     atom    1 type  1   force =     0.00000000   -0.00000000   -0.00000000
     atom    2 type  1   force =     0.00000000   -0.00000000   -0.00000000
     atom    3 type  2   force =     0.00482747    0.00482747   -0.01835671
     atom    4 type  2   force =    -0.00482747   -0.00482747    0.01835671
     atom    5 type  2   force =    -0.00482747    0.00482747   -0.01835671
     atom    6 type  2   force =     0.00482747   -0.00482747    0.01835671
     atom    7 type  2   force =    -0.00482747   -0.00482747   -0.01835671
     atom    8 type  2   force =     0.00482747    0.00482747    0.01835671
     atom    9 type  2   force =     0.00482747   -0.00482747   -0.01835671
     atom   10 type  2   force =    -0.00482747    0.00482747    0.01835671

     Total force =     0.055395     Total SCF correction =     0.000015


     Computing stress (Cartesian axis) and pressure

          total   stress  (Ry/bohr**3)                   (kbar)     P=      465.78
   0.00313459   0.00000000   0.00000000          461.11        0.00        0.00
   0.00000000   0.00313459  -0.00000000            0.00      461.11       -0.00
   0.00000000  -0.00000000   0.00322970            0.00       -0.00      475.10

     Energy error            =      1.5E-02 Ry
     Gradient error          =      1.8E-02 Ry/Bohr
     Cell gradient error     =      3.9E+01 kbar

     number of scf cycles    =   3
     number of bfgs steps    =   2

     enthalpy           old  =    -129.3774579697 Ry
     enthalpy           new  =    -129.3921898677 Ry

     CASE: enthalpy          _new < enthalpy          _old

     new trust radius        =       0.0781008529 bohr
ibrav =      7
 celldm(1) =      8.48662858
 celldm(3) =      2.05107752
Input lattice vectors:
     0.51004101    -0.51004101     1.04613365
     0.51004101     0.51004101     1.04613365
    -0.51004101    -0.51004101     1.04613365
New lattice vectors in INITIAL alat:
     0.51004101    -0.51004101     1.04613365
     0.51004101     0.51004101     1.04613365
    -0.51004101    -0.51004101     1.04613365
New lattice vectors in NEW alat (for information only):
     0.50000000    -0.50000000     1.02553876
     0.50000000     0.50000000     1.02553876
    -0.50000000    -0.50000000     1.02553876
Discrepancy in bohr =     0.000000    0.000000    0.000000
     new conv_thr            =       0.0000000037 Ry

     new unit-cell volume =    626.84139 a.u.^3 (    92.88831 Ang^3 )
     density =      1.99681 g/cm^3

CELL_PARAMETERS (alat=  8.31955512)
   0.510041009  -0.510041009   1.046133650
   0.510041009   0.510041009   1.046133650
  -0.510041009  -0.510041009   1.046133650

ATOMIC_POSITIONS (crystal)
Si              -0.0000000000        0.2500000000        0.2500000000
Si              -0.0000000000        0.7500000000        0.7500000000
Li              -0.5000000000        0.7620821323       -0.0552333288
Li               0.5000000000        1.2379178677        0.0552333288
Li               0.1826845389        0.2620821323       -0.2379178677
Li              -0.1826845389        1.7379178677        0.2379178677
Li               0.5000000000        0.4447666712       -0.7379178677
Li              -0.5000000000        1.5552333288        0.7379178677
Li              -0.1826845389        0.9447666712       -0.5552333288
Li               0.1826845389        1.0552333288        0.5552333288



     Writing config-only to output data dir ./output/SiLi.save/ :
     XML data file
     NEW-OLD atomic charge density approx. for the potential

     total cpu time spent up to now is      283.4 secs

     per-process dynamical memory:    68.3 Mb

     Self-consistent Calculation

     iteration #  1     ecut=    80.00 Ry     beta= 0.70
     CG style diagonalization
     c_bands:  2 eigenvalues not converged
     c_bands:  1 eigenvalues not converged
     c_bands:  1 eigenvalues not converged
     c_bands:  1 eigenvalues not converged
     c_bands:  1 eigenvalues not converged
     c_bands:  1 eigenvalues not converged
     c_bands:  2 eigenvalues not converged
     c_bands:  1 eigenvalues not converged
     c_bands:  2 eigenvalues not converged
     c_bands:  1 eigenvalues not converged
     c_bands:  1 eigenvalues not converged
     c_bands:  1 eigenvalues not converged
     c_bands:  1 eigenvalues not converged
     c_bands:  2 eigenvalues not converged
     c_bands:  1 eigenvalues not converged
     c_bands:  2 eigenvalues not converged
     c_bands:  2 eigenvalues not converged
     c_bands:  1 eigenvalues not converged
     c_bands:  1 eigenvalues not converged
     c_bands:  1 eigenvalues not converged
     c_bands:  1 eigenvalues not converged
     c_bands:  2 eigenvalues not converged
     c_bands:  1 eigenvalues not converged
     c_bands:  1 eigenvalues not converged
     c_bands:  1 eigenvalues not converged
     c_bands:  1 eigenvalues not converged
     c_bands:  1 eigenvalues not converged
     c_bands:  2 eigenvalues not converged
     c_bands:  1 eigenvalues not converged
     c_bands:  1 eigenvalues not converged
     c_bands:  1 eigenvalues not converged
     c_bands:  2 eigenvalues not converged
     c_bands:  1 eigenvalues not converged
     c_bands:  1 eigenvalues not converged
     c_bands:  1 eigenvalues not converged
     c_bands:  2 eigenvalues not converged
     c_bands:  1 eigenvalues not converged
     c_bands:  2 eigenvalues not converged
     c_bands:  1 eigenvalues not converged
     c_bands:  1 eigenvalues not converged
     c_bands:  1 eigenvalues not converged
     c_bands:  1 eigenvalues not converged
     c_bands:  1 eigenvalues not converged
     c_bands:  1 eigenvalues not converged
     c_bands:  2 eigenvalues not converged
     c_bands:  2 eigenvalues not converged
     c_bands:  1 eigenvalues not converged
     c_bands:  1 eigenvalues not converged
     c_bands:  2 eigenvalues not converged
     c_bands:  1 eigenvalues not converged
     c_bands:  1 eigenvalues not converged
     c_bands:  1 eigenvalues not converged
     c_bands:  1 eigenvalues not converged
     c_bands:  1 eigenvalues not converged
     c_bands:  1 eigenvalues not converged
     c_bands:  1 eigenvalues not converged
     c_bands:  2 eigenvalues not converged
     c_bands:  1 eigenvalues not converged
     ethr =  1.00E-06,  avg # of iterations =  9.1

     total cpu time spent up to now is      308.8 secs

     total energy              =    -131.52178551 Ry
     estimated scf accuracy    <       0.01925348 Ry

     iteration #  2     ecut=    80.00 Ry     beta= 0.70
     CG style diagonalization
     ethr =  6.02E-05,  avg # of iterations =  3.7

     total cpu time spent up to now is      318.6 secs

     total energy              =    -131.52440558 Ry
     estimated scf accuracy    <       0.04357742 Ry

     iteration #  3     ecut=    80.00 Ry     beta= 0.70
     CG style diagonalization
     ethr =  6.02E-05,  avg # of iterations =  3.4

     total cpu time spent up to now is      327.5 secs

     total energy              =    -131.53158774 Ry
     estimated scf accuracy    <       0.00001570 Ry

     iteration #  4     ecut=    80.00 Ry     beta= 0.70
     CG style diagonalization
     ethr =  4.91E-08,  avg # of iterations =  5.2

     total cpu time spent up to now is      341.4 secs

     total energy              =    -131.53168887 Ry
     estimated scf accuracy    <       0.00001481 Ry

     iteration #  5     ecut=    80.00 Ry     beta= 0.70
     CG style diagonalization
     ethr =  4.63E-08,  avg # of iterations =  3.2

     total cpu time spent up to now is      350.0 secs

     total energy              =    -131.53169156 Ry
     estimated scf accuracy    <       0.00000011 Ry

     iteration #  6     ecut=    80.00 Ry     beta= 0.70
     CG style diagonalization
     ethr =  3.29E-10,  avg # of iterations =  4.0

     total cpu time spent up to now is      360.7 secs

     total energy              =    -131.53169163 Ry
     estimated scf accuracy    <       0.00000004 Ry

     iteration #  7     ecut=    80.00 Ry     beta= 0.70
     CG style diagonalization
     ethr =  1.22E-10,  avg # of iterations =  3.0

     total cpu time spent up to now is      368.7 secs

     End of self-consistent calculation

     Number of k-points >= 100: set verbosity='high' to print the bands.

     the Fermi energy is     6.6567 ev

!    total energy              =    -131.53169163 Ry
     estimated scf accuracy    <          1.3E-09 Ry
     smearing contrib. (-TS)   =       0.00123730 Ry
     internal energy E=F+TS    =    -131.53292894 Ry

     The total energy is F=E-TS. E is the sum of the following terms:
     one-electron contribution =     -48.11706084 Ry
     hartree contribution      =      24.32485434 Ry
     xc contribution           =     -34.42676138 Ry
     ewald contribution        =     -73.31396106 Ry

     convergence has been achieved in   7 iterations

     Forces acting on atoms (cartesian axes, Ry/au):

     atom    1 type  1   force =    -0.00000000   -0.00000000    0.00000000
     atom    2 type  1   force =     0.00000000    0.00000000   -0.00000000
     atom    3 type  2   force =     0.00691245    0.00691245   -0.00198289
     atom    4 type  2   force =    -0.00691245   -0.00691245    0.00198289
     atom    5 type  2   force =    -0.00691245    0.00691245   -0.00198289
     atom    6 type  2   force =     0.00691245   -0.00691245    0.00198289
     atom    7 type  2   force =    -0.00691245   -0.00691245   -0.00198289
     atom    8 type  2   force =     0.00691245    0.00691245    0.00198289
     atom    9 type  2   force =     0.00691245   -0.00691245   -0.00198289
     atom   10 type  2   force =    -0.00691245    0.00691245    0.00198289

     Total force =     0.028213     Total SCF correction =     0.000065


     Computing stress (Cartesian axis) and pressure

          total   stress  (Ry/bohr**3)                   (kbar)     P=      473.15
   0.00310215  -0.00000000  -0.00000000          456.34       -0.00       -0.00
  -0.00000000   0.00310215  -0.00000000           -0.00      456.34       -0.00
  -0.00000000   0.00000000   0.00344487           -0.00        0.00      506.76

     Energy error            =      8.9E-03 Ry
     Gradient error          =      6.9E-03 Ry/Bohr
     Cell gradient error     =      4.4E+01 kbar

     number of scf cycles    =   4
     number of bfgs steps    =   3

     enthalpy           old  =    -129.3921898677 Ry
     enthalpy           new  =    -129.4011010429 Ry

     CASE: enthalpy          _new < enthalpy          _old

     new trust radius        =       0.0415289269 bohr
ibrav =      7
 celldm(1) =      8.41624407
 celldm(3) =      2.07081079
Input lattice vectors:
     0.50581094    -0.50581094     1.04743876
     0.50581094     0.50581094     1.04743876
    -0.50581094    -0.50581094     1.04743876
New lattice vectors in INITIAL alat:
     0.50581094    -0.50581094     1.04743876
     0.50581094     0.50581094     1.04743876
    -0.50581094    -0.50581094     1.04743876
New lattice vectors in NEW alat (for information only):
     0.50000000    -0.50000000     1.03540539
     0.50000000     0.50000000     1.03540539
    -0.50000000    -0.50000000     1.03540539
Discrepancy in bohr =     0.000000    0.000000    0.000000
     new conv_thr            =       0.0000000014 Ry

     new unit-cell volume =    617.25609 a.u.^3 (    91.46792 Ang^3 )
     density =      2.02782 g/cm^3

CELL_PARAMETERS (alat=  8.31955512)
   0.505810945  -0.505810945   1.047438760
   0.505810945   0.505810945   1.047438760
  -0.505810945  -0.505810945   1.047438760

ATOMIC_POSITIONS (crystal)
Si              -0.0000000000        0.2500000000        0.2500000000
Si              -0.0000000000        0.7500000000        0.7500000000
Li              -0.5000000000        0.7614519686       -0.0584693946
Li               0.5000000000        1.2385480314        0.0584693946
Li               0.1800786368        0.2614519686       -0.2385480314
Li              -0.1800786368        1.7385480314        0.2385480314
Li               0.5000000000        0.4415306054       -0.7385480314
Li              -0.5000000000        1.5584693946        0.7385480314
Li              -0.1800786368        0.9415306054       -0.5584693946
Li               0.1800786368        1.0584693946        0.5584693946



     Writing config-only to output data dir ./output/SiLi.save/ :
     XML data file
     NEW-OLD atomic charge density approx. for the potential

     total cpu time spent up to now is      374.7 secs

     per-process dynamical memory:    68.3 Mb

     Self-consistent Calculation

     iteration #  1     ecut=    80.00 Ry     beta= 0.70
     CG style diagonalization
     c_bands:  1 eigenvalues not converged
     c_bands:  1 eigenvalues not converged
     c_bands:  1 eigenvalues not converged
     c_bands:  1 eigenvalues not converged
     c_bands:  2 eigenvalues not converged
     c_bands:  1 eigenvalues not converged
     c_bands:  1 eigenvalues not converged
     c_bands:  1 eigenvalues not converged
     c_bands:  1 eigenvalues not converged
     c_bands:  1 eigenvalues not converged
     c_bands:  1 eigenvalues not converged
     c_bands:  1 eigenvalues not converged
     c_bands:  1 eigenvalues not converged
     c_bands:  1 eigenvalues not converged
     c_bands:  1 eigenvalues not converged
     c_bands:  1 eigenvalues not converged
     c_bands:  1 eigenvalues not converged
     c_bands:  1 eigenvalues not converged
     c_bands:  1 eigenvalues not converged
     c_bands:  1 eigenvalues not converged
     c_bands:  1 eigenvalues not converged
     c_bands:  1 eigenvalues not converged
     c_bands:  1 eigenvalues not converged
     c_bands:  2 eigenvalues not converged
     ethr =  1.00E-06,  avg # of iterations =  7.6

     total cpu time spent up to now is      396.0 secs

     total energy              =    -131.50070399 Ry
     estimated scf accuracy    <       0.00442827 Ry

     iteration #  2     ecut=    80.00 Ry     beta= 0.70
     CG style diagonalization
     ethr =  1.38E-05,  avg # of iterations =  3.7

     total cpu time spent up to now is      405.9 secs

     total energy              =    -131.50122777 Ry
     estimated scf accuracy    <       0.01040677 Ry

     iteration #  3     ecut=    80.00 Ry     beta= 0.70
     CG style diagonalization
     ethr =  1.38E-05,  avg # of iterations =  3.4

     total cpu time spent up to now is      414.8 secs

     total energy              =    -131.50295866 Ry
     estimated scf accuracy    <       0.00000209 Ry

     iteration #  4     ecut=    80.00 Ry     beta= 0.70
     CG style diagonalization
     ethr =  6.53E-09,  avg # of iterations =  5.2

     total cpu time spent up to now is      428.7 secs

     total energy              =    -131.50298182 Ry
     estimated scf accuracy    <       0.00000362 Ry

     iteration #  5     ecut=    80.00 Ry     beta= 0.70
     CG style diagonalization
     ethr =  6.53E-09,  avg # of iterations =  3.3

     total cpu time spent up to now is      437.4 secs

     total energy              =    -131.50298239 Ry
     estimated scf accuracy    <       0.00000002 Ry

     iteration #  6     ecut=    80.00 Ry     beta= 0.70
     CG style diagonalization
     ethr =  5.14E-11,  avg # of iterations =  4.2

     total cpu time spent up to now is      448.6 secs

     total energy              =    -131.50298240 Ry
     estimated scf accuracy    <          1.7E-09 Ry

     iteration #  7     ecut=    80.00 Ry     beta= 0.70
     CG style diagonalization
     ethr =  5.37E-12,  avg # of iterations =  3.1

     total cpu time spent up to now is      456.8 secs

     End of self-consistent calculation

     Number of k-points >= 100: set verbosity='high' to print the bands.

     the Fermi energy is     6.7992 ev

!    total energy              =    -131.50298241 Ry
     estimated scf accuracy    <          9.8E-11 Ry
     smearing contrib. (-TS)   =       0.00125646 Ry
     internal energy E=F+TS    =    -131.50423887 Ry

     The total energy is F=E-TS. E is the sum of the following terms:
     one-electron contribution =     -47.53123306 Ry
     hartree contribution      =      24.20774708 Ry
     xc contribution           =     -34.46307637 Ry
     ewald contribution        =     -73.71767651 Ry

     convergence has been achieved in   7 iterations

     Forces acting on atoms (cartesian axes, Ry/au):

     atom    1 type  1   force =    -0.00000000   -0.00000000    0.00000000
     atom    2 type  1   force =     0.00000000    0.00000000   -0.00000000
     atom    3 type  2   force =     0.00682521    0.00682521    0.00238117
     atom    4 type  2   force =    -0.00682521   -0.00682521   -0.00238117
     atom    5 type  2   force =    -0.00682521    0.00682521    0.00238117
     atom    6 type  2   force =     0.00682521   -0.00682521   -0.00238117
     atom    7 type  2   force =    -0.00682521   -0.00682521    0.00238117
     atom    8 type  2   force =     0.00682521    0.00682521   -0.00238117
     atom    9 type  2   force =     0.00682521   -0.00682521    0.00238117
     atom   10 type  2   force =    -0.00682521    0.00682521   -0.00238117

     Total force =     0.028119     Total SCF correction =     0.000022


     Computing stress (Cartesian axis) and pressure

          total   stress  (Ry/bohr**3)                   (kbar)     P=      492.32
   0.00319591   0.00000000   0.00000000          470.13        0.00        0.00
  -0.00000000   0.00319591  -0.00000000           -0.00      470.13       -0.00
   0.00000000  -0.00000000   0.00364836            0.00       -0.00      536.69

     Energy error            =      3.9E-03 Ry
     Gradient error          =      6.8E-03 Ry/Bohr
     Cell gradient error     =      3.7E+01 kbar

     number of scf cycles    =   5
     number of bfgs steps    =   4

     enthalpy           old  =    -129.4011010429 Ry
     enthalpy           new  =    -129.4049715776 Ry

     CASE: enthalpy          _new < enthalpy          _old

     new trust radius        =       0.0457103061 bohr
ibrav =      7
 celldm(1) =      8.33882111
 celldm(3) =      2.10368637
Input lattice vectors:
     0.50115787    -0.50115787     1.05427899
     0.50115787     0.50115787     1.05427899
    -0.50115787    -0.50115787     1.05427899
New lattice vectors in INITIAL alat:
     0.50115787    -0.50115787     1.05427899
     0.50115787     0.50115787     1.05427899
    -0.50115787    -0.50115787     1.05427899
New lattice vectors in NEW alat (for information only):
     0.50000000    -0.50000000     1.05184319
     0.50000000     0.50000000     1.05184319
    -0.50000000    -0.50000000     1.05184319
Discrepancy in bohr =     0.000000    0.000000    0.000000
     new conv_thr            =       0.0000000014 Ry

     new unit-cell volume =    609.90890 a.u.^3 (    90.37917 Ang^3 )
     density =      2.05225 g/cm^3

CELL_PARAMETERS (alat=  8.31955512)
   0.501157874  -0.501157874   1.054278989
   0.501157874   0.501157874   1.054278989
  -0.501157874  -0.501157874   1.054278989

ATOMIC_POSITIONS (crystal)
Si              -0.0000000000        0.2500000000        0.2500000000
Si              -0.0000000000        0.7500000000        0.7500000000
Li              -0.5000000000        0.7615919802       -0.0614579717
Li               0.5000000000        1.2384080198        0.0614579717
Li               0.1769500481        0.2615919802       -0.2384080198
Li              -0.1769500481        1.7384080198        0.2384080198
Li               0.5000000000        0.4385420283       -0.7384080198
Li              -0.5000000000        1.5614579717        0.7384080198
Li              -0.1769500481        0.9385420283       -0.5614579717
Li               0.1769500481        1.0614579717        0.5614579717



     Writing config-only to output data dir ./output/SiLi.save/ :
     XML data file
     NEW-OLD atomic charge density approx. for the potential

     total cpu time spent up to now is      462.9 secs

     per-process dynamical memory:    68.3 Mb

     Self-consistent Calculation

     iteration #  1     ecut=    80.00 Ry     beta= 0.70
     CG style diagonalization
     c_bands:  1 eigenvalues not converged
     c_bands:  1 eigenvalues not converged
     c_bands:  2 eigenvalues not converged
     c_bands:  1 eigenvalues not converged
     c_bands:  1 eigenvalues not converged
     c_bands:  1 eigenvalues not converged
     c_bands:  1 eigenvalues not converged
     c_bands:  1 eigenvalues not converged
     c_bands:  1 eigenvalues not converged
     c_bands:  1 eigenvalues not converged
     c_bands:  1 eigenvalues not converged
     c_bands:  1 eigenvalues not converged
     c_bands:  1 eigenvalues not converged
     c_bands:  1 eigenvalues not converged
     c_bands:  1 eigenvalues not converged
     c_bands:  1 eigenvalues not converged
     c_bands:  1 eigenvalues not converged
     c_bands:  1 eigenvalues not converged
     c_bands:  1 eigenvalues not converged
     c_bands:  1 eigenvalues not converged
     c_bands:  1 eigenvalues not converged
     c_bands:  1 eigenvalues not converged
     c_bands:  1 eigenvalues not converged
     ethr =  1.00E-06,  avg # of iterations =  7.6

     total cpu time spent up to now is      484.2 secs

     total energy              =    -131.48031129 Ry
     estimated scf accuracy    <       0.00313195 Ry

     iteration #  2     ecut=    80.00 Ry     beta= 0.70
     CG style diagonalization
     ethr =  9.79E-06,  avg # of iterations =  3.7

     total cpu time spent up to now is      494.0 secs

     total energy              =    -131.48061419 Ry
     estimated scf accuracy    <       0.00767799 Ry

     iteration #  3     ecut=    80.00 Ry     beta= 0.70
     CG style diagonalization
     ethr =  9.79E-06,  avg # of iterations =  3.4

     total cpu time spent up to now is      503.0 secs

     total energy              =    -131.48190101 Ry
     estimated scf accuracy    <       0.00000143 Ry

     iteration #  4     ecut=    80.00 Ry     beta= 0.70
     CG style diagonalization
     ethr =  4.46E-09,  avg # of iterations =  5.2

     total cpu time spent up to now is      516.9 secs

     total energy              =    -131.48191680 Ry
     estimated scf accuracy    <       0.00000262 Ry

     iteration #  5     ecut=    80.00 Ry     beta= 0.70
     CG style diagonalization
     ethr =  4.46E-09,  avg # of iterations =  3.3

     total cpu time spent up to now is      525.8 secs

     total energy              =    -131.48191726 Ry
     estimated scf accuracy    <       0.00000001 Ry

     iteration #  6     ecut=    80.00 Ry     beta= 0.70
     CG style diagonalization
     ethr =  4.59E-11,  avg # of iterations =  4.0

     total cpu time spent up to now is      536.7 secs

     End of self-consistent calculation

     Number of k-points >= 100: set verbosity='high' to print the bands.

     the Fermi energy is     6.9053 ev

!    total energy              =    -131.48191726 Ry
     estimated scf accuracy    <          3.9E-10 Ry
     smearing contrib. (-TS)   =       0.00137752 Ry
     internal energy E=F+TS    =    -131.48329479 Ry

     The total energy is F=E-TS. E is the sum of the following terms:
     one-electron contribution =     -47.08617811 Ry
     hartree contribution      =      24.13195843 Ry
     xc contribution           =     -34.49377851 Ry
     ewald contribution        =     -74.03529660 Ry

     convergence has been achieved in   6 iterations

     Forces acting on atoms (cartesian axes, Ry/au):

     atom    1 type  1   force =     0.00000000    0.00000000    0.00000000
     atom    2 type  1   force =    -0.00000000   -0.00000000   -0.00000000
     atom    3 type  2   force =     0.00639234    0.00639234    0.00386479
     atom    4 type  2   force =    -0.00639234   -0.00639234   -0.00386479
     atom    5 type  2   force =    -0.00639234    0.00639234    0.00386479
     atom    6 type  2   force =     0.00639234   -0.00639234   -0.00386479
     atom    7 type  2   force =    -0.00639234   -0.00639234    0.00386479
     atom    8 type  2   force =     0.00639234    0.00639234   -0.00386479
     atom    9 type  2   force =     0.00639234   -0.00639234    0.00386479
     atom   10 type  2   force =    -0.00639234    0.00639234   -0.00386479

     Total force =     0.027808     Total SCF correction =     0.000038


     Computing stress (Cartesian axis) and pressure

          total   stress  (Ry/bohr**3)                   (kbar)     P=      508.41
   0.00328004  -0.00000000  -0.00000000          482.51       -0.00       -0.00
  -0.00000000   0.00328004   0.00000000           -0.00      482.51        0.00
   0.00000000  -0.00000000   0.00380812            0.00       -0.00      560.19

     Energy error            =      3.9E-03 Ry
     Gradient error          =      6.4E-03 Ry/Bohr
     Cell gradient error     =      6.0E+01 kbar

     number of scf cycles    =   6
     number of bfgs steps    =   5

     enthalpy           old  =    -129.4049715776 Ry
     enthalpy           new  =    -129.4088790516 Ry

     CASE: enthalpy          _new < enthalpy          _old

     new trust radius        =       0.0687889759 bohr
ibrav =      7
 celldm(1) =      8.22268667
 celldm(3) =      2.16306100
Input lattice vectors:
     0.49417827    -0.49417827     1.06893774
     0.49417827     0.49417827     1.06893774
    -0.49417827    -0.49417827     1.06893774
New lattice vectors in INITIAL alat:
     0.49417827    -0.49417827     1.06893774
     0.49417827     0.49417827     1.06893774
    -0.49417827    -0.49417827     1.06893774
New lattice vectors in NEW alat (for information only):
     0.50000000    -0.50000000     1.08153050
     0.50000000     0.50000000     1.08153050
    -0.50000000    -0.50000000     1.08153050
Discrepancy in bohr =     0.000000    0.000000    0.000000
     new conv_thr            =       0.0000000013 Ry

     new unit-cell volume =    601.28448 a.u.^3 (    89.10117 Ang^3 )
     density =      2.08168 g/cm^3

CELL_PARAMETERS (alat=  8.31955512)
   0.494178268  -0.494178268   1.068937740
   0.494178268   0.494178268   1.068937740
  -0.494178268  -0.494178268   1.068937740

ATOMIC_POSITIONS (crystal)
Si              -0.0000000000        0.2500000000        0.2500000000
Si              -0.0000000000        0.7500000000        0.7500000000
Li              -0.5000000000        0.7621148319       -0.0659176477
Li               0.5000000000        1.2378851681        0.0659176477
Li               0.1719675205        0.2621148319       -0.2378851681
Li              -0.1719675205        1.7378851681        0.2378851681
Li               0.5000000000        0.4340823523       -0.7378851681
Li              -0.5000000000        1.5659176477        0.7378851681
Li              -0.1719675205        0.9340823523       -0.5659176477
Li               0.1719675205        1.0659176477        0.5659176477



     Writing config-only to output data dir ./output/SiLi.save/ :
     XML data file
     NEW-OLD atomic charge density approx. for the potential

     total cpu time spent up to now is      542.7 secs

     per-process dynamical memory:    68.3 Mb

     Self-consistent Calculation

     iteration #  1     ecut=    80.00 Ry     beta= 0.70
     CG style diagonalization
     c_bands:  1 eigenvalues not converged
     c_bands:  1 eigenvalues not converged
     c_bands:  1 eigenvalues not converged
     c_bands:  2 eigenvalues not converged
     c_bands:  1 eigenvalues not converged
     c_bands:  1 eigenvalues not converged
     c_bands:  1 eigenvalues not converged
     c_bands:  2 eigenvalues not converged
     c_bands:  2 eigenvalues not converged
     c_bands:  1 eigenvalues not converged
     c_bands:  1 eigenvalues not converged
     c_bands:  1 eigenvalues not converged
     c_bands:  1 eigenvalues not converged
     c_bands:  1 eigenvalues not converged
     c_bands:  1 eigenvalues not converged
     c_bands:  1 eigenvalues not converged
     c_bands:  1 eigenvalues not converged
     c_bands:  1 eigenvalues not converged
     c_bands:  1 eigenvalues not converged
     c_bands:  1 eigenvalues not converged
     c_bands:  3 eigenvalues not converged
     c_bands:  1 eigenvalues not converged
     c_bands:  1 eigenvalues not converged
     c_bands:  1 eigenvalues not converged
     c_bands:  1 eigenvalues not converged
     c_bands:  1 eigenvalues not converged
     c_bands:  1 eigenvalues not converged
     c_bands:  2 eigenvalues not converged
     c_bands:  1 eigenvalues not converged
     c_bands:  1 eigenvalues not converged
     c_bands:  2 eigenvalues not converged
     c_bands:  1 eigenvalues not converged
     c_bands:  2 eigenvalues not converged
     c_bands:  1 eigenvalues not converged
     c_bands:  1 eigenvalues not converged
     c_bands:  1 eigenvalues not converged
     c_bands:  1 eigenvalues not converged
     c_bands:  1 eigenvalues not converged
     c_bands:  1 eigenvalues not converged
     c_bands:  1 eigenvalues not converged
     c_bands:  1 eigenvalues not converged
     c_bands:  1 eigenvalues not converged
     c_bands:  2 eigenvalues not converged
     c_bands:  1 eigenvalues not converged
     c_bands:  1 eigenvalues not converged
     c_bands:  1 eigenvalues not converged
     c_bands:  1 eigenvalues not converged
     c_bands:  1 eigenvalues not converged
     c_bands:  1 eigenvalues not converged
     c_bands:  2 eigenvalues not converged
     c_bands:  1 eigenvalues not converged
     c_bands:  1 eigenvalues not converged
     c_bands:  1 eigenvalues not converged
     c_bands:  1 eigenvalues not converged
     c_bands:  1 eigenvalues not converged
     ethr =  1.00E-06,  avg # of iterations =  8.3

     total cpu time spent up to now is      565.8 secs

     total energy              =    -131.45509396 Ry
     estimated scf accuracy    <       0.00719523 Ry

     iteration #  2     ecut=    80.00 Ry     beta= 0.70
     CG style diagonalization
     ethr =  2.25E-05,  avg # of iterations =  3.7

     total cpu time spent up to now is      575.7 secs

     total energy              =    -131.45553372 Ry
     estimated scf accuracy    <       0.01947442 Ry

     iteration #  3     ecut=    80.00 Ry     beta= 0.70
     CG style diagonalization
     ethr =  2.25E-05,  avg # of iterations =  3.4

     total cpu time spent up to now is      584.9 secs

     total energy              =    -131.45879035 Ry
     estimated scf accuracy    <       0.00000482 Ry

     iteration #  4     ecut=    80.00 Ry     beta= 0.70
     CG style diagonalization
     c_bands:  1 eigenvalues not converged
     ethr =  1.51E-08,  avg # of iterations =  5.3

     total cpu time spent up to now is      599.0 secs

     total energy              =    -131.45882871 Ry
     estimated scf accuracy    <       0.00000632 Ry

     iteration #  5     ecut=    80.00 Ry     beta= 0.70
     CG style diagonalization
     ethr =  1.51E-08,  avg # of iterations =  3.2

     total cpu time spent up to now is      607.6 secs

     total energy              =    -131.45882979 Ry
     estimated scf accuracy    <       0.00000004 Ry

     iteration #  6     ecut=    80.00 Ry     beta= 0.70
     CG style diagonalization
     ethr =  1.40E-10,  avg # of iterations =  4.1

     total cpu time spent up to now is      618.6 secs

     total energy              =    -131.45882981 Ry
     estimated scf accuracy    <          3.4E-09 Ry

     iteration #  7     ecut=    80.00 Ry     beta= 0.70
     CG style diagonalization
     ethr =  1.06E-11,  avg # of iterations =  3.2

     total cpu time spent up to now is      627.1 secs

     End of self-consistent calculation

     Number of k-points >= 100: set verbosity='high' to print the bands.

     the Fermi energy is     7.0293 ev

!    total energy              =    -131.45882981 Ry
     estimated scf accuracy    <          1.9E-10 Ry
     smearing contrib. (-TS)   =       0.00154394 Ry
     internal energy E=F+TS    =    -131.46037375 Ry

     The total energy is F=E-TS. E is the sum of the following terms:
     one-electron contribution =     -46.58012592 Ry
     hartree contribution      =      24.06364447 Ry
     xc contribution           =     -34.53035916 Ry
     ewald contribution        =     -74.41353313 Ry

     convergence has been achieved in   7 iterations

     Forces acting on atoms (cartesian axes, Ry/au):

     atom    1 type  1   force =    -0.00000000   -0.00000000   -0.00000000
     atom    2 type  1   force =     0.00000000    0.00000000    0.00000000
     atom    3 type  2   force =     0.00596363    0.00596363    0.00537636
     atom    4 type  2   force =    -0.00596363   -0.00596363   -0.00537636
     atom    5 type  2   force =    -0.00596363    0.00596363    0.00537636
     atom    6 type  2   force =     0.00596363   -0.00596363   -0.00537636
     atom    7 type  2   force =    -0.00596363   -0.00596363    0.00537636
     atom    8 type  2   force =     0.00596363    0.00596363   -0.00537636
     atom    9 type  2   force =     0.00596363   -0.00596363    0.00537636
     atom   10 type  2   force =    -0.00596363    0.00596363   -0.00537636

     Total force =     0.028289     Total SCF correction =     0.000030


     Computing stress (Cartesian axis) and pressure

          total   stress  (Ry/bohr**3)                   (kbar)     P=      527.19
   0.00337176  -0.00000000   0.00000000          496.00       -0.00        0.00
  -0.00000000   0.00337176  -0.00000000           -0.00      496.00       -0.00
   0.00000000   0.00000000   0.00400782            0.00        0.00      589.57

     Energy error            =      6.2E-03 Ry
     Gradient error          =      6.0E-03 Ry/Bohr
     Cell gradient error     =      9.0E+01 kbar

     number of scf cycles    =   7
     number of bfgs steps    =   6

     enthalpy           old  =    -129.4088790516 Ry
     enthalpy           new  =    -129.4151053875 Ry

     CASE: enthalpy          _new < enthalpy          _old

     new trust radius        =       0.1038983217 bohr
ibrav =      7
 celldm(1) =      8.06668499
 celldm(3) =      2.25160419
Input lattice vectors:
     0.48480267    -0.48480267     1.09158371
     0.48480267     0.48480267     1.09158371
    -0.48480267    -0.48480267     1.09158371
New lattice vectors in INITIAL alat:
     0.48480267    -0.48480267     1.09158371
     0.48480267     0.48480267     1.09158371
    -0.48480267    -0.48480267     1.09158371
New lattice vectors in NEW alat (for information only):
     0.50000000    -0.50000000     1.12580209
     0.50000000     0.50000000     1.12580209
    -0.50000000    -0.50000000     1.12580209
Discrepancy in bohr =     0.000000    0.000000    0.000000
     new conv_thr            =       0.0000000012 Ry

     new unit-cell volume =    590.94539 a.u.^3 (    87.56907 Ang^3 )
     density =      2.11811 g/cm^3

CELL_PARAMETERS (alat=  8.31955512)
   0.484802665  -0.484802665   1.091583711
   0.484802665   0.484802665   1.091583711
  -0.484802665  -0.484802665   1.091583711

ATOMIC_POSITIONS (crystal)
Si              -0.0000000000        0.2500000000        0.2500000000
Si              -0.0000000000        0.7500000000        0.7500000000
Li              -0.5000000000        0.7629932543       -0.0719093804
Li               0.5000000000        1.2370067457        0.0719093804
Li               0.1650973653        0.2629932543       -0.2370067457
Li              -0.1650973653        1.7370067457        0.2370067457
Li               0.5000000000        0.4280906196       -0.7370067457
Li              -0.5000000000        1.5719093804        0.7370067457
Li              -0.1650973653        0.9280906196       -0.5719093804
Li               0.1650973653        1.0719093804        0.5719093804



     Writing config-only to output data dir ./output/SiLi.save/ :
     XML data file
     NEW-OLD atomic charge density approx. for the potential

     total cpu time spent up to now is      633.2 secs

     per-process dynamical memory:    68.3 Mb

     Self-consistent Calculation

     iteration #  1     ecut=    80.00 Ry     beta= 0.70
     CG style diagonalization
     c_bands:  1 eigenvalues not converged
     c_bands:  1 eigenvalues not converged
     c_bands:  1 eigenvalues not converged
     c_bands:  1 eigenvalues not converged
     c_bands:  1 eigenvalues not converged
     c_bands:  1 eigenvalues not converged
     c_bands:  1 eigenvalues not converged
     c_bands:  1 eigenvalues not converged
     c_bands:  1 eigenvalues not converged
     c_bands:  1 eigenvalues not converged
     c_bands:  1 eigenvalues not converged
     c_bands:  1 eigenvalues not converged
     c_bands:  1 eigenvalues not converged
     c_bands:  1 eigenvalues not converged
     c_bands:  3 eigenvalues not converged
     c_bands:  2 eigenvalues not converged
     c_bands:  1 eigenvalues not converged
     c_bands:  1 eigenvalues not converged
     c_bands:  1 eigenvalues not converged
     c_bands:  1 eigenvalues not converged
     c_bands:  1 eigenvalues not converged
     c_bands:  2 eigenvalues not converged
     c_bands:  1 eigenvalues not converged
     c_bands:  1 eigenvalues not converged
     c_bands:  1 eigenvalues not converged
     c_bands:  2 eigenvalues not converged
     c_bands:  1 eigenvalues not converged
     c_bands:  1 eigenvalues not converged
     c_bands:  1 eigenvalues not converged
     c_bands:  1 eigenvalues not converged
     c_bands:  1 eigenvalues not converged
     c_bands:  1 eigenvalues not converged
     c_bands:  2 eigenvalues not converged
     c_bands:  2 eigenvalues not converged
     c_bands:  1 eigenvalues not converged
     c_bands:  2 eigenvalues not converged
     c_bands:  1 eigenvalues not converged
     c_bands:  1 eigenvalues not converged
     c_bands:  1 eigenvalues not converged
     c_bands:  1 eigenvalues not converged
     c_bands:  2 eigenvalues not converged
     c_bands:  1 eigenvalues not converged
     c_bands:  1 eigenvalues not converged
     c_bands:  1 eigenvalues not converged
     c_bands:  2 eigenvalues not converged
     c_bands:  1 eigenvalues not converged
     c_bands:  1 eigenvalues not converged
     c_bands:  1 eigenvalues not converged
     c_bands:  1 eigenvalues not converged
     c_bands:  1 eigenvalues not converged
     c_bands:  2 eigenvalues not converged
     c_bands:  2 eigenvalues not converged
     c_bands:  2 eigenvalues not converged
     c_bands:  1 eigenvalues not converged
     c_bands:  1 eigenvalues not converged
     c_bands:  1 eigenvalues not converged
     c_bands:  2 eigenvalues not converged
     c_bands:  1 eigenvalues not converged
     c_bands:  2 eigenvalues not converged
     c_bands:  1 eigenvalues not converged
     c_bands:  2 eigenvalues not converged
     c_bands:  1 eigenvalues not converged
     c_bands:  2 eigenvalues not converged
     c_bands:  1 eigenvalues not converged
     c_bands:  2 eigenvalues not converged
     c_bands:  1 eigenvalues not converged
     c_bands:  1 eigenvalues not converged
     c_bands:  1 eigenvalues not converged
     c_bands:  1 eigenvalues not converged
     c_bands:  1 eigenvalues not converged
     c_bands:  2 eigenvalues not converged
     c_bands:  3 eigenvalues not converged
     c_bands:  1 eigenvalues not converged
     c_bands:  1 eigenvalues not converged
     c_bands:  1 eigenvalues not converged
     c_bands:  1 eigenvalues not converged
     c_bands:  3 eigenvalues not converged
     c_bands:  1 eigenvalues not converged
     c_bands:  1 eigenvalues not converged
     c_bands:  3 eigenvalues not converged
     c_bands:  1 eigenvalues not converged
     c_bands:  2 eigenvalues not converged
     c_bands:  2 eigenvalues not converged
     c_bands:  2 eigenvalues not converged
     c_bands:  1 eigenvalues not converged
     c_bands:  2 eigenvalues not converged
     c_bands:  2 eigenvalues not converged
     c_bands:  1 eigenvalues not converged
     c_bands:  3 eigenvalues not converged
     c_bands:  1 eigenvalues not converged
     c_bands:  1 eigenvalues not converged
     c_bands:  1 eigenvalues not converged
     c_bands:  1 eigenvalues not converged
     c_bands:  1 eigenvalues not converged
     ethr =  1.00E-06,  avg # of iterations =  9.3

     total cpu time spent up to now is      659.4 secs

     total energy              =    -131.42563366 Ry
     estimated scf accuracy    <       0.01354461 Ry

     iteration #  2     ecut=    80.00 Ry     beta= 0.70
     CG style diagonalization
     ethr =  4.23E-05,  avg # of iterations =  3.7

     total cpu time spent up to now is      669.3 secs

     total energy              =    -131.42584627 Ry
     estimated scf accuracy    <       0.04103849 Ry

     iteration #  3     ecut=    80.00 Ry     beta= 0.70
     CG style diagonalization
     ethr =  4.23E-05,  avg # of iterations =  3.5

     total cpu time spent up to now is      678.5 secs

     total energy              =    -131.43272717 Ry
     estimated scf accuracy    <       0.00001932 Ry

     iteration #  4     ecut=    80.00 Ry     beta= 0.70
     CG style diagonalization
     c_bands:  1 eigenvalues not converged
     ethr =  6.04E-08,  avg # of iterations =  5.0

     total cpu time spent up to now is      691.8 secs

     total energy              =    -131.43280066 Ry
     estimated scf accuracy    <       0.00001168 Ry

     iteration #  5     ecut=    80.00 Ry     beta= 0.70
     CG style diagonalization
     ethr =  3.65E-08,  avg # of iterations =  3.2

     total cpu time spent up to now is      700.2 secs

     total energy              =    -131.43280264 Ry
     estimated scf accuracy    <       0.00000008 Ry

     iteration #  6     ecut=    80.00 Ry     beta= 0.70
     CG style diagonalization
     ethr =  2.62E-10,  avg # of iterations =  4.2

     total cpu time spent up to now is      711.5 secs

     total energy              =    -131.43280270 Ry
     estimated scf accuracy    <       0.00000002 Ry

     iteration #  7     ecut=    80.00 Ry     beta= 0.70
     CG style diagonalization
     ethr =  4.94E-11,  avg # of iterations =  3.1

     total cpu time spent up to now is      719.8 secs

     End of self-consistent calculation

     Number of k-points >= 100: set verbosity='high' to print the bands.

     the Fermi energy is     7.1807 ev

!    total energy              =    -131.43280270 Ry
     estimated scf accuracy    <          2.7E-10 Ry
     smearing contrib. (-TS)   =       0.00201740 Ry
     internal energy E=F+TS    =    -131.43482011 Ry

     The total energy is F=E-TS. E is the sum of the following terms:
     one-electron contribution =     -46.03483549 Ry
     hartree contribution      =      24.02406201 Ry
     xc contribution           =     -34.57459019 Ry
     ewald contribution        =     -74.84945644 Ry

     convergence has been achieved in   7 iterations

     Forces acting on atoms (cartesian axes, Ry/au):

     atom    1 type  1   force =     0.00000000    0.00000000   -0.00000000
     atom    2 type  1   force =    -0.00000000    0.00000000   -0.00000000
     atom    3 type  2   force =     0.00589694    0.00589694    0.00772866
     atom    4 type  2   force =    -0.00589694   -0.00589694   -0.00772866
     atom    5 type  2   force =    -0.00589694    0.00589694    0.00772866
     atom    6 type  2   force =     0.00589694   -0.00589694   -0.00772866
     atom    7 type  2   force =    -0.00589694   -0.00589694    0.00772866
     atom    8 type  2   force =     0.00589694    0.00589694   -0.00772866
     atom    9 type  2   force =     0.00589694   -0.00589694    0.00772866
     atom   10 type  2   force =    -0.00589694    0.00589694   -0.00772866

     Total force =     0.032160     Total SCF correction =     0.000013


     Computing stress (Cartesian axis) and pressure

          total   stress  (Ry/bohr**3)                   (kbar)     P=      549.29
   0.00345985  -0.00000000  -0.00000000          508.96       -0.00       -0.00
   0.00000000   0.00345985   0.00000000            0.00      508.96        0.00
  -0.00000000  -0.00000000   0.00428227           -0.00       -0.00      629.94

     Energy error            =      9.1E-03 Ry
     Gradient error          =      7.7E-03 Ry/Bohr
     Cell gradient error     =      1.3E+02 kbar

     number of scf cycles    =   8
     number of bfgs steps    =   7

     enthalpy           old  =    -129.4151053875 Ry
     enthalpy           new  =    -129.4242201592 Ry

     CASE: enthalpy          _new < enthalpy          _old


     WARNING: bfgs curvature condition failed, Theta= 0.738
     new trust radius        =       0.1512964820 bohr
ibrav =      7
 celldm(1) =      7.82696550
 celldm(3) =      2.39277852
Input lattice vectors:
     0.47039568    -0.47039568     1.12555267
     0.47039568     0.47039568     1.12555267
    -0.47039568    -0.47039568     1.12555267
New lattice vectors in INITIAL alat:
     0.47039568    -0.47039568     1.12555267
     0.47039568     0.47039568     1.12555267
    -0.47039568    -0.47039568     1.12555267
New lattice vectors in NEW alat (for information only):
     0.50000000    -0.50000000     1.19638926
     0.50000000     0.50000000     1.19638926
    -0.50000000    -0.50000000     1.19638926
Discrepancy in bohr =     0.000000    0.000000    0.000000
     new conv_thr            =       0.0000000015 Ry

     new unit-cell volume =    573.65762 a.u.^3 (    85.00729 Ang^3 )
     density =      2.18194 g/cm^3

CELL_PARAMETERS (alat=  8.31955512)
   0.470395675  -0.470395675   1.125552668
   0.470395675   0.470395675   1.125552668
  -0.470395675  -0.470395675   1.125552668

ATOMIC_POSITIONS (crystal)
Si              -0.0000000000        0.2500000000        0.2500000000
Si              -0.0000000000        0.7500000000        0.7500000000
Li              -0.5000000000        0.7642671334       -0.0811731744
Li               0.5000000000        1.2357328666        0.0811731744
Li               0.1545596922        0.2642671334       -0.2357328666
Li              -0.1545596922        1.7357328666        0.2357328666
Li               0.5000000000        0.4188268256       -0.7357328666
Li              -0.5000000000        1.5811731744        0.7357328666
Li              -0.1545596922        0.9188268256       -0.5811731744
Li               0.1545596922        1.0811731744        0.5811731744



     Writing config-only to output data dir ./output/SiLi.save/ :
     XML data file
     NEW-OLD atomic charge density approx. for the potential

     total cpu time spent up to now is      726.0 secs

     per-process dynamical memory:    68.3 Mb

     Self-consistent Calculation

     iteration #  1     ecut=    80.00 Ry     beta= 0.70
     CG style diagonalization
     c_bands:  3 eigenvalues not converged
     c_bands:  2 eigenvalues not converged
     c_bands:  1 eigenvalues not converged
     c_bands:  2 eigenvalues not converged
     c_bands:  1 eigenvalues not converged
     c_bands:  2 eigenvalues not converged
     c_bands:  1 eigenvalues not converged
     c_bands:  1 eigenvalues not converged
     c_bands:  1 eigenvalues not converged
     c_bands:  1 eigenvalues not converged
     c_bands:  1 eigenvalues not converged
     c_bands:  1 eigenvalues not converged
     c_bands:  2 eigenvalues not converged
     c_bands:  2 eigenvalues not converged
     c_bands:  3 eigenvalues not converged
     c_bands:  1 eigenvalues not converged
     c_bands:  4 eigenvalues not converged
     c_bands:  3 eigenvalues not converged
     c_bands:  3 eigenvalues not converged
     c_bands:  2 eigenvalues not converged
     c_bands:  3 eigenvalues not converged
     c_bands:  2 eigenvalues not converged
     c_bands:  1 eigenvalues not converged
     c_bands:  2 eigenvalues not converged
     c_bands:  1 eigenvalues not converged
     c_bands:  3 eigenvalues not converged
     c_bands:  3 eigenvalues not converged
     c_bands:  3 eigenvalues not converged
     c_bands:  3 eigenvalues not converged
     c_bands:  2 eigenvalues not converged
     c_bands:  2 eigenvalues not converged
     c_bands:  3 eigenvalues not converged
     c_bands:  2 eigenvalues not converged
     c_bands:  3 eigenvalues not converged
     c_bands:  1 eigenvalues not converged
     c_bands:  1 eigenvalues not converged
     c_bands:  1 eigenvalues not converged
     c_bands:  1 eigenvalues not converged
     c_bands:  3 eigenvalues not converged
     c_bands:  1 eigenvalues not converged
     c_bands:  1 eigenvalues not converged
     c_bands:  1 eigenvalues not converged
     c_bands:  4 eigenvalues not converged
     c_bands:  1 eigenvalues not converged
     c_bands:  2 eigenvalues not converged
     c_bands:  3 eigenvalues not converged
     c_bands:  5 eigenvalues not converged
     c_bands:  2 eigenvalues not converged
     c_bands:  1 eigenvalues not converged
     c_bands:  1 eigenvalues not converged
     c_bands:  4 eigenvalues not converged
     c_bands:  1 eigenvalues not converged
     c_bands:  1 eigenvalues not converged
     c_bands:  1 eigenvalues not converged
     c_bands:  1 eigenvalues not converged
     c_bands:  1 eigenvalues not converged
     c_bands:  3 eigenvalues not converged
     c_bands:  1 eigenvalues not converged
     c_bands:  2 eigenvalues not converged
     c_bands:  1 eigenvalues not converged
     c_bands:  1 eigenvalues not converged
     c_bands:  2 eigenvalues not converged
     c_bands:  1 eigenvalues not converged
     c_bands:  3 eigenvalues not converged
     c_bands:  2 eigenvalues not converged
     c_bands:  3 eigenvalues not converged
     c_bands:  2 eigenvalues not converged
     c_bands:  1 eigenvalues not converged
     c_bands:  1 eigenvalues not converged
     c_bands:  1 eigenvalues not converged
     c_bands:  1 eigenvalues not converged
     c_bands:  5 eigenvalues not converged
     c_bands:  2 eigenvalues not converged
     c_bands:  2 eigenvalues not converged
     c_bands:  2 eigenvalues not converged
     c_bands:  1 eigenvalues not converged
     c_bands:  3 eigenvalues not converged
     c_bands:  1 eigenvalues not converged
     c_bands:  3 eigenvalues not converged
     c_bands:  1 eigenvalues not converged
     c_bands:  1 eigenvalues not converged
     c_bands:  2 eigenvalues not converged
     c_bands:  4 eigenvalues not converged
     c_bands:  1 eigenvalues not converged
     c_bands:  2 eigenvalues not converged
     c_bands:  1 eigenvalues not converged
     c_bands:  3 eigenvalues not converged
     c_bands:  3 eigenvalues not converged
     c_bands:  2 eigenvalues not converged
     c_bands:  1 eigenvalues not converged
     c_bands:  1 eigenvalues not converged
     c_bands:  2 eigenvalues not converged
     c_bands:  2 eigenvalues not converged
     c_bands:  1 eigenvalues not converged
     c_bands:  2 eigenvalues not converged
     c_bands:  5 eigenvalues not converged
     c_bands:  2 eigenvalues not converged
     c_bands:  2 eigenvalues not converged
     c_bands:  3 eigenvalues not converged
     c_bands:  2 eigenvalues not converged
     c_bands:  3 eigenvalues not converged
     c_bands:  1 eigenvalues not converged
     c_bands:  3 eigenvalues not converged
     c_bands:  3 eigenvalues not converged
     c_bands:  1 eigenvalues not converged
     c_bands:  1 eigenvalues not converged
     c_bands:  1 eigenvalues not converged
     c_bands:  2 eigenvalues not converged
     c_bands:  2 eigenvalues not converged
     c_bands:  1 eigenvalues not converged
     c_bands:  1 eigenvalues not converged
     c_bands:  4 eigenvalues not converged
     c_bands:  1 eigenvalues not converged
     c_bands:  2 eigenvalues not converged
     c_bands:  4 eigenvalues not converged
     c_bands:  2 eigenvalues not converged
     c_bands:  1 eigenvalues not converged
     c_bands:  1 eigenvalues not converged
     c_bands:  1 eigenvalues not converged
     c_bands:  1 eigenvalues not converged
     c_bands:  2 eigenvalues not converged
     c_bands:  2 eigenvalues not converged
     c_bands:  2 eigenvalues not converged
     c_bands:  2 eigenvalues not converged
     c_bands:  4 eigenvalues not converged
     c_bands:  2 eigenvalues not converged
     c_bands:  4 eigenvalues not converged
     c_bands:  1 eigenvalues not converged
     c_bands:  3 eigenvalues not converged
     c_bands:  2 eigenvalues not converged
     c_bands:  2 eigenvalues not converged
     c_bands:  2 eigenvalues not converged
     c_bands:  1 eigenvalues not converged
     c_bands:  3 eigenvalues not converged
     c_bands:  2 eigenvalues not converged
     c_bands:  2 eigenvalues not converged
     c_bands:  3 eigenvalues not converged
     c_bands:  4 eigenvalues not converged
     c_bands:  1 eigenvalues not converged
     c_bands:  1 eigenvalues not converged
     c_bands:  4 eigenvalues not converged
     c_bands:  2 eigenvalues not converged
     c_bands:  1 eigenvalues not converged
     c_bands:  1 eigenvalues not converged
     c_bands:  1 eigenvalues not converged
     ethr =  1.00E-06,  avg # of iterations = 10.9

     total cpu time spent up to now is      756.0 secs

     total energy              =    -131.36770524 Ry
     estimated scf accuracy    <       0.03588605 Ry

     iteration #  2     ecut=    80.00 Ry     beta= 0.70
     CG style diagonalization
     ethr =  1.12E-04,  avg # of iterations =  3.7

     total cpu time spent up to now is      766.0 secs

     total energy              =    -131.36721342 Ry
     estimated scf accuracy    <       0.12870742 Ry

     iteration #  3     ecut=    80.00 Ry     beta= 0.70
     CG style diagonalization
     ethr =  1.12E-04,  avg # of iterations =  3.5

     total cpu time spent up to now is      775.3 secs

     total energy              =    -131.38777223 Ry
     estimated scf accuracy    <       0.00003513 Ry

     iteration #  4     ecut=    80.00 Ry     beta= 0.70
     CG style diagonalization
     c_bands:  1 eigenvalues not converged
     ethr =  1.10E-07,  avg # of iterations =  5.4

     total cpu time spent up to now is      789.9 secs

     total energy              =    -131.38799130 Ry
     estimated scf accuracy    <       0.00003455 Ry

     iteration #  5     ecut=    80.00 Ry     beta= 0.70
[...]
     atom    4 type  2   force =    -0.00005950   -0.00005950   -0.00019772
     atom    5 type  2   force =    -0.00005950    0.00005950    0.00019772
     atom    6 type  2   force =     0.00005950   -0.00005950   -0.00019772
     atom    7 type  2   force =    -0.00005950   -0.00005950    0.00019772
     atom    8 type  2   force =     0.00005950    0.00005950   -0.00019772
     atom    9 type  2   force =     0.00005950   -0.00005950    0.00019772
     atom   10 type  2   force =    -0.00005950    0.00005950   -0.00019772

     Total force =     0.000608     Total SCF correction =     0.000010


     Computing stress (Cartesian axis) and pressure

          total   stress  (Ry/bohr**3)                   (kbar)     P=      499.31
   0.00339524  -0.00000000  -0.00000000          499.46       -0.00       -0.00
  -0.00000000   0.00339524   0.00000000           -0.00      499.46        0.00
  -0.00000000   0.00000000   0.00339222           -0.00        0.00      499.01

     Energy error            =      4.0E-06 Ry
     Gradient error          =      2.0E-04 Ry/Bohr
     Cell gradient error     =      9.9E-01 kbar
ibrav =      7
 celldm(1) =      7.42713799
 celldm(3) =      2.86542775
Input lattice vectors:
     0.44636629    -0.44636629     1.27903037
     0.44636629     0.44636629     1.27903037
    -0.44636629    -0.44636629     1.27903037
New lattice vectors in INITIAL alat:
     0.44636629    -0.44636629     1.27903037
     0.44636629     0.44636629     1.27903037
    -0.44636629    -0.44636629     1.27903037
New lattice vectors in NEW alat (for information only):
     0.50000000    -0.50000000     1.43271388
     0.50000000     0.50000000     1.43271388
    -0.50000000    -0.50000000     1.43271388
Discrepancy in bohr =     0.000000    0.000000    0.000000

     bfgs converged in  30 scf cycles and  24 bfgs steps
     (criteria: energy <  1.0E-04 Ry, force <  5.0E-04 Ry/Bohr, cell <  1.0E+00 kbar)

     End of BFGS Geometry Optimization

     Final enthalpy           =    -129.5107554630 Ry

     File ./output/SiLi.bfgs deleted, as requested
Begin final coordinates
     new unit-cell volume =    586.98087 a.u.^3 (    86.98159 Ang^3 )
     density =      2.13241 g/cm^3

CELL_PARAMETERS (alat=  8.31955512)
   0.446366295  -0.446366295   1.279030369
   0.446366295   0.446366295   1.279030369
  -0.446366295  -0.446366295   1.279030369

ATOMIC_POSITIONS (crystal)
Si               0.0000000000        0.2500000000        0.2500000000
Si              -0.0000000000        0.7500000000        0.7500000000
Li              -0.5000000001        0.7897631685       -0.1097077093
Li               0.5000000001        1.2102368315        0.1097077093
Li               0.1005291224        0.2897631683       -0.2102368317
Li              -0.1005291224        1.7102368317        0.2102368317
Li               0.4999999999        0.3902922907       -0.7102368315
Li              -0.4999999999        1.6097077093        0.7102368315
Li              -0.1005291226        0.8902922909       -0.6097077091
Li               0.1005291226        1.1097077091        0.6097077091
End final coordinates



     Writing config-only to output data dir ./output/SiLi.save/ :
     XML data file

     Final scf calculation at the relaxed structure.
     The G-vectors are recalculated for the final unit cell
     Results may differ from those at the preceding step.

     Parallelization info
     --------------------
     sticks:   dense  smooth     PW     G-vecs:    dense   smooth      PW
     Min         133     133     41                 3540     3540     628
     Max         134     134     42                 3542     3542     629
     Sum        2129    2129    667                56645    56645   10055

     Using Slab Decomposition



     bravais-lattice index     =            7
     lattice parameter (alat)  =       8.3196  a.u.
     unit-cell volume          =     586.9809 (a.u.)^3
     number of atoms/cell      =           10
     number of atomic types    =            2
     number of electrons       =        32.00
     number of Kohn-Sham states=           20
     kinetic-energy cutoff     =      80.0000  Ry
     charge density cutoff     =     320.0000  Ry
     scf convergence threshold =      1.0E-10
     mixing beta               =       0.7000
     number of iterations used =            8  plain     mixing
     press convergence thresh. =      1.0E+00
     Exchange-correlation= PBE
                           (   1   4   3   4   0   0   0)

     celldm(1)=   8.319555  celldm(2)=   0.000000  celldm(3)=   2.087363
     celldm(4)=   0.000000  celldm(5)=   0.000000  celldm(6)=   0.000000

     crystal axes: (cart. coord. in units of alat)
               a(1) = (   0.446366  -0.446366   1.279030 )  
               a(2) = (   0.446366   0.446366   1.279030 )  
               a(3) = (  -0.446366  -0.446366   1.279030 )  

     reciprocal axes: (cart. coord. in units 2 pi/alat)
               b(1) = (  1.120156 -1.120156 -0.000000 )  
               b(2) = ( -0.000000  1.120156  0.390921 )  
               b(3) = ( -1.120156 -0.000000  0.390921 )  


     PseudoPot. # 1 for Si read from file:
     ../pseudo/Si_ONCV_PBE_sr.upf
     MD5 check sum: e543d271109d17c80368dfa7c482276d
     Pseudo is Norm-conserving + core correction, Zval =  4.0
     Generated using ONCVPSP code by D. R. Hamann
     Using radial grid of 1510 points,  6 beta functions with: 
                l(1) =   0
                l(2) =   0
                l(3) =   1
                l(4) =   1
                l(5) =   2
                l(6) =   2

     PseudoPot. # 2 for Li read from file:
     ../pseudo/Li_ONCV_PBE_sr.upf
     MD5 check sum: 50ff420e78310ffa21704f3361e624a4
     Pseudo is Norm-conserving, Zval =  3.0
     Generated using ONCVPSP code by D. R. Hamann
     Using radial grid of 1944 points,  4 beta functions with: 
                l(1) =   0
                l(2) =   0
                l(3) =   1
                l(4) =   1

     atomic species   valence    mass     pseudopotential
     Si                4.00    28.08550     Si( 1.00)
     Li                3.00     6.94100     Li( 1.00)

     16 Sym. Ops., with inversion, found ( 8 have fractional translation)



   Cartesian axes

     site n.     atom                  positions (alat units)
         1        Si     tau(   1) = (   0.0000000   0.0000000   0.6395152  )
         2        Si     tau(   2) = (  -0.0000000  -0.0000000   1.9185456  )
         3        Li     tau(   3) = (   0.1783103   0.6246766   0.2302964  )
         4        Li     tau(   4) = (   0.7144223   0.2680560   2.3277643  )
         5        Li     tau(   5) = (   0.2680560   0.1783103   0.2302964  )
         6        Li     tau(   6) = (   0.6246766   0.7144223   2.3277643  )
         7        Li     tau(   7) = (   0.7144223   0.2680560   0.2302964  )
         8        Li     tau(   8) = (   0.1783103   0.6246766   2.3277643  )
         9        Li     tau(   9) = (   0.6246766   0.7144223   0.2302964  )
        10        Li     tau(  10) = (   0.2680560   0.1783103   2.3277643  )

     number of k points=   213  Marzari-Vanderbilt smearing, width (Ry)=  0.0200

     Number of k-points >= 100: set verbosity='high' to print them.

     Dense  grid:    56645 G-vectors     FFT dimensions: (  72,  72,  72)

     Estimated max dynamical RAM per process >      44.85 MB

     Estimated total dynamical RAM >     717.60 MB

     Initial potential from superposition of free atoms

     starting charge      31.9623, renormalised to      32.0000
     Starting wfcs are   24 randomized atomic wfcs

     total cpu time spent up to now is     2498.6 secs

     per-process dynamical memory:    68.6 Mb

     Self-consistent Calculation

     iteration #  1     ecut=    80.00 Ry     beta= 0.70
     CG style diagonalization
     c_bands:  1 eigenvalues not converged
     c_bands:  5 eigenvalues not converged
     c_bands:  1 eigenvalues not converged
     c_bands:  5 eigenvalues not converged
     c_bands:  1 eigenvalues not converged
     c_bands:  4 eigenvalues not converged
     c_bands:  2 eigenvalues not converged
     c_bands:  5 eigenvalues not converged
     c_bands:  3 eigenvalues not converged
     c_bands:  3 eigenvalues not converged
     c_bands:  2 eigenvalues not converged
     c_bands:  4 eigenvalues not converged
     c_bands:  2 eigenvalues not converged
     c_bands:  1 eigenvalues not converged
     c_bands:  2 eigenvalues not converged
     c_bands:  1 eigenvalues not converged
     c_bands:  5 eigenvalues not converged
     c_bands:  5 eigenvalues not converged
     c_bands:  5 eigenvalues not converged
     c_bands:  3 eigenvalues not converged
     c_bands:  5 eigenvalues not converged
     c_bands:  1 eigenvalues not converged
     c_bands:  5 eigenvalues not converged
     c_bands:  5 eigenvalues not converged
     c_bands:  5 eigenvalues not converged
     c_bands:  5 eigenvalues not converged
     c_bands:  3 eigenvalues not converged
     c_bands:  4 eigenvalues not converged
     c_bands:  4 eigenvalues not converged
     c_bands:  4 eigenvalues not converged
     c_bands:  3 eigenvalues not converged
     c_bands:  3 eigenvalues not converged
     c_bands:  2 eigenvalues not converged
     c_bands:  5 eigenvalues not converged
     c_bands:  5 eigenvalues not converged
     c_bands:  3 eigenvalues not converged
     c_bands:  2 eigenvalues not converged
     c_bands:  1 eigenvalues not converged
     c_bands:  3 eigenvalues not converged
     c_bands:  2 eigenvalues not converged
     c_bands:  5 eigenvalues not converged
     c_bands:  2 eigenvalues not converged
     c_bands:  3 eigenvalues not converged
     c_bands:  4 eigenvalues not converged
     c_bands:  2 eigenvalues not converged
     c_bands:  5 eigenvalues not converged
     c_bands:  5 eigenvalues not converged
     c_bands:  3 eigenvalues not converged
     c_bands:  3 eigenvalues not converged
     c_bands:  5 eigenvalues not converged
     c_bands:  2 eigenvalues not converged
     c_bands:  5 eigenvalues not converged
     c_bands:  1 eigenvalues not converged
     c_bands:  5 eigenvalues not converged
     c_bands:  4 eigenvalues not converged
     c_bands:  5 eigenvalues not converged
     c_bands:  5 eigenvalues not converged
     c_bands:  2 eigenvalues not converged
     c_bands:  5 eigenvalues not converged
     c_bands:  3 eigenvalues not converged
     c_bands:  5 eigenvalues not converged
     c_bands:  5 eigenvalues not converged
     c_bands:  3 eigenvalues not converged
     c_bands:  2 eigenvalues not converged
     c_bands:  2 eigenvalues not converged
     c_bands:  4 eigenvalues not converged
     c_bands:  3 eigenvalues not converged
     c_bands:  1 eigenvalues not converged
     c_bands:  2 eigenvalues not converged
     c_bands:  5 eigenvalues not converged
     c_bands:  4 eigenvalues not converged
     c_bands:  2 eigenvalues not converged
     c_bands:  2 eigenvalues not converged
     c_bands:  2 eigenvalues not converged
     c_bands:  4 eigenvalues not converged
     c_bands:  5 eigenvalues not converged
     c_bands:  2 eigenvalues not converged
     c_bands:  2 eigenvalues not converged
     c_bands:  3 eigenvalues not converged
     c_bands:  5 eigenvalues not converged
     c_bands:  5 eigenvalues not converged
     c_bands:  4 eigenvalues not converged
     c_bands:  3 eigenvalues not converged
     c_bands:  1 eigenvalues not converged
     c_bands:  4 eigenvalues not converged
     c_bands:  5 eigenvalues not converged
     c_bands:  5 eigenvalues not converged
     c_bands:  4 eigenvalues not converged
     c_bands:  1 eigenvalues not converged
     c_bands:  1 eigenvalues not converged
     c_bands:  4 eigenvalues not converged
     c_bands:  3 eigenvalues not converged
     c_bands:  1 eigenvalues not converged
     c_bands:  2 eigenvalues not converged
     c_bands:  5 eigenvalues not converged
     c_bands:  5 eigenvalues not converged
     c_bands:  3 eigenvalues not converged
     c_bands:  3 eigenvalues not converged
     c_bands:  2 eigenvalues not converged
     c_bands:  2 eigenvalues not converged
     c_bands:  3 eigenvalues not converged
     c_bands:  3 eigenvalues not converged
     c_bands:  3 eigenvalues not converged
     c_bands:  4 eigenvalues not converged
     c_bands:  3 eigenvalues not converged
     c_bands:  5 eigenvalues not converged
     c_bands:  4 eigenvalues not converged
     c_bands:  4 eigenvalues not converged
     c_bands:  4 eigenvalues not converged
     c_bands:  4 eigenvalues not converged
     c_bands:  5 eigenvalues not converged
     c_bands:  5 eigenvalues not converged
     c_bands:  5 eigenvalues not converged
     c_bands:  1 eigenvalues not converged
     ethr =  1.00E-06,  avg # of iterations = 15.0

     total cpu time spent up to now is     2541.4 secs

     total energy              =    -131.15858132 Ry
     estimated scf accuracy    <       0.66597196 Ry

     iteration #  2     ecut=    80.00 Ry     beta= 0.70
     CG style diagonalization
     ethr =  2.08E-03,  avg # of iterations =  3.9

     total cpu time spent up to now is     2552.6 secs

     total energy              =    -131.04095191 Ry
     estimated scf accuracy    <       2.72727976 Ry

     iteration #  3     ecut=    80.00 Ry     beta= 0.70
     CG style diagonalization
     ethr =  2.08E-03,  avg # of iterations =  3.7

     total cpu time spent up to now is     2563.3 secs

     total energy              =    -131.50478097 Ry
     estimated scf accuracy    <       0.01347716 Ry

     iteration #  4     ecut=    80.00 Ry     beta= 0.70
     CG style diagonalization
     ethr =  4.21E-05,  avg # of iterations =  4.0

     total cpu time spent up to now is     2574.8 secs

     total energy              =    -131.50933461 Ry
     estimated scf accuracy    <       0.00134400 Ry

     iteration #  5     ecut=    80.00 Ry     beta= 0.70
     CG style diagonalization
     c_bands:  1 eigenvalues not converged
     c_bands:  1 eigenvalues not converged
     c_bands:  1 eigenvalues not converged
     ethr =  4.20E-06,  avg # of iterations =  3.5

     total cpu time spent up to now is     2584.9 secs

     total energy              =    -131.50961400 Ry
     estimated scf accuracy    <       0.00001565 Ry

     iteration #  6     ecut=    80.00 Ry     beta= 0.70
     CG style diagonalization
     ethr =  4.89E-08,  avg # of iterations =  4.6

     total cpu time spent up to now is     2598.2 secs

     total energy              =    -131.50963344 Ry
     estimated scf accuracy    <       0.00000362 Ry

     iteration #  7     ecut=    80.00 Ry     beta= 0.70
     CG style diagonalization
     ethr =  1.13E-08,  avg # of iterations =  3.3

     total cpu time spent up to now is     2607.6 secs

     total energy              =    -131.50963379 Ry
     estimated scf accuracy    <       0.00000036 Ry

     iteration #  8     ecut=    80.00 Ry     beta= 0.70
     CG style diagonalization
     ethr =  1.13E-09,  avg # of iterations =  3.3

     total cpu time spent up to now is     2617.1 secs

     total energy              =    -131.50963385 Ry
     estimated scf accuracy    <       0.00000003 Ry

     iteration #  9     ecut=    80.00 Ry     beta= 0.70
     CG style diagonalization
     ethr =  7.82E-11,  avg # of iterations =  3.5

     total cpu time spent up to now is     2627.0 secs

     total energy              =    -131.50963385 Ry
     estimated scf accuracy    <          5.7E-10 Ry

     iteration # 10     ecut=    80.00 Ry     beta= 0.70
     CG style diagonalization
     ethr =  1.78E-12,  avg # of iterations =  4.3

     total cpu time spent up to now is     2639.3 secs

     End of self-consistent calculation

     Number of k-points >= 100: set verbosity='high' to print the bands.

     the Fermi energy is     7.3033 ev

!    total energy              =    -131.50963385 Ry
     estimated scf accuracy    <          2.0E-11 Ry
     smearing contrib. (-TS)   =       0.00319229 Ry
     internal energy E=F+TS    =    -131.51282614 Ry

     The total energy is F=E-TS. E is the sum of the following terms:
     one-electron contribution =     -46.69539879 Ry
     hartree contribution      =      24.45993955 Ry
     xc contribution           =     -34.56066465 Ry
     ewald contribution        =     -74.71670225 Ry

     convergence has been achieved in  10 iterations

     Forces acting on atoms (cartesian axes, Ry/au):

     atom    1 type  1   force =     0.00000000    0.00000000   -0.00000000
     atom    2 type  1   force =     0.00000000    0.00000000   -0.00000000
     atom    3 type  2   force =     0.00005883    0.00005883    0.00021233
     atom    4 type  2   force =    -0.00005883   -0.00005883   -0.00021233
     atom    5 type  2   force =    -0.00005883    0.00005883    0.00021233
     atom    6 type  2   force =     0.00005883   -0.00005883   -0.00021233
     atom    7 type  2   force =    -0.00005883   -0.00005883    0.00021233
     atom    8 type  2   force =     0.00005883    0.00005883   -0.00021233
     atom    9 type  2   force =     0.00005883   -0.00005883    0.00021233
     atom   10 type  2   force =    -0.00005883    0.00005883   -0.00021233

     Total force =     0.000645     Total SCF correction =     0.000004


     Computing stress (Cartesian axis) and pressure

          total   stress  (Ry/bohr**3)                   (kbar)     P=      507.66
   0.00340300   0.00000000   0.00000000          500.60        0.00        0.00
   0.00000000   0.00340300  -0.00000000            0.00      500.60       -0.00
   0.00000000  -0.00000000   0.00354711            0.00       -0.00      521.80


     Writing all to output data dir ./output/SiLi.save/ :
     XML data file, charge density, pseudopotentials, collected wavefunctions

     init_run     :      5.51s CPU      7.90s WALL (       2 calls)
     electrons    :   2159.24s CPU   2461.38s WALL (      31 calls)
     update_pot   :      0.31s CPU      0.45s WALL (      29 calls)
     forces       :     15.87s CPU     16.33s WALL (      31 calls)
     stress       :    155.07s CPU    155.66s WALL (      31 calls)

     Called by init_run:
     wfcinit      :      4.49s CPU      4.81s WALL (       2 calls)
     potinit      :      0.04s CPU      0.04s WALL (       2 calls)
     hinit0       :      0.91s CPU      2.96s WALL (       2 calls)

     Called by electrons:
     c_bands      :   2007.13s CPU   2296.26s WALL (     230 calls)
     sum_band     :    149.78s CPU    160.25s WALL (     230 calls)
     v_of_rho     :      2.07s CPU      2.50s WALL (     255 calls)
     mix_rho      :      0.27s CPU      0.58s WALL (     230 calls)

     Called by c_bands:
     init_us_2    :     22.31s CPU     26.79s WALL (  111612 calls)
     ccgdiagg     :   1710.67s CPU   1956.05s WALL (   49101 calls)
     wfcrot       :    282.33s CPU    305.99s WALL (   41646 calls)

     Called by *cgdiagg:
     h_psi        :   1571.00s CPU   1778.40s WALL ( 3400427 calls)

     Called by h_psi:
     h_psi:calbec :    197.98s CPU    223.83s WALL ( 3400427 calls)
     vloc_psi     :   1079.80s CPU   1224.00s WALL ( 3400427 calls)
     add_vuspsi   :    248.64s CPU    279.80s WALL ( 3400427 calls)
     hs_1psi      :   1353.16s CPU   1545.79s WALL ( 3358781 calls)
     s_1psi       :    160.57s CPU    182.53s WALL ( 3358781 calls)

     General routines
     calbec       :    326.55s CPU    371.26s WALL ( 6792223 calls)
     fft          :      1.70s CPU      4.00s WALL (    3329 calls)
     ffts         :      0.09s CPU      0.21s WALL (     230 calls)
     fftw         :   1074.51s CPU   1208.16s WALL ( 9366610 calls)

     Parallel routines

     PWSCF        :   2337.73s CPU   2645.65s WALL


   This run was terminated on:  19:27:59  18Feb2025            

=------------------------------------------------------------------------------=
   JOB DONE.
=------------------------------------------------------------------------------=
