
     Program PWSCF v.7.2 starts on 29Dec2024 at 19:59:55 

     This program is part of the open-source Quantum ESPRESSO suite
     for quantum simulation of materials; please cite
         "P. Giannozzi et al., J. Phys.:Condens. Matter 21 395502 (2009);
         "P. Giannozzi et al., J. Phys.:Condens. Matter 29 465901 (2017);
         "P. Giannozzi et al., J. Chem. Phys. 152 154105 (2020);
          URL http://www.quantum-espresso.org", 
     in publications or presentations arising from this work. More details at
     http://www.quantum-espresso.org/quote

     Parallel version (MPI & OpenMP), running on       8 processor cores
     Number of MPI processes:                 8
     Threads/MPI process:                     1

     MPI processes distributed on     1 nodes
     482160 MiB available memory on the printing compute node when the environment starts

     Waiting for input...
     Reading input from standard input

     Current dimensions of program PWSCF are:
     Max number of different atomic species (ntypx) = 10
     Max number of k-points (npk) =  40000
     Max angular momentum in pseudopotentials (lmaxx) =  4

     R & G space division:  proc/nbgrp/npool/nimage =       8
     Subspace diagonalization in iterative solution of the eigenvalue problem:
     a serial algorithm will be used


     Parallelization info
     --------------------
     sticks:   dense  smooth     PW     G-vecs:    dense   smooth      PW
     Min         235     235     74                 4445     4445     815
     Max         236     236     75                 4446     4446     818
     Sum        1881    1881    599                35563    35563    6537

     Using Slab Decomposition



     bravais-lattice index     =            7
     lattice parameter (alat)  =      11.5289  a.u.
     unit-cell volume          =     367.5659 (a.u.)^3
     number of atoms/cell      =            5
     number of atomic types    =            2
     number of electrons       =        19.00
     number of Kohn-Sham states=           14
     kinetic-energy cutoff     =      80.0000  Ry
     charge density cutoff     =     320.0000  Ry
     scf convergence threshold =      1.0E-08
     mixing beta               =       0.7000
     number of iterations used =            8  plain     mixing
     energy convergence thresh.=      1.0E-04
     force convergence thresh. =      1.0E-03
     press convergence thresh. =      1.0E+00
     Exchange-correlation= PBE
                           (   1   4   3   4   0   0   0)
     nstep                     =           50


     celldm(1)=  11.528861  celldm(2)=   0.000000  celldm(3)=   0.479740
     celldm(4)=   0.000000  celldm(5)=   0.000000  celldm(6)=   0.000000

     crystal axes: (cart. coord. in units of alat)
               a(1) = (   0.500000  -0.500000   0.239870 )  
               a(2) = (   0.500000   0.500000   0.239870 )  
               a(3) = (  -0.500000  -0.500000   0.239870 )  

     reciprocal axes: (cart. coord. in units 2 pi/alat)
               b(1) = (  1.000000 -1.000000  0.000000 )  
               b(2) = (  0.000000  1.000000  2.084462 )  
               b(3) = ( -1.000000  0.000000  2.084462 )  


     PseudoPot. # 1 for Si read from file:
     ../pseudo/Si_ONCV_PBE_sr.upf
     MD5 check sum: e543d271109d17c80368dfa7c482276d
     Pseudo is Norm-conserving + core correction, Zval =  4.0
     Generated using ONCVPSP code by D. R. Hamann
     Using radial grid of 1510 points,  6 beta functions with: 
                l(1) =   0
                l(2) =   0
                l(3) =   1
                l(4) =   1
                l(5) =   2
                l(6) =   2

     PseudoPot. # 2 for Li read from file:
     ../pseudo/Li_ONCV_PBE_sr.upf
     MD5 check sum: 50ff420e78310ffa21704f3361e624a4
     Pseudo is Norm-conserving, Zval =  3.0
     Generated using ONCVPSP code by D. R. Hamann
     Using radial grid of 1944 points,  4 beta functions with: 
                l(1) =   0
                l(2) =   0
                l(3) =   1
                l(4) =   1

     atomic species   valence    mass     pseudopotential
        Si             4.00    28.08550     Si( 1.00)
        Li             3.00     6.94100     Li( 1.00)

      8 Sym. Ops., with inversion, found



   Cartesian axes

     site n.     atom                  positions (alat units)
         1           Si  tau(   1) = (   0.0849180   0.2872230   0.0000000  )
         2           Si  tau(   2) = (   0.9150820   0.7127770   0.0000000  )
         3           Si  tau(   3) = (   0.7127770   0.0849180  -0.0000000  )
         4           Si  tau(   4) = (   0.2872230   0.9150820  -0.0000000  )
         5           Li  tau(   5) = (   0.0000000   0.0000000   0.2398700  )

     number of k points=    46  Marzari-Vanderbilt smearing, width (Ry)=  0.0200
                       cart. coord. in units 2pi/alat
        k(    1) = (   0.0000000   0.0000000   0.0000000), wk =   0.0156250
        k(    2) = (  -0.1250000   0.0000000   0.2605578), wk =   0.0312500
        k(    3) = (  -0.2500000   0.0000000   0.5211155), wk =   0.1250000
        k(    4) = (  -0.3750000   0.0000000   0.7816733), wk =   0.0312500
        k(    5) = (   0.5000000   0.0000000  -1.0422311), wk =   0.0625000
        k(    6) = (  -0.1250000   0.2500000   0.7816733), wk =   0.0312500
        k(    7) = (  -0.2500000   0.2500000   1.0422311), wk =   0.1250000
        k(    8) = (  -0.3750000   0.2500000   1.3027889), wk =   0.0312500
        k(    9) = (   0.5000000   0.2500000  -0.5211155), wk =   0.1250000
        k(   10) = (   0.3750000   0.2500000  -0.2605578), wk =   0.0312500
        k(   11) = (   0.2500000   0.2500000   0.0000000), wk =   0.0625000
        k(   12) = (   0.1250000   0.2500000   0.2605578), wk =   0.0312500
        k(   13) = (  -0.1250000  -0.5000000  -0.7816733), wk =   0.0312500
        k(   14) = (  -0.3750000  -0.5000000  -0.2605578), wk =   0.0312500
        k(   15) = (   0.5000000  -0.5000000  -2.0844622), wk =   0.0312500
        k(   16) = (   0.1250000   0.0000000   0.7816733), wk =   0.0312500
        k(   17) = (   0.0000000   0.0000000   1.0422311), wk =   0.0312500
        k(   18) = (  -0.1250000   0.0000000   1.3027889), wk =   0.0312500
        k(   19) = (   0.7500000   0.0000000  -0.5211155), wk =   0.1250000
        k(   20) = (   0.6250000   0.0000000  -0.2605578), wk =   0.0312500
        k(   21) = (   0.5000000   0.0000000   0.0000000), wk =   0.0625000
        k(   22) = (   0.3750000   0.0000000   0.2605578), wk =   0.0312500
        k(   23) = (   0.1250000  -0.7500000  -0.7816733), wk =   0.0312500
        k(   24) = (  -0.1250000  -0.7500000  -0.2605578), wk =   0.0312500
        k(   25) = (   0.7500000  -0.7500000  -2.0844622), wk =   0.0625000
        k(   26) = (   0.6250000  -0.7500000  -1.8239044), wk =   0.0312500
        k(   27) = (   0.3750000  -0.7500000  -1.3027889), wk =   0.0312500
        k(   28) = (   0.1250000  -0.5000000  -0.2605578), wk =   0.0312500
        k(   29) = (   0.6250000  -0.5000000  -1.3027889), wk =   0.0312500
        k(   30) = (   0.5000000  -0.5000000  -1.0422311), wk =   0.0312500
        k(   31) = (  -0.6250000   0.0000000  -0.7816733), wk =   0.0312500
        k(   32) = (  -0.8750000   0.0000000  -0.2605578), wk =   0.0312500
        k(   33) = (   0.0000000   0.0000000  -2.0844622), wk =   0.0156250
        k(   34) = (   0.2500000  -0.1250000  -0.7816733), wk =   0.0312500
        k(   35) = (   0.2500000  -0.3750000  -1.3027889), wk =   0.0312500
        k(   36) = (   0.2500000   0.5000000   0.5211155), wk =   0.1250000
        k(   37) = (   0.2500000   0.3750000   0.2605578), wk =   0.0312500
        k(   38) = (   0.2500000   0.1250000  -0.2605578), wk =   0.0312500
        k(   39) = (  -0.5000000  -0.1250000   0.7816733), wk =   0.0312500
        k(   40) = (  -0.5000000  -0.3750000   0.2605578), wk =   0.0312500
        k(   41) = (  -0.7500000   0.1250000   0.7816733), wk =   0.0312500
        k(   42) = (  -0.7500000  -0.1250000   0.2605578), wk =   0.0312500
        k(   43) = (  -0.7500000   0.6250000   1.8239044), wk =   0.0312500
        k(   44) = (  -0.7500000   0.3750000   1.3027889), wk =   0.0312500
        k(   45) = (  -0.5000000   0.1250000   0.2605578), wk =   0.0312500
        k(   46) = (  -0.5000000   0.6250000   1.3027889), wk =   0.0312500

     Dense  grid:    35563 G-vectors     FFT dimensions: (  50,  50,  50)

     Estimated max dynamical RAM per process >      21.45 MB

     Estimated total dynamical RAM >     171.62 MB

     Initial potential from superposition of free atoms

     starting charge      18.9930, renormalised to      19.0000
     Starting wfcs are   18 randomized atomic wfcs

     total cpu time spent up to now is        3.2 secs

     Self-consistent Calculation

     iteration #  1     ecut=    80.00 Ry     beta= 0.70
     Davidson diagonalization with overlap
     ethr =  1.00E-02,  avg # of iterations =  4.3

     Threshold (ethr) on eigenvalues was too large:
     Diagonalizing with lowered threshold

     Davidson diagonalization with overlap
     ethr =  2.83E-04,  avg # of iterations =  4.9

     total cpu time spent up to now is        6.4 secs

     total energy              =     -47.98989227 Ry
     estimated scf accuracy    <       0.05785431 Ry

     iteration #  2     ecut=    80.00 Ry     beta= 0.70
     Davidson diagonalization with overlap
     ethr =  3.04E-04,  avg # of iterations =  2.1

     total cpu time spent up to now is        7.6 secs

     total energy              =     -47.99932139 Ry
     estimated scf accuracy    <       0.03636692 Ry

     iteration #  3     ecut=    80.00 Ry     beta= 0.70
     Davidson diagonalization with overlap
     ethr =  1.91E-04,  avg # of iterations =  2.0

     total cpu time spent up to now is        8.7 secs

     total energy              =     -48.00736537 Ry
     estimated scf accuracy    <       0.00075969 Ry

     iteration #  4     ecut=    80.00 Ry     beta= 0.70
     Davidson diagonalization with overlap
     ethr =  4.00E-06,  avg # of iterations =  5.4

     total cpu time spent up to now is       10.0 secs

     total energy              =     -48.00748350 Ry
     estimated scf accuracy    <       0.00003938 Ry

     iteration #  5     ecut=    80.00 Ry     beta= 0.70
     Davidson diagonalization with overlap
     ethr =  2.07E-07,  avg # of iterations =  2.4

     total cpu time spent up to now is       11.1 secs

     total energy              =     -48.00749232 Ry
     estimated scf accuracy    <       0.00000216 Ry

     iteration #  6     ecut=    80.00 Ry     beta= 0.70
     Davidson diagonalization with overlap
     ethr =  1.13E-08,  avg # of iterations =  3.5

     total cpu time spent up to now is       12.3 secs

     total energy              =     -48.00749323 Ry
     estimated scf accuracy    <       0.00000066 Ry

     iteration #  7     ecut=    80.00 Ry     beta= 0.70
     Davidson diagonalization with overlap
     ethr =  3.47E-09,  avg # of iterations =  2.2

     total cpu time spent up to now is       13.2 secs

     total energy              =     -48.00749333 Ry
     estimated scf accuracy    <       0.00000001 Ry

     iteration #  8     ecut=    80.00 Ry     beta= 0.70
     Davidson diagonalization with overlap
     ethr =  5.65E-11,  avg # of iterations =  4.1

     total cpu time spent up to now is       14.5 secs

     End of self-consistent calculation

          k = 0.0000 0.0000 0.0000 (  4427 PWs)   bands (ev):

   -33.2850  -2.9120   4.0138   4.4475   4.4475   6.0284  11.7892  11.7892
    12.2537  13.4820  14.5956  15.2138  15.2138  17.1032

          k =-0.1250 0.0000 0.2606 (  4442 PWs)   bands (ev):

   -33.2826  -2.6064   3.5856   4.3760   5.4822   6.5962  10.7001  11.6620
    11.9860  12.8376  13.0357  13.3591  14.0929  16.8672

          k =-0.2500 0.0000 0.5211 (  4427 PWs)   bands (ev):

   -33.2769  -1.6918   3.6005   4.4585   7.1545   7.8455   8.2501   9.5190
     9.8880  11.0845  12.6269  13.1922  15.2290  17.6488

          k =-0.3750 0.0000 0.7817 (  4444 PWs)   bands (ev):

   -33.2712  -0.1790   4.2270   4.3873   5.3011   7.3450   8.0219   9.2214
     9.9552  10.3564  12.5217  14.6166  15.7391  16.5455

          k = 0.5000 0.0000-1.0422 (  4472 PWs)   bands (ev):

   -33.2688   1.6551   2.2287   5.3331   5.3967   5.7865   7.1132   9.7283
    10.2188  12.6904  13.2108  13.6198  14.4976  16.2009

          k =-0.1250 0.2500 0.7817 (  4446 PWs)   bands (ev):

   -33.2712  -0.3913   4.2638   5.2559   5.9080   7.0999   7.8208   8.1837
     9.4194  10.7463  11.9989  13.8474  16.7738  17.1304

          k =-0.2500 0.2500 1.0422 (  4447 PWs)   bands (ev):

   -33.2688   1.4551   2.8566   3.9214   5.5067   6.6892   7.9147   8.9939
    10.0193  12.2766  13.0865  13.8629  14.1759  16.4233

          k =-0.3750 0.2500 1.3028 (  4447 PWs)   bands (ev):

   -33.2712   0.7316   2.2346   4.0875   5.4462   6.8221   7.9595  10.4520
    11.4816  12.4869  12.6672  13.6206  15.1825  16.0489

          k = 0.5000 0.2500-0.5211 (  4436 PWs)   bands (ev):

   -33.2768  -0.9216   1.4109   4.8261   6.6187   7.5966   8.6741   9.4363
    11.0408  12.4083  13.2391  15.5129  16.3423  17.3350

          k = 0.3750 0.2500-0.2606 (  4433 PWs)   bands (ev):

   -33.2825  -2.0111   1.1434   4.7262   6.2235   8.2585   9.2633  10.3347
    11.1251  12.7714  15.3512  16.3849  17.1495  17.8419

          k = 0.2500 0.2500 0.0000 (  4419 PWs)   bands (ev):

   -33.2849  -2.5066   1.4723   4.8936   5.3309   8.2292   9.1778  10.1900
    13.5818  14.5594  15.6217  16.2474  16.8436  17.0815

          k = 0.1250 0.2500 0.2606 (  4445 PWs)   bands (ev):

   -33.2826  -2.3999   2.3727   4.3456   6.1039   7.7617   9.5152  10.9866
    11.2006  12.9349  13.9006  14.6074  15.6885  17.5376

          k =-0.1250-0.5000-0.7817 (  4451 PWs)   bands (ev):

   -33.2712   0.2287   3.1460   4.2019   5.2729   7.0142   8.3784   9.5474
    10.5110  11.7144  13.2340  13.8399  15.4251  16.2077

          k =-0.3750-0.5000-0.2606 (  4440 PWs)   bands (ev):

   -33.2824  -1.5645   0.2654   5.0616   6.7211   7.0748   9.1135  10.5793
    12.0596  13.2527  15.2388  16.8353  18.1666  18.6443

          k = 0.5000-0.5000-2.0845 (  4412 PWs)   bands (ev):

   -33.2848  -1.7622  -0.1370   5.6444   5.9032   6.8900   8.5917  13.1597
    13.6619  13.7774  14.1810  16.0786  18.3806  19.6924

          k = 0.1250 0.0000 0.7817 (  4436 PWs)   bands (ev):

   -33.2713  -0.6020   5.5443   5.7472   6.1495   6.8903   7.3306   7.5644
     7.7775  10.7419  13.0650  14.1853  15.3468  17.2868

          k = 0.0000 0.0000 1.0422 (  4444 PWs)   bands (ev):

   -33.2688   1.0499   4.0103   4.5494   4.5494   6.4879   8.0610   8.5565
     8.5565  11.0943  15.7411  15.7411  16.0799  17.4893

          k =-0.1250 0.0000 1.3028 (  4455 PWs)   bands (ev):

   -33.2711   1.7947   2.8298   2.9561   3.3703   5.9193   9.6432  10.5225
    11.4840  12.9400  15.4967  15.6407  16.3713  16.7413

          k = 0.7500 0.0000-0.5211 (  4440 PWs)   bands (ev):

   -33.2767  -0.0749   1.7206   2.4094   4.7579   6.8635  11.5591  12.1508
    12.7904  13.6538  14.8809  15.3052  15.4119  16.2024

          k = 0.6250 0.0000-0.2606 (  4424 PWs)   bands (ev):

   -33.2824  -1.3802   1.2416   2.2005   5.2532   9.7994  10.6447  11.1649
    13.3243  14.0969  14.3783  15.4083  18.1056  18.4803

          k = 0.5000 0.0000 0.0000 (  4438 PWs)   bands (ev):

   -33.2848  -2.0878   1.3987   2.4752   6.0406   8.9632   9.7507  12.6966
    12.6978  13.5743  16.0634  16.0655  16.6050  18.7295

          k = 0.3750 0.0000 0.2606 (  4436 PWs)   bands (ev):

   -33.2825  -2.1906   2.1894   3.2311   7.0690   8.0654   8.9584  10.7117
    12.4141  13.2796  13.4854  14.4625  16.9052  18.4077

          k = 0.1250-0.7500-0.7817 (  4458 PWs)   bands (ev):

   -33.2711   1.1816   2.5125   3.5555   4.2038   6.3872   8.5814  10.4530
    12.1638  13.3797  13.8633  14.4512  15.1237  15.9752

          k =-0.1250-0.7500-0.2606 (  4435 PWs)   bands (ev):

   -33.2823  -0.8758   0.6293   2.1292   4.5825   9.6568  11.2640  12.8431
    13.3356  14.6067  15.0934  16.0345  17.1506  17.7276

          k = 0.7500-0.7500-2.0845 (  4436 PWs)   bands (ev):

   -33.2846  -1.2846   0.1113   2.5743   4.7788  10.0193  11.4568  12.2852
    13.8822  14.2360  15.4410  15.9062  17.7737  19.0885

          k = 0.6250-0.7500-1.8239 (  4430 PWs)   bands (ev):

   -33.2824  -1.3316   0.4009   3.5063   5.5616   9.1971   9.9180  10.7531
    12.7924  13.5166  15.6352  16.4247  17.6415  18.1549

          k = 0.3750-0.7500-1.3028 (  4440 PWs)   bands (ev):

   -33.2712   0.0121   3.0101   4.8244   5.9324   7.1976   8.1951   9.1613
    10.3448  11.2772  11.5280  13.8850  15.0079  17.3499

          k = 0.1250-0.5000-0.2606 (  4424 PWs)   bands (ev):

   -33.2824  -1.7945   1.2561   3.2202   6.2266   8.9031  10.0002  10.3568
    11.9450  13.4705  14.7936  15.6390  17.9238  18.1139

          k = 0.6250-0.5000-1.3028 (  4441 PWs)   bands (ev):

   -33.2712   0.5022   2.0864   4.5893   6.0586   7.0722   8.9132   9.0624
    10.9152  11.2315  12.4170  13.6758  14.6056  16.1701

          k = 0.5000-0.5000-1.0422 (  4428 PWs)   bands (ev):

   -33.2688   2.3914   2.3914   2.8626   4.5905   9.5016   9.5016   9.8236
    10.1321  10.7584  11.1450  11.1450  14.4929  17.7717

          k =-0.6250 0.0000-0.7817 (  4452 PWs)   bands (ev):

   -33.2711   0.6476   3.2988   3.4523   4.4503   6.9582   8.3154   9.5637
    12.4458  12.6436  13.7588  14.1254  14.8703  15.5170

          k =-0.8750 0.0000-0.2606 (  4426 PWs)   bands (ev):

   -33.2822  -0.2623   0.7647   1.1290   3.9709   9.4965  13.5230  13.7365
    14.7087  15.0904  15.6377  16.1998  16.4791  16.8772

          k = 0.0000 0.0000-2.0845 (  4424 PWs)   bands (ev):

   -33.2845  -0.0878   0.4447   0.4447   3.6655  11.8731  14.3505  14.3505
    14.5522  15.1296  15.5929  15.6597  15.6597  16.2636

          k = 0.2500-0.1250-0.7817 (  4446 PWs)   bands (ev):

   -33.2712  -0.3913   4.2662   5.1886   6.2535   6.5608   8.1271   8.2800
     9.3180  10.5834  12.1678  13.8108  16.5606  17.4385

          k = 0.2500-0.3750-1.3028 (  4447 PWs)   bands (ev):

   -33.2712   0.7316   2.2345   4.0771   5.5241   6.6444   8.0918  10.7827
    11.0683  12.3235  12.5190  14.3547  15.0284  15.8832

          k = 0.2500 0.5000 0.5211 (  4436 PWs)   bands (ev):

   -33.2768  -0.9217   1.4117   4.8075   6.6914   7.6435   8.4510   9.4289
    11.3871  12.3041  13.1410  15.3172  16.6226  16.9274

          k = 0.2500 0.3750 0.2606 (  4433 PWs)   bands (ev):

   -33.2825  -2.0111   1.1446   4.6709   6.5113   7.6468   9.8587  10.4462
    10.7956  12.8113  15.2882  16.1086  17.1853  18.4206

          k = 0.2500 0.1250-0.2606 (  4445 PWs)   bands (ev):

   -33.2826  -2.3999   2.3702   4.3741   5.9977   7.9759   9.3586  10.7679
    11.4318  12.9195  14.0441  14.4933  15.7334  17.4461

          k =-0.5000-0.1250 0.7817 (  4451 PWs)   bands (ev):

   -33.2712   0.2287   3.1448   4.2316   5.1758   7.3611   8.0384   9.3321
    10.9033  11.8687  12.7932  14.3047  14.6781  16.4336

          k =-0.5000-0.3750 0.2606 (  4440 PWs)   bands (ev):

   -33.2824  -1.5644   0.2650   5.1135   6.3512   7.5439   8.9409  10.5514
    12.1241  13.1831  15.3743  16.8538  18.1793  18.6965

          k =-0.7500 0.1250 0.7817 (  4458 PWs)   bands (ev):

   -33.2711   1.1816   2.5130   3.5465   4.2193   6.3680   8.5918  10.5341
    11.9867  13.3008  14.1327  14.3306  15.2810  16.1011

          k =-0.7500-0.1250 0.2606 (  4435 PWs)   bands (ev):

   -33.2823  -0.8757   0.6281   2.1324   4.5771   9.6708  11.3965  12.4421
    13.4581  14.4470  15.8269  16.1218  16.7021  17.6838

          k =-0.7500 0.6250 1.8239 (  4430 PWs)   bands (ev):

   -33.2824  -1.3318   0.4020   3.4941   5.6031   8.9520  10.0576  10.9485
    12.6596  13.6985  15.1934  16.3891  17.8129  18.0919

          k =-0.7500 0.3750 1.3028 (  4440 PWs)   bands (ev):

   -33.2712   0.0121   3.0100   4.7950   6.2170   6.6661   8.6150   9.3683
     9.9917  10.8228  12.0465  13.7254  15.3161  17.0368

          k =-0.5000 0.1250 0.2606 (  4424 PWs)   bands (ev):

   -33.2824  -1.7945   1.2591   3.2041   6.3351   8.4608  10.2848  10.7152
    11.7016  13.5378  14.6258  15.4187  17.9596  18.4110

          k =-0.5000 0.6250 1.3028 (  4441 PWs)   bands (ev):

   -33.2712   0.5022   2.0865   4.5978   5.9718   7.3125   8.4368   9.3454
    10.8771  11.3145  12.7315  13.1900  14.7031  16.1739

     the Fermi energy is    12.8119 ev

!    total energy              =     -48.00749334 Ry
     estimated scf accuracy    <          1.9E-09 Ry
     smearing contrib. (-TS)   =      -0.00007653 Ry
     internal energy E=F+TS    =     -48.00741681 Ry

     The total energy is F=E-TS. E is the sum of the following terms:
     one-electron contribution =      15.66689704 Ry
     hartree contribution      =       3.01087382 Ry
     xc contribution           =     -16.61491254 Ry
     ewald contribution        =     -50.07027513 Ry

     convergence has been achieved in   8 iterations

     Forces acting on atoms (cartesian axes, Ry/au):

     atom    1 type  1   force =     0.01974144   -0.00215152    0.00000000
     atom    2 type  1   force =    -0.01974144    0.00215152    0.00000000
     atom    3 type  1   force =     0.00215152    0.01974144    0.00000000
     atom    4 type  1   force =    -0.00215152   -0.01974144   -0.00000000
     atom    5 type  2   force =     0.00000000    0.00000000   -0.00000000
     The non-local contrib.  to forces
     atom    1 type  1   force =     0.01756221    0.03001871    0.00000000
     atom    2 type  1   force =    -0.01756221   -0.03001871   -0.00000000
     atom    3 type  1   force =    -0.03001871    0.01756221   -0.00000000
     atom    4 type  1   force =     0.03001871   -0.01756221    0.00000000
     atom    5 type  2   force =     0.00000000    0.00000000    0.00000000
     The ionic contribution  to forces
     atom    1 type  1   force =     0.06031985    0.03551498    0.00000000
     atom    2 type  1   force =    -0.06031985   -0.03551498    0.00000000
     atom    3 type  1   force =    -0.03551498    0.06031985   -0.00000000
     atom    4 type  1   force =     0.03551498   -0.06031985   -0.00000000
     atom    5 type  2   force =    -0.00000000   -0.00000000   -0.00000000
     The local contribution  to forces
     atom    1 type  1   force =    -0.05705994   -0.06689972   -0.00000000
     atom    2 type  1   force =     0.05705994    0.06689972    0.00000000
     atom    3 type  1   force =     0.06689972   -0.05705994    0.00000000
     atom    4 type  1   force =    -0.06689972    0.05705994   -0.00000000
     atom    5 type  2   force =     0.00000000    0.00000000    0.00000000
     The core correction contribution to forces
     atom    1 type  1   force =    -0.00107509   -0.00081836    0.00000000
     atom    2 type  1   force =     0.00107509    0.00081836   -0.00000000
     atom    3 type  1   force =     0.00081836   -0.00107509   -0.00000000
     atom    4 type  1   force =    -0.00081836    0.00107509    0.00000000
     atom    5 type  2   force =     0.00000000    0.00000000    0.00000000
     The Hubbard contrib.    to forces
     atom    1 type  1   force =     0.00000000    0.00000000    0.00000000
     atom    2 type  1   force =     0.00000000    0.00000000    0.00000000
     atom    3 type  1   force =     0.00000000    0.00000000    0.00000000
     atom    4 type  1   force =     0.00000000    0.00000000    0.00000000
     atom    5 type  2   force =     0.00000000    0.00000000    0.00000000
     The SCF correction term to forces
     atom    1 type  1   force =    -0.00000559    0.00003286    0.00000000
     atom    2 type  1   force =     0.00000559   -0.00003286   -0.00000000
     atom    3 type  1   force =    -0.00003286   -0.00000559    0.00000000
     atom    4 type  1   force =     0.00003286    0.00000559   -0.00000000
     atom    5 type  2   force =     0.00000000    0.00000000   -0.00000000

     Total force =     0.039717     Total SCF correction =     0.000067


     Computing stress (Cartesian axis) and pressure

          total   stress  (Ry/bohr**3)                   (kbar)     P=      343.61
   0.00203049   0.00000000  -0.00000000          298.70        0.00       -0.00
  -0.00000000   0.00203049  -0.00000000           -0.00      298.70       -0.00
   0.00000000   0.00000000   0.00294653            0.00        0.00      433.45


     BFGS Geometry Optimization
     Energy error            =      0.0E+00 Ry
     Gradient error          =      2.0E-02 Ry/Bohr
     Cell gradient error     =      2.0E+02 kbar

     number of scf cycles    =   1
     number of bfgs steps    =   0

     enthalpy           new  =     -46.7581623057 Ry

     new trust radius        =       0.1311789353 bohr
ibrav =      7
 celldm(1) =     11.13444641
 celldm(3) =      0.49111578
Input lattice vectors:
     0.48289447    -0.48289447     0.23715710
     0.48289447     0.48289447     0.23715710
    -0.48289447    -0.48289447     0.23715710
New lattice vectors in INITIAL alat:
     0.48289447    -0.48289447     0.23715710
     0.48289447     0.48289447     0.23715710
    -0.48289447    -0.48289447     0.23715710
New lattice vectors in NEW alat (for information only):
     0.50000000    -0.50000000     0.24555789
     0.50000000     0.50000000     0.24555789
    -0.50000000    -0.50000000     0.24555789
Discrepancy in bohr =     0.000000    0.000000    0.000000
     new conv_thr            =       0.0000000100 Ry

     new unit-cell volume =    338.96884 a.u.^3 (    50.23000 Ang^3 )
     density =      3.94334 g/cm^3

CELL_PARAMETERS (alat= 11.52886094)
   0.482894471  -0.482894471   0.237157095
   0.482894471   0.482894471   0.237157095
  -0.482894471  -0.482894471   0.237157095

ATOMIC_POSITIONS (crystal)
Si           -0.2004060303        0.2870363795       -0.0866303493
Si            0.2004060303        0.7129636205       -0.9133696507
Si            0.6263332712        0.0866303493       -0.7129636205
Si           -0.6263332712        0.9133696507       -0.2870363795
Li           -0.0000000000        0.5000000000        0.5000000000



     Writing config-only to output data dir ./output/SiLi.save/
     NEW-OLD atomic charge density approx. for the potential
     extrapolated charge   17.39766, renormalised to   19.00000

     total cpu time spent up to now is       16.6 secs

     Self-consistent Calculation

     iteration #  1     ecut=    80.00 Ry     beta= 0.70
     Davidson diagonalization with overlap
     c_bands:  1 eigenvalues not converged
     c_bands:  2 eigenvalues not converged
     c_bands:  1 eigenvalues not converged
     c_bands:  1 eigenvalues not converged
     ethr =  1.00E-06,  avg # of iterations = 11.9

     total cpu time spent up to now is       19.6 secs

     total energy              =     -47.92665234 Ry
     estimated scf accuracy    <       0.00189053 Ry

     iteration #  2     ecut=    80.00 Ry     beta= 0.70
     Davidson diagonalization with overlap
     ethr =  9.95E-06,  avg # of iterations =  3.5

     total cpu time spent up to now is       20.9 secs

     total energy              =     -47.93194256 Ry
     estimated scf accuracy    <       0.00326784 Ry

     iteration #  3     ecut=    80.00 Ry     beta= 0.70
     Davidson diagonalization with overlap
     ethr =  9.95E-06,  avg # of iterations =  1.9

     total cpu time spent up to now is       21.9 secs

     total energy              =     -47.93201660 Ry
     estimated scf accuracy    <       0.00053518 Ry

     iteration #  4     ecut=    80.00 Ry     beta= 0.70
     Davidson diagonalization with overlap
     ethr =  2.82E-06,  avg # of iterations =  1.9

     total cpu time spent up to now is       22.8 secs

     total energy              =     -47.93194300 Ry
     estimated scf accuracy    <       0.00018736 Ry

     iteration #  5     ecut=    80.00 Ry     beta= 0.70
     Davidson diagonalization with overlap
     ethr =  9.86E-07,  avg # of iterations =  2.2

     total cpu time spent up to now is       23.8 secs

     total energy              =     -47.93197259 Ry
     estimated scf accuracy    <       0.00000355 Ry

     iteration #  6     ecut=    80.00 Ry     beta= 0.70
     Davidson diagonalization with overlap
     ethr =  1.87E-08,  avg # of iterations =  3.9

     total cpu time spent up to now is       25.0 secs

     total energy              =     -47.93197468 Ry
     estimated scf accuracy    <       0.00000022 Ry

     iteration #  7     ecut=    80.00 Ry     beta= 0.70
     Davidson diagonalization with overlap
     ethr =  1.15E-09,  avg # of iterations =  2.2

     total cpu time spent up to now is       26.0 secs

     End of self-consistent calculation

          k = 0.0000 0.0000 0.0000 (  4427 PWs)   bands (ev):

   -32.1437  -2.4318   4.8553   5.4553   5.4553   6.9232  13.2290  13.2290
    13.9021  14.6802  15.5529  16.1576  16.1576  18.0128

          k =-0.1294-0.0000 0.2635 (  4442 PWs)   bands (ev):

   -32.1409  -2.1188   4.4407   5.3341   6.4812   7.5403  12.0203  12.5576
    13.2599  14.0471  14.1711  14.4853  15.6217  18.0746

          k =-0.2589-0.0000 0.5271 (  4427 PWs)   bands (ev):

   -32.1339  -1.1816   4.4286   5.3506   8.0687   8.7673   9.2595  10.4573
    10.8832  12.2656  13.8147  14.7121  16.8132  19.2782

          k =-0.3883-0.0000 0.7906 (  4444 PWs)   bands (ev):

   -32.1270   0.3686   5.0303   5.1126   6.0820   8.1652   8.9474  10.2238
    11.1171  11.5938  13.8368  16.1568  17.1857  18.0897

          k = 0.5177 0.0000-1.0542 (  4472 PWs)   bands (ev):

   -32.1241   2.2370   2.8563   6.0982   6.1786   6.6278   8.0659  10.7594
    11.2997  13.9997  14.6421  14.9447  15.8865  17.8793

          k =-0.1294 0.2589 0.7906 (  4446 PWs)   bands (ev):

   -32.1270   0.1424   5.0670   5.9941   6.6529   8.0979   8.7394   9.1295
    10.5042  11.8317  13.4311  15.3221  18.4048  18.7088

          k =-0.2589 0.2589 1.0542 (  4447 PWs)   bands (ev):

   -32.1241   2.0261   3.5276   4.6379   6.2375   7.6346   8.8219  10.1247
    11.0551  13.3966  14.4617  15.3438  15.6382  18.1021

          k =-0.3883 0.2589 1.3177 (  4447 PWs)   bands (ev):

   -32.1269   1.3446   2.9101   4.7431   6.2825   7.6799   8.9205  11.4829
    12.8531  13.7051  13.8661  14.8910  16.7414  17.6513

          k = 0.5177 0.2589-0.5271 (  4436 PWs)   bands (ev):

   -32.1337  -0.3587   2.1051   5.7332   7.4346   8.3936   9.8230  10.4898
    12.1525  13.7468  14.5584  16.7476  17.7125  19.1138

          k = 0.3883 0.2589-0.2635 (  4433 PWs)   bands (ev):

   -32.1406  -1.4839   1.8601   5.6837   7.1617   9.5430  10.3650  11.2262
    12.2940  13.8089  16.5148  17.7615  19.0257  19.2799

          k = 0.2589 0.2589 0.0000 (  4419 PWs)   bands (ev):

   -32.1435  -1.9999   2.2229   5.9212   6.2352   9.2823  10.5849  11.4370
    14.4498  15.4166  16.9803  17.8118  18.1791  18.3291

          k = 0.1294 0.2589 0.2635 (  4445 PWs)   bands (ev):

   -32.1408  -1.8987   3.1664   5.2739   7.1064   8.7795  10.8140  12.0238
    12.3204  13.9306  14.9982  16.0394  17.1866  18.9285

          k =-0.1294-0.5177-0.7906 (  4451 PWs)   bands (ev):

   -32.1269   0.8040   3.8791   4.8792   6.1243   7.7755   9.3916  10.5912
    11.7600  12.8435  14.7157  15.0455  17.1854  17.5312

          k =-0.3883-0.5177-0.2635 (  4440 PWs)   bands (ev):

   -32.1405  -1.0061   0.9246   6.0073   7.6993   8.2307  10.2732  11.3809
    13.0163  14.7143  16.8977  18.0749  19.3529  19.6949

          k = 0.5177-0.5177-2.1083 (  4412 PWs)   bands (ev):

   -32.1433  -1.2043   0.5090   6.5275   7.0355   8.0048   9.7430  13.9988
    15.0022  15.1187  15.2348  17.2141  19.6004  21.1510

          k = 0.1294-0.0000 0.7906 (  4436 PWs)   bands (ev):

   -32.1271  -0.0823   6.3477   6.5719   6.9792   7.7010   8.2182   8.6061
     8.8123  11.7343  14.5980  15.7200  17.0290  18.7623

          k = 0.0000-0.0000 1.0542 (  4444 PWs)   bands (ev):

   -32.1241   1.5943   4.7683   5.3012   5.3012   7.2394   9.0011   9.6611
     9.6611  12.1357  17.3113  17.3113  17.8401  18.7766

          k =-0.1294-0.0000 1.3177 (  4455 PWs)   bands (ev):

   -32.1268   2.4826   3.5552   3.6094   4.0796   6.6933  10.6245  11.6315
    12.6089  14.0276  17.0970  17.2106  17.9587  18.3793

          k = 0.7766 0.0000-0.5271 (  4440 PWs)   bands (ev):

   -32.1335   0.5467   2.4338   3.1838   5.5551   7.5541  12.5497  13.2552
    14.2418  15.1729  16.2324  16.7829  16.8817  17.4792

          k = 0.6471 0.0000-0.2635 (  4424 PWs)   bands (ev):

   -32.1404  -0.8102   1.9594   3.0013   6.1557  10.5137  12.0199  12.4579
    14.7465  15.4505  15.6028  16.6197  19.0971  20.1197

          k = 0.5177 0.0000 0.0000 (  4438 PWs)   bands (ev):

   -32.1433  -1.5530   2.1388   3.3055   6.9912  10.2271  11.0315  13.4791
    14.1538  14.9483  17.0621  17.2138  17.6216  20.2038

          k = 0.3883 0.0000 0.2635 (  4436 PWs)   bands (ev):

   -32.1407  -1.6756   2.9677   4.0928   8.0166   9.2383  10.2038  11.5200
    13.7803  14.5430  14.6419  15.6284  18.2128  20.0901

          k = 0.1294-0.7766-0.7906 (  4458 PWs)   bands (ev):

   -32.1268   1.8249   3.1971   4.2068   5.0103   7.1940   9.5326  11.5095
    13.3142  14.7921  15.0965  15.7925  16.7736  17.5238

          k =-0.1294-0.7766-0.2635 (  4435 PWs)   bands (ev):

   -32.1403  -0.2691   1.3094   2.9250   5.4451  10.3485  12.6592  14.1476
    14.8262  15.8110  16.8078  17.2600  18.2376  18.9573

          k = 0.7766-0.7766-2.1083 (  4436 PWs)   bands (ev):

   -32.1431  -0.6926   0.7702   3.4122   5.6676  11.3569  12.7724  13.0361
    15.1904  15.7998  16.6653  16.8767  19.6498  20.4602

          k = 0.6471-0.7766-1.8448 (  4430 PWs)   bands (ev):

   -32.1404  -0.7569   1.0673   4.3893   6.4697  10.4763  10.7138  11.9318
    13.9256  14.8652  17.3068  17.7021  19.2276  19.3613

          k = 0.3883-0.7766-1.3177 (  4440 PWs)   bands (ev):

   -32.1270   0.5732   3.7421   5.5204   6.6338   8.2744   9.1775  10.0931
    11.5044  12.3989  12.9195  15.2941  16.4109  19.0126

          k = 0.1294-0.5177-0.2635 (  4424 PWs)   bands (ev):

   -32.1405  -1.2527   1.9780   4.0818   7.1580  10.2332  10.8287  11.4558
    13.3111  14.5120  16.1132  17.0067  19.2345  19.8336

          k = 0.6471-0.5177-1.3177 (  4441 PWs)   bands (ev):

   -32.1269   1.0998   2.7564   5.2622   6.7589   8.0540  10.0138  10.2765
    11.9750  12.3533  13.4985  15.1362  16.1097  17.8131

          k = 0.5177-0.5177-1.0542 (  4428 PWs)   bands (ev):

   -32.1241   3.0314   3.0314   3.5154   5.2841  10.4837  10.4837  10.9846
    11.4825  11.7506  12.3191  12.3191  16.1309  19.5108

          k =-0.6471-0.0000-0.7906 (  4452 PWs)   bands (ev):

   -32.1269   1.2510   4.0528   4.1170   5.2174   7.7962   9.2415  10.5989
    13.6665  14.0149  15.0681  15.4741  16.2219  17.1824

          k =-0.9060-0.0000-0.2635 (  4426 PWs)   bands (ev):

   -32.1402   0.3907   1.4511   1.8586   4.7964  10.1762  15.0423  15.2391
    16.1642  16.5885  16.9911  17.6057  17.8632  18.4558

          k = 0.0000 0.0000-2.1083 (  4424 PWs)   bands (ev):

   -32.1429   0.6091   1.1220   1.1220   4.4920  12.5935  15.2722  16.0466
    16.0466  16.8386  16.8925  17.2945  17.2945  18.2237

          k = 0.2589-0.1294-0.7906 (  4446 PWs)   bands (ev):

   -32.1270   0.1424   5.0713   5.8996   7.1594   7.3128   9.1336   9.3018
    10.3825  11.6164  13.6561  15.2160  18.2381  19.0938

          k = 0.2589-0.3883-1.3177 (  4447 PWs)   bands (ev):

   -32.1269   1.3447   2.9097   4.7284   6.4174   7.4024   9.1025  11.9375
    12.3086  13.4204  13.6810  15.9974  16.3788  17.4777

          k = 0.2589 0.5177 0.5271 (  4436 PWs)   bands (ev):

   -32.1337  -0.3588   2.1062   5.7111   7.4989   8.4450   9.6077  10.4456
    12.5947  13.6052  14.4076  16.4734  18.3497  18.6107

          k = 0.2589 0.3883 0.2635 (  4433 PWs)   bands (ev):

   -32.1406  -1.4840   1.8619   5.6039   7.5386   8.7140  11.1160  11.5475
    11.7544  13.8566  16.4185  17.7415  18.5531  19.6985

          k = 0.2589 0.1294-0.2635 (  4445 PWs)   bands (ev):

   -32.1408  -1.8987   3.1627   5.3154   6.9606   9.0380  10.6744  11.7298
    12.5641  13.9358  15.1951  15.8193  17.3405  18.7945

          k =-0.5177-0.1294 0.7906 (  4451 PWs)   bands (ev):

   -32.1269   0.8040   3.8772   4.9237   5.9663   8.2931   8.9199  10.3050
    12.2092  13.1616  14.0337  15.7247  16.1145  17.8761

          k =-0.5177-0.3883 0.2635 (  4440 PWs)   bands (ev):

   -32.1405  -1.0060   0.9240   6.0809   7.2859   8.7949  10.0210  11.3500
    13.0797  14.6426  17.0395  18.0966  19.4636  19.8604

          k =-0.7766 0.1294 0.7906 (  4458 PWs)   bands (ev):

   -32.1268   1.8250   3.1980   4.1938   5.0352   7.1620   9.5469  11.6396
    13.0570  14.7362  15.3707  15.6130  16.9991  17.7447

          k =-0.7766-0.1294 0.2635 (  4435 PWs)   bands (ev):

   -32.1403  -0.2688   1.3075   2.9298   5.4376  10.3616  12.8324  13.7673
    14.8998  15.5908  17.2632  17.7315  18.2590  18.9011

          k =-0.7766 0.6471 1.8448 (  4430 PWs)   bands (ev):

   -32.1404  -0.7571   1.0689   4.3713   6.5260  10.0812  10.9464  12.1925
    13.7836  15.0747  16.8797  17.6099  18.9086  19.2628

          k =-0.7766 0.3883 1.3177 (  4440 PWs)   bands (ev):

   -32.1270   0.5732   3.7417   5.4790   6.9529   7.5926   9.7626  10.4206
    11.0673  11.8440  13.4836  15.0445  16.8609  18.5658

          k =-0.5177 0.1294 0.2635 (  4424 PWs)   bands (ev):

   -32.1405  -1.2528   1.9824   4.0583   7.2974   9.5941  11.1414  11.9649
    13.0908  14.5821  15.9107  16.8445  19.0760  19.6117

          k =-0.5177 0.6471 1.3177 (  4441 PWs)   bands (ev):

   -32.1269   1.0998   2.7567   5.2743   6.6602   8.3679   9.4625  10.5134
    11.9641  12.4666  13.8920  14.5109  16.2501  17.8391

     the Fermi energy is    14.0381 ev

!    total energy              =     -47.93197475 Ry
     estimated scf accuracy    <          4.8E-09 Ry
     smearing contrib. (-TS)   =       0.00034364 Ry
     internal energy E=F+TS    =     -47.93231839 Ry

     The total energy is F=E-TS. E is the sum of the following terms:
     one-electron contribution =      17.44118576 Ry
     hartree contribution      =       2.95918641 Ry
     xc contribution           =     -16.89467287 Ry
     ewald contribution        =     -51.43801768 Ry

     convergence has been achieved in   7 iterations

     Forces acting on atoms (cartesian axes, Ry/au):

     atom    1 type  1   force =     0.02191111   -0.00315414    0.00000000
     atom    2 type  1   force =    -0.02191111    0.00315414    0.00000000
     atom    3 type  1   force =     0.00315414    0.02191111    0.00000000
     atom    4 type  1   force =    -0.00315414   -0.02191111    0.00000000
     atom    5 type  2   force =    -0.00000000    0.00000000    0.00000000
     The non-local contrib.  to forces
     atom    1 type  1   force =     0.01664870    0.02903670   -0.00000000
     atom    2 type  1   force =    -0.01664870   -0.02903670    0.00000000
     atom    3 type  1   force =    -0.02903670    0.01664870   -0.00000000
     atom    4 type  1   force =     0.02903670   -0.01664870   -0.00000000
     atom    5 type  2   force =     0.00000000    0.00000000    0.00000000
     The ionic contribution  to forces
     atom    1 type  1   force =     0.04634793    0.06683806   -0.00000000
     atom    2 type  1   force =    -0.04634793   -0.06683806    0.00000000
     atom    3 type  1   force =    -0.06683806    0.04634793    0.00000000
     atom    4 type  1   force =     0.06683806   -0.04634793   -0.00000000
     atom    5 type  2   force =    -0.00000000   -0.00000000    0.00000000
     The local contribution  to forces
     atom    1 type  1   force =    -0.04023134   -0.09832708    0.00000000
     atom    2 type  1   force =     0.04023134    0.09832708   -0.00000000
     atom    3 type  1   force =     0.09832708   -0.04023134    0.00000000
     atom    4 type  1   force =    -0.09832708    0.04023134   -0.00000000
     atom    5 type  2   force =     0.00000000    0.00000000    0.00000000
     The core correction contribution to forces
     atom    1 type  1   force =    -0.00085791   -0.00065496    0.00000000
     atom    2 type  1   force =     0.00085791    0.00065496   -0.00000000
     atom    3 type  1   force =     0.00065496   -0.00085791   -0.00000000
     atom    4 type  1   force =    -0.00065496    0.00085791    0.00000000
     atom    5 type  2   force =     0.00000000    0.00000000    0.00000000
     The Hubbard contrib.    to forces
     atom    1 type  1   force =     0.00000000    0.00000000    0.00000000
     atom    2 type  1   force =     0.00000000    0.00000000    0.00000000
     atom    3 type  1   force =     0.00000000    0.00000000    0.00000000
     atom    4 type  1   force =     0.00000000    0.00000000    0.00000000
     atom    5 type  2   force =     0.00000000    0.00000000    0.00000000
     The SCF correction term to forces
     atom    1 type  1   force =     0.00000373   -0.00004686    0.00000000
     atom    2 type  1   force =    -0.00000373    0.00004686   -0.00000000
     atom    3 type  1   force =     0.00004686    0.00000373    0.00000000
     atom    4 type  1   force =    -0.00004686   -0.00000373    0.00000000
     atom    5 type  2   force =    -0.00000000   -0.00000000   -0.00000000

     Total force =     0.044274     Total SCF correction =     0.000094


     Computing stress (Cartesian axis) and pressure

          total   stress  (Ry/bohr**3)                   (kbar)     P=      532.93
   0.00310862   0.00000000  -0.00000000          457.29        0.00       -0.00
  -0.00000000   0.00310862  -0.00000000           -0.00      457.29       -0.00
   0.00000000   0.00000000   0.00465106            0.00        0.00      684.19

     Energy error            =      2.2E-02 Ry
     Gradient error          =      2.2E-02 Ry/Bohr
     Cell gradient error     =      1.8E+02 kbar

     number of scf cycles    =   2
     number of bfgs steps    =   1

     enthalpy           old  =     -46.7581623057 Ry
     enthalpy           new  =     -46.7798430619 Ry

     CASE: enthalpy          _new < enthalpy          _old

     new trust radius        =       0.0997539047 bohr
ibrav =      7
 celldm(1) =     10.84742191
 celldm(3) =      0.51776749
Input lattice vectors:
     0.47044639    -0.47044639     0.24358184
     0.47044639     0.47044639     0.24358184
    -0.47044639    -0.47044639     0.24358184
New lattice vectors in INITIAL alat:
     0.47044639    -0.47044639     0.24358184
     0.47044639     0.47044639     0.24358184
    -0.47044639    -0.47044639     0.24358184
New lattice vectors in NEW alat (for information only):
     0.50000000    -0.50000000     0.25888374
     0.50000000     0.50000000     0.25888374
    -0.50000000    -0.50000000     0.25888374
Discrepancy in bohr =     0.000000    0.000000    0.000000
     new conv_thr            =       0.0000000022 Ry

     new unit-cell volume =    330.43373 a.u.^3 (    48.96523 Ang^3 )
     density =      4.04520 g/cm^3

CELL_PARAMETERS (alat= 11.52886094)
   0.470446385  -0.470446385   0.243581844
   0.470446385   0.470446385   0.243581844
  -0.470446385  -0.470446385   0.243581844

ATOMIC_POSITIONS (crystal)
Si           -0.1971169976        0.2866487963       -0.0895317988
Si            0.1971169976        0.7133512037       -0.9104682012
Si            0.6238194049        0.0895317988       -0.7133512037
Si           -0.6238194049        0.9104682012       -0.2866487963
Li            0.0000000000        0.5000000000        0.5000000000



     Writing config-only to output data dir ./output/SiLi.save/
     NEW-OLD atomic charge density approx. for the potential
     extrapolated charge   18.50941, renormalised to   19.00000

     total cpu time spent up to now is       28.1 secs

     Self-consistent Calculation

     iteration #  1     ecut=    80.00 Ry     beta= 0.70
     Davidson diagonalization with overlap
     c_bands:  1 eigenvalues not converged
     c_bands:  1 eigenvalues not converged
     c_bands:  1 eigenvalues not converged
     c_bands:  1 eigenvalues not converged
     c_bands:  2 eigenvalues not converged
     ethr =  1.00E-06,  avg # of iterations = 11.3

     total cpu time spent up to now is       30.7 secs

     total energy              =     -47.92192739 Ry
     estimated scf accuracy    <       0.00068818 Ry

     iteration #  2     ecut=    80.00 Ry     beta= 0.70
     Davidson diagonalization with overlap
     c_bands:  1 eigenvalues not converged
     ethr =  3.62E-06,  avg # of iterations =  2.5

     total cpu time spent up to now is       31.8 secs

     total energy              =     -47.92236735 Ry
     estimated scf accuracy    <       0.00021180 Ry

     iteration #  3     ecut=    80.00 Ry     beta= 0.70
     Davidson diagonalization with overlap
     ethr =  1.11E-06,  avg # of iterations =  2.2

     total cpu time spent up to now is       32.8 secs

     total energy              =     -47.92240060 Ry
     estimated scf accuracy    <       0.00003028 Ry

     iteration #  4     ecut=    80.00 Ry     beta= 0.70
     Davidson diagonalization with overlap
     ethr =  1.59E-07,  avg # of iterations =  2.0

     total cpu time spent up to now is       33.8 secs

     total energy              =     -47.92240620 Ry
     estimated scf accuracy    <       0.00000353 Ry

     iteration #  5     ecut=    80.00 Ry     beta= 0.70
     Davidson diagonalization with overlap
     ethr =  1.86E-08,  avg # of iterations =  2.0

     total cpu time spent up to now is       34.8 secs

     total energy              =     -47.92240671 Ry
     estimated scf accuracy    <       0.00000004 Ry

     iteration #  6     ecut=    80.00 Ry     beta= 0.70
     Davidson diagonalization with overlap
     ethr =  2.04E-10,  avg # of iterations =  4.1

     total cpu time spent up to now is       36.0 secs

     total energy              =     -47.92240674 Ry
     estimated scf accuracy    <       0.00000003 Ry

     iteration #  7     ecut=    80.00 Ry     beta= 0.70
     Davidson diagonalization with overlap
     ethr =  1.46E-10,  avg # of iterations =  2.0

     total cpu time spent up to now is       36.9 secs

     End of self-consistent calculation

          k = 0.0000 0.0000 0.0000 (  4427 PWs)   bands (ev):

   -31.7875  -2.2470   5.3185   6.0526   6.0526   7.3935  14.1649  14.1649
    14.9848  15.1398  15.1597  15.6084  15.6084  17.4710

          k =-0.1329-0.0000 0.2566 (  4442 PWs)   bands (ev):

   -31.7851  -1.9461   4.8942   5.8537   7.0546   8.0465  12.2732  12.6752
    13.3101  14.0563  14.6804  14.9091  16.4792  18.1911

          k =-0.2657-0.0000 0.5132 (  4427 PWs)   bands (ev):

   -31.7794  -1.0456   4.8070   5.7358   8.2742   9.1343   9.5478  10.5319
    10.9933  12.5450  14.2690  15.6430  17.5527  20.2108

          k =-0.3986-0.0000 0.7698 (  4444 PWs)   bands (ev):

   -31.7738   0.4424   5.0627   5.3112   6.3223   8.1893   9.1675  10.6551
    11.4583  12.1520  14.4480  17.0241  17.8994  18.6772

          k = 0.5314 0.0000-1.0263 (  4472 PWs)   bands (ev):

   -31.7714   2.1877   2.9073   6.2547   6.3012   6.8126   8.4088  11.0801
    11.6127  14.6147  15.2112  15.5502  16.6254  18.7178

          k =-0.1329 0.2657 0.7698 (  4446 PWs)   bands (ev):

   -31.7738   0.2028   5.2773   6.0011   6.8026   8.2880   9.0908   9.3855
    10.8336  12.3087  14.1388  16.0680  19.1393  19.4973

          k =-0.2657 0.2657 1.0263 (  4447 PWs)   bands (ev):

   -31.7714   1.9816   3.6224   4.6784   6.4103   7.9163   9.0380  10.5343
    11.4022  13.8282  15.0582  16.0710  16.3171  18.8464

          k =-0.3986 0.2657 1.2829 (  4447 PWs)   bands (ev):

   -31.7736   1.5014   2.9973   4.6741   6.5945   7.8890   9.1411  11.8206
    13.4374  14.0988  14.4009  15.2661  17.5804  18.2999

          k = 0.5314 0.2657-0.5132 (  4436 PWs)   bands (ev):

   -31.7792  -0.1606   2.3396   6.1607   7.4035   8.6467   9.9991  10.9975
    12.7129  14.0573  15.0643  17.0884  17.9908  20.1126

          k = 0.3986 0.2657-0.2566 (  4433 PWs)   bands (ev):

   -31.7848  -1.2665   2.1784   6.2133   7.6997  10.2259  10.8613  11.1585
    12.4918  13.9354  16.3863  18.0104  19.3277  20.2459

          k = 0.2657 0.2657-0.0000 (  4419 PWs)   bands (ev):

   -31.7872  -1.7858   2.5939   6.5265   6.7541   9.9276  11.4541  12.0756
    13.9096  14.7970  16.8794  17.8339  18.6626  18.9477

          k = 0.1329 0.2657 0.2566 (  4445 PWs)   bands (ev):

   -31.7850  -1.7117   3.5607   5.7738   7.6687   9.3780  11.3980  11.7239
    12.9720  13.8634  14.8538  16.5694  17.7372  19.5429

          k =-0.1329-0.5314-0.7698 (  4451 PWs)   bands (ev):

   -31.7737   0.9067   4.0172   4.8588   6.4453   7.8452   9.6922  10.8618
    12.3168  13.2065  15.5370  15.5742  17.9318  17.9846

          k =-0.3986-0.5314-0.2566 (  4440 PWs)   bands (ev):

   -31.7847  -0.7411   1.1719   6.5642   8.1857   8.9257  10.6985  11.0774
    12.9522  15.4932  17.7335  18.1502  19.2308  19.3320

          k = 0.5314-0.5314-2.0527 (  4412 PWs)   bands (ev):

   -31.7869  -0.9123   0.7553   7.0738   7.7449   8.6506  10.2651  13.4277
    14.3525  15.7012  16.0489  17.2611  19.5595  21.1013

          k = 0.1329-0.0000 0.7698 (  4436 PWs)   bands (ev):

   -31.7739  -0.0356   6.4793   6.7622   7.1937   7.7481   8.3941   8.9911
     9.1917  12.0769  15.4078  16.5978  17.9241  19.5125

          k =-0.0000-0.0000 1.0263 (  4444 PWs)   bands (ev):

   -31.7714   1.5278   4.9906   5.4031   5.4031   7.3490   9.2452  10.0465
    10.0465  12.5178  18.0948  18.0948  18.7011  19.3905

          k =-0.1329-0.0000 1.2829 (  4455 PWs)   bands (ev):

   -31.7735   2.7069   3.5040   3.7598   4.2889   6.8856  10.7463  11.8844
    12.8682  14.3348  17.9539  18.0009  18.8419  19.2916

          k = 0.7971-0.0000-0.5132 (  4440 PWs)   bands (ev):

   -31.7789   0.8014   2.7197   3.5258   5.6071   7.5268  12.5117  13.4231
    15.0996  15.9599  16.5354  17.3998  17.7245  17.9599

          k = 0.6643-0.0000-0.2566 (  4424 PWs)   bands (ev):

   -31.7845  -0.5506   2.3047   3.4109   6.5113  10.1593  12.8266  13.2204
    14.8084  15.8148  16.2517  16.9297  18.7109  20.1125

          k = 0.5314 0.0000 0.0000 (  4438 PWs)   bands (ev):

   -31.7869  -1.3109   2.5202   3.7434   7.4662  11.0136  11.8190  12.8329
    14.8975  15.6162  16.5631  17.2160  17.2239  19.9444

          k = 0.3986-0.0000 0.2566 (  4436 PWs)   bands (ev):

   -31.7849  -1.4744   3.3612   4.5263   8.5187   9.9054  10.7767  11.3473
    13.8054  14.7572  15.2401  15.9626  18.1810  19.8011

          k = 0.1329-0.7971-0.7698 (  4458 PWs)   bands (ev):

   -31.7735   2.0061   3.2678   4.1711   5.3240   7.4247   9.6345  11.7547
    13.6059  15.2209  15.8012  16.4702  17.4962  18.3821

          k =-0.1329-0.7971-0.2566 (  4435 PWs)   bands (ev):

   -31.7843   0.0374   1.6047   3.3690   5.7253   9.9557  13.5140  14.5010
    15.6463  16.1346  17.2907  17.8398  18.0198  18.9357

          k = 0.7971-0.7971-2.0527 (  4436 PWs)   bands (ev):

   -31.7867  -0.3716   1.0472   3.9188   6.0125  12.2459  12.3590  13.4751
    15.3324  16.3837  16.7761  17.3012  20.3086  20.3615

          k = 0.6643-0.7971-1.7961 (  4430 PWs)   bands (ev):

   -31.7845  -0.4783   1.3308   4.9025   6.8305  10.3339  11.3869  12.3991
    13.9008  15.6147  17.5666  18.3361  18.8650  19.5314

          k = 0.3986-0.7971-1.2829 (  4440 PWs)   bands (ev):

   -31.7737   0.6636   3.9032   5.4771   6.7010   8.6297   9.6207  10.3629
    11.8219  12.9367  13.4919  15.9861  16.9097  19.6309

          k = 0.1329-0.5314-0.2566 (  4424 PWs)   bands (ev):

   -31.7847  -1.0217   2.3112   4.5372   7.5939  10.5251  11.0466  12.1278
    13.5371  14.7362  16.0953  17.7742  18.8572  19.9471

          k = 0.6643-0.5314-1.2829 (  4441 PWs)   bands (ev):

   -31.7737   1.2444   2.8467   5.2018   6.7516   8.4944  10.4641  10.8822
    12.4061  12.6283  13.7666  15.5826  16.8621  18.5846

          k = 0.5314-0.5314-1.0263 (  4428 PWs)   bands (ev):

   -31.7714   3.0975   3.0975   3.4349   5.4152  10.8105  10.8105  11.6000
    11.9398  12.0880  12.7451  12.7451  16.8070  20.3740

          k =-0.6643 0.0000-0.7698 (  4452 PWs)   bands (ev):

   -31.7736   1.3800   4.0284   4.2825   5.4618   8.0674   9.3224  10.8403
    14.0120  14.7335  15.6641  15.9227  16.9202  18.1323

          k =-0.9300-0.0000-0.2566 (  4426 PWs)   bands (ev):

   -31.7842   0.7445   1.7712   2.2476   5.0130   9.7530  15.7936  16.1289
    16.3879  17.1998  17.6024  17.7191  18.2002  18.5353

          k = 0.0000 0.0000-2.0527 (  4424 PWs)   bands (ev):

   -31.7864   1.0609   1.4534   1.4534   4.7299  11.8854  14.8711  17.2482
    17.2482  17.5624  18.0642  18.3119  18.3119  19.5670

          k = 0.2657-0.1329-0.7698 (  4446 PWs)   bands (ev):

   -31.7738   0.2028   5.2914   5.8973   7.2848   7.5503   9.3446   9.6696
    10.7658  12.0171  14.4398  15.8876  19.1484  19.7805

          k = 0.2657-0.3986-1.2829 (  4447 PWs)   bands (ev):

   -31.7736   1.5015   2.9974   4.6593   6.8011   7.5014   9.3700  12.2398
    12.9004  13.7290  14.2131  16.5094  17.0774  18.2206

          k = 0.2657 0.5314 0.5132 (  4436 PWs)   bands (ev):

   -31.7792  -0.1607   2.3408   6.1346   7.4598   8.6468  10.0112  10.7811
    13.1974  13.8713  14.9344  16.7001  18.9609  19.6030

          k = 0.2657 0.3986 0.2566 (  4433 PWs)   bands (ev):

   -31.7848  -1.2666   2.1804   6.1225   8.1162   9.2968  11.2323  11.5990
    12.4114  13.8712  16.3005  18.1354  18.9319  19.6881

          k = 0.2657 0.1329-0.2566 (  4445 PWs)   bands (ev):

   -31.7850  -1.7117   3.5566   5.8201   7.5093   9.6456  11.2703  11.7508
    12.6808  14.0447  15.0295  16.3372  18.0362  19.3180

          k =-0.5314-0.1329 0.7698 (  4451 PWs)   bands (ev):

   -31.7737   0.9067   4.0110   4.9086   6.2373   8.4408   9.1694  10.6096
    12.6524  13.7598  14.6033  16.2395  16.8361  18.5815

          k =-0.5314-0.3986 0.2566 (  4440 PWs)   bands (ev):

   -31.7847  -0.7410   1.1713   6.6548   7.7732   9.5633  10.3622  11.0702
    12.9531  15.4399  17.8320  18.2290  19.2318  19.5879

          k =-0.7971 0.1329 0.7698 (  4458 PWs)   bands (ev):

   -31.7735   2.0061   3.2700   4.1573   5.3539   7.3791   9.6603  11.8901
    13.3229  15.4185  15.8403  16.1960  17.8999  18.5019

          k =-0.7971-0.1329 0.2566 (  4435 PWs)   bands (ev):

   -31.7843   0.0377   1.6025   3.3748   5.7168   9.9606  13.7633  14.3437
    15.2114  16.0982  17.2880  18.2593  18.6999  19.1412

          k =-0.7971 0.6643 1.7961 (  4430 PWs)   bands (ev):

   -31.7845  -0.4786   1.3326   4.8801   6.8911  10.2393  11.2273  12.6560
    13.9642  15.7486  17.5457  17.8495  18.6529  19.2420

          k =-0.7971 0.3986 1.2829 (  4440 PWs)   bands (ev):

   -31.7737   0.6636   3.9036   5.4358   6.9539   7.9889  10.2730  10.7010
    11.4871  12.1351  14.1678  15.6772  17.4312  19.1288

          k =-0.5314 0.1329 0.2566 (  4424 PWs)   bands (ev):

   -31.7847  -1.0218   2.3163   4.5102   7.7332  10.1214  10.9875  12.5666
    13.7940  14.6021  15.9089  17.5776  18.7471  19.5980

          k =-0.5314 0.6643 1.2829 (  4441 PWs)   bands (ev):

   -31.7737   1.2443   2.8468   5.2138   6.6734   8.8195   9.8777  11.0791
    12.4134  12.7602  14.2350  14.8775  17.0267  18.6161

     the Fermi energy is    14.4187 ev

!    total energy              =     -47.92240675 Ry
     estimated scf accuracy    <          1.6E-10 Ry
     smearing contrib. (-TS)   =       0.00098095 Ry
     internal energy E=F+TS    =     -47.92338770 Ry

     The total energy is F=E-TS. E is the sum of the following terms:
     one-electron contribution =      17.98610691 Ry
     hartree contribution      =       2.94820482 Ry
     xc contribution           =     -16.99257587 Ry
     ewald contribution        =     -51.86512356 Ry

     convergence has been achieved in   7 iterations

     Forces acting on atoms (cartesian axes, Ry/au):

     atom    1 type  1   force =     0.01903648    0.01021277   -0.00000000
     atom    2 type  1   force =    -0.01903648   -0.01021277   -0.00000000
     atom    3 type  1   force =    -0.01021277    0.01903648    0.00000000
     atom    4 type  1   force =     0.01021277   -0.01903648    0.00000000
     atom    5 type  2   force =     0.00000000   -0.00000000   -0.00000000
     The non-local contrib.  to forces
     atom    1 type  1   force =     0.00867252    0.03488034    0.00000000
     atom    2 type  1   force =    -0.00867252   -0.03488034    0.00000000
     atom    3 type  1   force =    -0.03488034    0.00867252    0.00000000
     atom    4 type  1   force =     0.03488034   -0.00867252   -0.00000000
     atom    5 type  2   force =    -0.00000000    0.00000000    0.00000000
     The ionic contribution  to forces
     atom    1 type  1   force =     0.02182044    0.12391802   -0.00000000
     atom    2 type  1   force =    -0.02182044   -0.12391802   -0.00000000
     atom    3 type  1   force =    -0.12391802    0.02182044   -0.00000000
     atom    4 type  1   force =     0.12391802   -0.02182044   -0.00000000
     atom    5 type  2   force =    -0.00000000   -0.00000000   -0.00000000
     The local contribution  to forces
     atom    1 type  1   force =    -0.01123280   -0.14725616   -0.00000000
     atom    2 type  1   force =     0.01123280    0.14725616    0.00000000
     atom    3 type  1   force =     0.14725616   -0.01123280   -0.00000000
     atom    4 type  1   force =    -0.14725616    0.01123280    0.00000000
     atom    5 type  2   force =     0.00000000    0.00000000    0.00000000
     The core correction contribution to forces
     atom    1 type  1   force =    -0.00022346   -0.00133677    0.00000000
     atom    2 type  1   force =     0.00022346    0.00133677    0.00000000
     atom    3 type  1   force =     0.00133677   -0.00022346    0.00000000
     atom    4 type  1   force =    -0.00133677    0.00022346    0.00000000
     atom    5 type  2   force =     0.00000000    0.00000000    0.00000000
     The Hubbard contrib.    to forces
     atom    1 type  1   force =     0.00000000    0.00000000    0.00000000
     atom    2 type  1   force =     0.00000000    0.00000000    0.00000000
     atom    3 type  1   force =     0.00000000    0.00000000    0.00000000
     atom    4 type  1   force =     0.00000000    0.00000000    0.00000000
     atom    5 type  2   force =     0.00000000    0.00000000    0.00000000
     The SCF correction term to forces
     atom    1 type  1   force =    -0.00000023    0.00000734   -0.00000000
     atom    2 type  1   force =     0.00000023   -0.00000734    0.00000000
     atom    3 type  1   force =    -0.00000734   -0.00000023    0.00000000
     atom    4 type  1   force =     0.00000734    0.00000023   -0.00000000
     atom    5 type  2   force =     0.00000000   -0.00000000    0.00000000

     Total force =     0.043206     Total SCF correction =     0.000015


     Computing stress (Cartesian axis) and pressure

          total   stress  (Ry/bohr**3)                   (kbar)     P=      599.95
   0.00351929  -0.00000000   0.00000000          517.71       -0.00        0.00
  -0.00000000   0.00351929  -0.00000000           -0.00      517.71       -0.00
   0.00000000  -0.00000000   0.00519659            0.00       -0.00      764.44

     Energy error            =      1.9E-02 Ry
     Gradient error          =      1.9E-02 Ry/Bohr
     Cell gradient error     =      2.6E+02 kbar

     number of scf cycles    =   3
     number of bfgs steps    =   2

     enthalpy           old  =     -46.7798430619 Ry
     enthalpy           new  =     -46.7992853082 Ry

     CASE: enthalpy          _new < enthalpy          _old


     WARNING: bfgs curvature condition failed, Theta= 0.986
     new trust radius        =       0.1442965277 bohr
ibrav =      7
 celldm(1) =     10.53359778
 celldm(3) =      0.55435573
Input lattice vectors:
     0.45683602    -0.45683602     0.25324966
     0.45683602     0.45683602     0.25324966
    -0.45683602    -0.45683602     0.25324966
New lattice vectors in INITIAL alat:
     0.45683602    -0.45683602     0.25324966
     0.45683602     0.45683602     0.25324966
    -0.45683602    -0.45683602     0.25324966
New lattice vectors in NEW alat (for information only):
     0.50000000    -0.50000000     0.27717787
     0.50000000     0.50000000     0.27717787
    -0.50000000    -0.50000000     0.27717787
Discrepancy in bohr =     0.000000    0.000000    0.000000
     new conv_thr            =       0.0000000019 Ry

     new unit-cell volume =    323.95802 a.u.^3 (    48.00563 Ang^3 )
     density =      4.12606 g/cm^3

CELL_PARAMETERS (alat= 11.52886094)
   0.456836015  -0.456836015   0.253249665
   0.456836015   0.456836015   0.253249665
  -0.456836015  -0.456836015   0.253249665

ATOMIC_POSITIONS (crystal)
Si           -0.1937488366        0.2868811351       -0.0931322985
Si            0.1937488366        0.7131188649       -0.9068677015
Si            0.6199865664        0.0931322985       -0.7131188649
Si           -0.6199865664        0.9068677015       -0.2868811351
Li            0.0000000000        0.5000000000        0.5000000000



     Writing config-only to output data dir ./output/SiLi.save/
     NEW-OLD atomic charge density approx. for the potential
     extrapolated charge   18.62034, renormalised to   19.00000

     total cpu time spent up to now is       38.9 secs

     Self-consistent Calculation

     iteration #  1     ecut=    80.00 Ry     beta= 0.70
     Davidson diagonalization with overlap
     c_bands:  1 eigenvalues not converged
     c_bands:  1 eigenvalues not converged
     c_bands:  2 eigenvalues not converged
     c_bands:  1 eigenvalues not converged
     ethr =  1.00E-06,  avg # of iterations = 11.4

     total cpu time spent up to now is       41.5 secs

     total energy              =     -47.91881147 Ry
     estimated scf accuracy    <       0.00060668 Ry

     iteration #  2     ecut=    80.00 Ry     beta= 0.70
     Davidson diagonalization with overlap
     ethr =  3.19E-06,  avg # of iterations =  2.0

     total cpu time spent up to now is       42.6 secs

     total energy              =     -47.91910033 Ry
     estimated scf accuracy    <       0.00022843 Ry

     iteration #  3     ecut=    80.00 Ry     beta= 0.70
     Davidson diagonalization with overlap
     ethr =  1.20E-06,  avg # of iterations =  2.0

     total cpu time spent up to now is       43.6 secs

     total energy              =     -47.91914415 Ry
     estimated scf accuracy    <       0.00002171 Ry

     iteration #  4     ecut=    80.00 Ry     beta= 0.70
     Davidson diagonalization with overlap
     ethr =  1.14E-07,  avg # of iterations =  2.0

     total cpu time spent up to now is       44.5 secs

     total energy              =     -47.91914760 Ry
     estimated scf accuracy    <       0.00000092 Ry

     iteration #  5     ecut=    80.00 Ry     beta= 0.70
     Davidson diagonalization with overlap
     ethr =  4.84E-09,  avg # of iterations =  2.2

     total cpu time spent up to now is       45.4 secs

     total energy              =     -47.91914778 Ry
     estimated scf accuracy    <       0.00000002 Ry

     iteration #  6     ecut=    80.00 Ry     beta= 0.70
     Davidson diagonalization with overlap
     ethr =  1.11E-10,  avg # of iterations =  3.8

     total cpu time spent up to now is       46.5 secs

     total energy              =     -47.91914778 Ry
     estimated scf accuracy    <          2.6E-09 Ry

     iteration #  7     ecut=    80.00 Ry     beta= 0.70
     Davidson diagonalization with overlap
     ethr =  1.38E-11,  avg # of iterations =  2.1

     total cpu time spent up to now is       47.5 secs

     End of self-consistent calculation

          k = 0.0000 0.0000 0.0000 (  4427 PWs)   bands (ev):

   -31.4790  -2.1114   5.8497   6.6769   6.6769   7.8459  14.4727  14.7953
    14.7953  15.1337  15.1337  15.5845  16.0925  16.7217

          k =-0.1368-0.0000 0.2468 (  4442 PWs)   bands (ev):

   -31.4773  -1.8269   5.3889   6.3670   7.6675   8.5529  11.7835  12.6613
    13.0242  14.0864  15.1798  15.7930  17.2384  18.4775

          k =-0.2736-0.0000 0.4936 (  4427 PWs)   bands (ev):

   -31.4731  -0.9756   5.2016   6.0662   8.1342   9.6063   9.7812  10.4472
    11.0565  12.8004  14.7679  16.6888  18.2664  21.2719

          k =-0.4104-0.0000 0.7404 (  4444 PWs)   bands (ev):

   -31.4690   0.4289   4.8761   5.5659   6.5026   8.1176   9.3093  11.1104
    11.6967  12.7724  15.0718  17.9489  18.6668  19.2652

          k = 0.5472 0.0000-0.9872 (  4472 PWs)   bands (ev):

   -31.4672   2.0267   2.8467   6.3554   6.3648   6.9441   8.6881  11.3856
    11.9044  15.2472  15.7776  16.1667  17.3774  19.6237

          k =-0.1368 0.2736 0.7404 (  4446 PWs)   bands (ev):

   -31.4690   0.1745   5.3766   5.9288   6.8619   8.4100   9.3192   9.6953
    11.1331  12.8184  14.8707  16.8595  19.7543  20.4473

          k =-0.2736 0.2736 0.9872 (  4447 PWs)   bands (ev):

   -31.4672   1.8211   3.6100   4.6462   6.5309   8.1391   9.2310  10.9012
    11.7223  14.2647  15.6738  16.8114  17.0186  19.6058

          k =-0.4104 0.2736 1.2340 (  4447 PWs)   bands (ev):

   -31.4688   1.5782   3.0009   4.4949   6.8205   8.0731   9.3416  12.0658
    13.9737  14.4710  15.0123  15.6256  18.4344  18.9594

          k = 0.5472 0.2736-0.4936 (  4436 PWs)   bands (ev):

   -31.4728  -0.0202   2.5453   6.4930   7.1825   8.9614   9.9309  11.6208
    13.3434  14.1563  15.6033  17.4504  18.1622  20.9015

          k = 0.4104 0.2736-0.2468 (  4433 PWs)   bands (ev):

   -31.4768  -1.0956   2.4905   6.7417   8.2725  10.3597  11.0815  11.4309
    12.5330  14.3375  16.0514  17.8027  18.5317  20.4875

          k = 0.2736 0.2736-0.0000 (  4419 PWs)   bands (ev):

   -31.4786  -1.6163   2.9717   7.1450   7.3115  10.6418  12.2866  12.7912
    13.0666  13.9127  16.1733  17.2444  18.4614  18.6761

          k = 0.1368 0.2736 0.2468 (  4445 PWs)   bands (ev):

   -31.4771  -1.5758   3.9676   6.2761   8.2450  10.0151  11.1380  11.7268
    13.3682  14.1287  14.5336  16.7428  18.0283  19.4798

          k =-0.1368-0.5472-0.7404 (  4451 PWs)   bands (ev):

   -31.4689   0.9249   4.0236   4.7886   6.7280   7.8199   9.9597  11.0828
    12.7964  13.6212  16.1300  16.4142  18.3916  18.6828

          k =-0.4104-0.5472-0.2468 (  4440 PWs)   bands (ev):

   -31.4766  -0.5156   1.3993   7.1421   8.6196   9.6566  10.4030  11.1429
    12.8179  16.3401  17.7028  17.8497  18.9088  19.5948

          k = 0.5472-0.5472-1.9743 (  4412 PWs)   bands (ev):

   -31.4783  -0.6522   0.9827   7.6710   8.4522   9.3607  10.8110  12.5493
    13.4349  15.3084  16.6580  18.0090  19.5680  20.8368

          k = 0.1368-0.0000 0.7404 (  4436 PWs)   bands (ev):

   -31.4691  -0.0794   6.3932   6.9874   7.2665   7.7642   8.4839   9.3271
     9.6377  12.4071  16.2613  17.5680  18.8288  20.3706

          k = 0.0000-0.0000 0.9872 (  4444 PWs)   bands (ev):

   -31.4672   1.3417   5.1030   5.4411   5.4411   7.4216   9.4830  10.3859
    10.3859  12.8494  18.9412  18.9412  19.5610  20.0771

          k =-0.1368-0.0000 1.2340 (  4455 PWs)   bands (ev):

   -31.4686   2.8194   3.2554   3.9349   4.4972   7.0350  10.7986  12.0465
    13.0624  14.5691  18.6901  18.9301  19.8433  20.2677

          k = 0.8209-0.0000-0.4936 (  4440 PWs)   bands (ev):

   -31.4724   1.0057   3.0030   3.8088   5.4974   7.4784  12.3336  13.4265
    15.9193  16.5670  17.0229  17.5717  18.6860  18.8400

          k = 0.6841 0.0000-0.2468 (  4424 PWs)   bands (ev):

   -31.4764  -0.3309   2.6652   3.7911   6.8439   9.5619  13.6284  13.9089
    14.4942  15.8281  16.6532  17.4825  18.5941  19.9394

          k = 0.5472 0.0000 0.0000 (  4438 PWs)   bands (ev):

   -31.4783  -1.1084   2.9262   4.1587   7.9709  11.8411  11.8794  12.6346
    14.8969  15.8118  16.5367  16.5825  17.4925  19.3800

          k = 0.4104 0.0000 0.2468 (  4436 PWs)   bands (ev):

   -31.4769  -1.3219   3.7798   4.9334   9.0081  10.2897  10.9669  11.6478
    13.3613  14.5774  16.1830  16.4046  17.8100  19.1753

          k = 0.1368-0.8209-0.7404 (  4458 PWs)   bands (ev):

   -31.4687   2.1055   3.1879   4.1068   5.6008   7.6275   9.6525  11.9177
    13.8388  15.5016  16.6207  17.2265  18.1976  19.3091

          k =-0.1368-0.8209-0.2468 (  4435 PWs)   bands (ev):

   -31.4762   0.3101   1.8958   3.8125   5.9640   9.3243  14.1314  14.6323
    16.2856  16.5095  17.0133  17.6415  18.6378  19.4880

          k = 0.8209-0.8209-1.9743 (  4436 PWs)   bands (ev):

   -31.4779  -0.0786   1.3154   4.4431   6.3463  11.3702  13.1165  14.1225
    14.9830  15.6378  17.6953  18.3880  19.8261  19.9423

          k = 0.6841-0.8209-1.7275 (  4430 PWs)   bands (ev):

   -31.4765  -0.2370   1.5791   5.4247   7.1657   9.7640  12.2644  12.6096
    13.9374  16.2292  17.1813  18.2297  19.1701  19.6550

          k = 0.4104-0.8209-1.2340 (  4440 PWs)   bands (ev):

   -31.4689   0.6684   4.0010   5.2959   6.6750   8.9554  10.0719  10.5639
    12.0802  13.5250  14.0719  16.7234  17.3681  20.2236

          k = 0.1368-0.5472-0.2468 (  4424 PWs)   bands (ev):

   -31.4767  -0.8348   2.6458   4.9795   8.0197  10.0008  11.8087  12.8223
    13.3378  15.1749  15.8425  18.0970  18.4705  19.9678

          k = 0.6841-0.5472-1.2340 (  4441 PWs)   bands (ev):

   -31.4689   1.3083   2.8721   4.9963   6.6565   8.9277  10.9139  11.4889
    12.7852  12.9017  14.0149  15.9553  17.6285  19.3823

          k = 0.5472-0.5472-0.9872 (  4428 PWs)   bands (ev):

   -31.4672   3.0523   3.0523   3.2744   5.4807  11.1202  11.1202  12.1682
    12.3390  12.4929  13.1577  13.1577  17.4741  21.2924

          k =-0.6841-0.0000-0.7404 (  4452 PWs)   bands (ev):

   -31.4688   1.4256   3.7898   4.4863   5.6603   8.3090   9.3278  11.0010
    14.2696  15.5084  16.1829  16.4327  17.6666  19.1780

          k =-0.9577 0.0000-0.2468 (  4426 PWs)   bands (ev):

   -31.4760   1.0668   2.1017   2.6328   5.1699   9.0925  15.7149  16.3058
    16.5934  17.2483  18.0159  18.0593  18.8552  19.2480

          k = 0.0000 0.0000-1.9743 (  4424 PWs)   bands (ev):

   -31.4775   1.4797   1.7997   1.7997   4.9218  10.8612  14.1066  18.3003
    18.3916  18.5980  18.5980  19.3208  19.3850  19.3850

          k = 0.2736-0.1368-0.7404 (  4446 PWs)   bands (ev):

   -31.4690   0.1745   5.4091   5.8110   7.2301   7.8436   9.4116  10.0530
    11.1433  12.4480  15.2562  16.5937  20.0837  20.4588

          k = 0.2736-0.4104-1.2340 (  4447 PWs)   bands (ev):

   -31.4688   1.5783   3.0020   4.4794   7.1418   7.5309   9.6234  12.4328
    13.3994  14.1192  14.7987  16.8929  17.8504  19.0174

          k = 0.2736 0.5472 0.4936 (  4436 PWs)   bands (ev):

   -31.4728  -0.0204   2.5462   6.4413   7.3039   8.7370  10.2462  11.3300
    13.7296  13.9981  15.4886  17.0010  19.3025  20.3752

          k = 0.2736 0.4104 0.2468 (  4433 PWs)   bands (ev):

   -31.4768  -1.0956   2.4925   6.6517   8.6663   9.9107  10.6758  11.7049
    13.1408  14.1090  15.9829  17.9343  18.1743  20.4852

          k = 0.2736 0.1368-0.2468 (  4445 PWs)   bands (ev):

   -31.4771  -1.5757   3.9636   6.3204   8.0960  10.2060  11.1173  12.0807
    12.5446  14.4139  14.7326  16.5061  18.5481  19.2392

          k =-0.5472-0.1368 0.7404 (  4451 PWs)   bands (ev):

   -31.4689   0.9248   4.0122   4.8461   6.4445   8.4886   9.4119  10.8759
    13.0020  14.4170  15.2124  16.6722  17.6570  19.3004

          k =-0.5472-0.4104 0.2468 (  4440 PWs)   bands (ev):

   -31.4766  -0.5154   1.3986   7.2442   8.2560  10.2307  10.3852  10.8879
    12.7382  16.2208  17.6735  18.1797  19.0860  19.4782

          k =-0.8209 0.1368 0.7404 (  4458 PWs)   bands (ev):

   -31.4687   2.1054   3.1917   4.0911   5.6400   7.5594   9.6974  12.0530
    13.5251  15.8901  16.4824  16.8472  18.7952  19.3349

          k =-0.8209-0.1368 0.2468 (  4435 PWs)   bands (ev):

   -31.4762   0.3104   1.8935   3.8190   5.9553   9.3258  14.2938  14.7282
    15.7353  16.3296  16.8924  18.2394  18.9117  19.9939

          k =-0.8209 0.6841 1.7275 (  4430 PWs)   bands (ev):

   -31.4765  -0.2374   1.5809   5.3994   7.2247   9.7504  11.9165  12.7693
    14.2491  16.5160  17.2813  17.4874  18.8262  19.6930

          k =-0.8209 0.4104 1.2340 (  4440 PWs)   bands (ev):

   -31.4689   0.6684   4.0032   5.2561   6.8696   8.3644  10.7655  10.8668
    11.9570  12.4079  14.8629  16.3687  17.9469  19.6826

          k =-0.5472 0.1368 0.2468 (  4424 PWs)   bands (ev):

   -31.4767  -0.8350   2.6508   4.9525   8.1401   9.9691  11.3333  12.8012
    14.2335  15.1299  15.6699  17.4453  18.6284  19.7165

          k =-0.5472 0.6841 1.2340 (  4441 PWs)   bands (ev):

   -31.4689   1.3082   2.8721   5.0074   6.5959   9.2667  10.2873  11.6157
    12.8731  13.0406  14.5470  15.1812  17.8068  19.4166

     the Fermi energy is    14.7207 ev

!    total energy              =     -47.91914779 Ry
     estimated scf accuracy    <          4.9E-11 Ry
     smearing contrib. (-TS)   =       0.00041597 Ry
     internal energy E=F+TS    =     -47.91956376 Ry

     The total energy is F=E-TS. E is the sum of the following terms:
     one-electron contribution =      18.41070763 Ry
     hartree contribution      =       2.93713870 Ry
     xc contribution           =     -17.07277904 Ry
     ewald contribution        =     -52.19463105 Ry

     convergence has been achieved in   7 iterations

     Forces acting on atoms (cartesian axes, Ry/au):

     atom    1 type  1   force =     0.01522219    0.02017002   -0.00000000
     atom    2 type  1   force =    -0.01522219   -0.02017002    0.00000000
     atom    3 type  1   force =    -0.02017002    0.01522219    0.00000000
     atom    4 type  1   force =     0.02017002   -0.01522219   -0.00000000
     atom    5 type  2   force =    -0.00000000    0.00000000    0.00000000
     The non-local contrib.  to forces
     atom    1 type  1   force =    -0.00360045    0.04224060   -0.00000000
     atom    2 type  1   force =     0.00360045   -0.04224060    0.00000000
     atom    3 type  1   force =    -0.04224060   -0.00360045   -0.00000000
     atom    4 type  1   force =     0.04224060    0.00360045   -0.00000000
     atom    5 type  2   force =    -0.00000000    0.00000000    0.00000000
     The ionic contribution  to forces
     atom    1 type  1   force =     0.00333900    0.16652456   -0.00000000
     atom    2 type  1   force =    -0.00333900   -0.16652456   -0.00000000
     atom    3 type  1   force =    -0.16652456    0.00333900   -0.00000000
     atom    4 type  1   force =     0.16652456   -0.00333900    0.00000000
     atom    5 type  2   force =    -0.00000000    0.00000000   -0.00000000
     The local contribution  to forces
     atom    1 type  1   force =     0.01491702   -0.18635841    0.00000000
     atom    2 type  1   force =    -0.01491702    0.18635841   -0.00000000
     atom    3 type  1   force =     0.18635841    0.01491702   -0.00000000
     atom    4 type  1   force =    -0.18635841   -0.01491702    0.00000000
     atom    5 type  2   force =    -0.00000000    0.00000000    0.00000000
     The core correction contribution to forces
     atom    1 type  1   force =     0.00056558   -0.00223232    0.00000000
     atom    2 type  1   force =    -0.00056558    0.00223232   -0.00000000
     atom    3 type  1   force =     0.00223232    0.00056558   -0.00000000
     atom    4 type  1   force =    -0.00223232   -0.00056558   -0.00000000
     atom    5 type  2   force =     0.00000000    0.00000000    0.00000000
     The Hubbard contrib.    to forces
     atom    1 type  1   force =     0.00000000    0.00000000    0.00000000
     atom    2 type  1   force =     0.00000000    0.00000000    0.00000000
     atom    3 type  1   force =     0.00000000    0.00000000    0.00000000
     atom    4 type  1   force =     0.00000000    0.00000000    0.00000000
     atom    5 type  2   force =     0.00000000    0.00000000    0.00000000
     The SCF correction term to forces
     atom    1 type  1   force =     0.00000104   -0.00000441   -0.00000000
     atom    2 type  1   force =    -0.00000104    0.00000441    0.00000000
     atom    3 type  1   force =     0.00000441    0.00000104    0.00000000
     atom    4 type  1   force =    -0.00000441   -0.00000104   -0.00000000
     atom    5 type  2   force =     0.00000000   -0.00000000    0.00000000

     Total force =     0.050539     Total SCF correction =     0.000009


     Computing stress (Cartesian axis) and pressure

          total   stress  (Ry/bohr**3)                   (kbar)     P=      649.61
   0.00404528   0.00000000   0.00000000          595.08        0.00        0.00
  -0.00000000   0.00404528   0.00000000           -0.00      595.08        0.00
   0.00000000   0.00000000   0.00515734            0.00        0.00      758.67

     Energy error            =      1.9E-02 Ry
     Gradient error          =      2.0E-02 Ry/Bohr
     Cell gradient error     =      2.6E+02 kbar

     number of scf cycles    =   4
     number of bfgs steps    =   3

     enthalpy           old  =     -46.7992853082 Ry
     enthalpy           new  =     -46.8180368373 Ry

     CASE: enthalpy          _new < enthalpy          _old

     new trust radius        =       0.2084011685 bohr
ibrav =      7
 celldm(1) =     10.27301833
 celldm(3) =      0.60132456
Input lattice vectors:
     0.44553484    -0.44553484     0.26791104
     0.44553484     0.44553484     0.26791104
    -0.44553484    -0.44553484     0.26791104
New lattice vectors in INITIAL alat:
     0.44553484    -0.44553484     0.26791104
     0.44553484     0.44553484     0.26791104
    -0.44553484    -0.44553484     0.26791104
New lattice vectors in NEW alat (for information only):
     0.50000000    -0.50000000     0.30066228
     0.50000000     0.50000000     0.30066228
    -0.50000000    -0.50000000     0.30066228
Discrepancy in bohr =     0.000000    0.000000    0.000000
     new conv_thr            =       0.0000000020 Ry

     new unit-cell volume =    325.96662 a.u.^3 (    48.30327 Ang^3 )
     density =      4.10064 g/cm^3

CELL_PARAMETERS (alat= 11.52886094)
   0.445534836  -0.445534836   0.267911038
   0.445534836   0.445534836   0.267911038
  -0.445534836  -0.445534836   0.267911038

ATOMIC_POSITIONS (crystal)
Si           -0.1893670792        0.2880345045       -0.0986674253
Si            0.1893670792        0.7119654955       -0.9013325747
Si            0.6132980702        0.0986674253       -0.7119654955
Si           -0.6132980702        0.9013325747       -0.2880345045
Li            0.0000000000        0.5000000000        0.5000000000



     Writing config-only to output data dir ./output/SiLi.save/
     NEW-OLD atomic charge density approx. for the potential
     extrapolated charge   19.11703, renormalised to   19.00000

     total cpu time spent up to now is       49.4 secs

     Self-consistent Calculation

     iteration #  1     ecut=    80.00 Ry     beta= 0.70
     Davidson diagonalization with overlap
     c_bands:  1 eigenvalues not converged
     c_bands:  1 eigenvalues not converged
     c_bands:  1 eigenvalues not converged
     c_bands:  1 eigenvalues not converged
     c_bands:  1 eigenvalues not converged
     c_bands:  1 eigenvalues not converged
     c_bands:  1 eigenvalues not converged
     c_bands:  1 eigenvalues not converged
     c_bands:  1 eigenvalues not converged
     ethr =  1.00E-06,  avg # of iterations = 13.3

     total cpu time spent up to now is       52.2 secs

     total energy              =     -47.93969591 Ry
     estimated scf accuracy    <       0.00045945 Ry

     iteration #  2     ecut=    80.00 Ry     beta= 0.70
     Davidson diagonalization with overlap
     ethr =  2.42E-06,  avg # of iterations =  2.6

     total cpu time spent up to now is       53.2 secs

     total energy              =     -47.93976938 Ry
     estimated scf accuracy    <       0.00005797 Ry

     iteration #  3     ecut=    80.00 Ry     beta= 0.70
     Davidson diagonalization with overlap
     ethr =  3.05E-07,  avg # of iterations =  2.0

[...]
        k(   38) = (   0.2809448   0.1404724  -0.2229113), wk =   0.0312500
        k(   39) = (  -0.5618896  -0.1404724   0.6687338), wk =   0.0312500
        k(   40) = (  -0.5618896  -0.4214172   0.2229113), wk =   0.0312500
        k(   41) = (  -0.8428345   0.1404724   0.6687338), wk =   0.0312500
        k(   42) = (  -0.8428345  -0.1404724   0.2229113), wk =   0.0312500
        k(   43) = (  -0.8428345   0.7023620   1.5603789), wk =   0.0312500
        k(   44) = (  -0.8428345   0.4214172   1.1145563), wk =   0.0312500
        k(   45) = (  -0.5618896   0.1404724   0.2229113), wk =   0.0312500
        k(   46) = (  -0.5618896   0.7023620   1.1145563), wk =   0.0312500

     Dense  grid:    32987 G-vectors     FFT dimensions: (  45,  45,  45)

     Estimated max dynamical RAM per process >      20.50 MB

     Estimated total dynamical RAM >     164.00 MB

     Initial potential from superposition of free atoms

     starting charge      18.9930, renormalised to      19.0000
     Starting wfcs are   18 randomized atomic wfcs

     total cpu time spent up to now is      226.5 secs

     Self-consistent Calculation

     iteration #  1     ecut=    80.00 Ry     beta= 0.70
     Davidson diagonalization with overlap
     c_bands:  1 eigenvalues not converged
     c_bands:  1 eigenvalues not converged
     c_bands:  2 eigenvalues not converged
     c_bands:  1 eigenvalues not converged
     c_bands:  1 eigenvalues not converged
     c_bands:  1 eigenvalues not converged
     c_bands:  1 eigenvalues not converged
     c_bands:  1 eigenvalues not converged
     c_bands:  1 eigenvalues not converged
     c_bands:  1 eigenvalues not converged
     c_bands:  4 eigenvalues not converged
     c_bands:  1 eigenvalues not converged
     c_bands:  1 eigenvalues not converged
     c_bands:  1 eigenvalues not converged
     c_bands:  1 eigenvalues not converged
     c_bands:  1 eigenvalues not converged
     c_bands:  1 eigenvalues not converged
     c_bands:  1 eigenvalues not converged
     c_bands:  1 eigenvalues not converged
     c_bands:  2 eigenvalues not converged
     c_bands:  3 eigenvalues not converged
     c_bands:  2 eigenvalues not converged
     c_bands:  1 eigenvalues not converged
     c_bands:  1 eigenvalues not converged
     c_bands:  2 eigenvalues not converged
     c_bands:  1 eigenvalues not converged
     c_bands:  1 eigenvalues not converged
     ethr =  1.00E-06,  avg # of iterations = 19.1

     total cpu time spent up to now is      229.5 secs

     total energy              =     -47.99533771 Ry
     estimated scf accuracy    <       0.03725350 Ry

     iteration #  2     ecut=    80.00 Ry     beta= 0.70
     Davidson diagonalization with overlap
     ethr =  1.96E-04,  avg # of iterations =  2.2

     total cpu time spent up to now is      230.3 secs

     total energy              =     -47.99824370 Ry
     estimated scf accuracy    <       0.00677367 Ry

     iteration #  3     ecut=    80.00 Ry     beta= 0.70
     Davidson diagonalization with overlap
     ethr =  3.57E-05,  avg # of iterations =  2.3

     total cpu time spent up to now is      231.0 secs

     total energy              =     -47.99976437 Ry
     estimated scf accuracy    <       0.00080294 Ry

     iteration #  4     ecut=    80.00 Ry     beta= 0.70
     Davidson diagonalization with overlap
     ethr =  4.23E-06,  avg # of iterations =  2.4

     total cpu time spent up to now is      231.7 secs

     total energy              =     -47.99985889 Ry
     estimated scf accuracy    <       0.00001197 Ry

     iteration #  5     ecut=    80.00 Ry     beta= 0.70
     Davidson diagonalization with overlap
     ethr =  6.30E-08,  avg # of iterations =  4.1

     total cpu time spent up to now is      232.6 secs

     total energy              =     -47.99986810 Ry
     estimated scf accuracy    <       0.00000175 Ry

     iteration #  6     ecut=    80.00 Ry     beta= 0.70
     Davidson diagonalization with overlap
     ethr =  9.20E-09,  avg # of iterations =  2.0

     total cpu time spent up to now is      233.3 secs

     total energy              =     -47.99986859 Ry
     estimated scf accuracy    <       0.00000008 Ry

     iteration #  7     ecut=    80.00 Ry     beta= 0.70
     Davidson diagonalization with overlap
     ethr =  4.28E-10,  avg # of iterations =  2.6

     total cpu time spent up to now is      234.1 secs

     total energy              =     -47.99986862 Ry
     estimated scf accuracy    <          5.2E-10 Ry

     iteration #  8     ecut=    80.00 Ry     beta= 0.70
     Davidson diagonalization with overlap
     ethr =  2.73E-12,  avg # of iterations =  4.5

     total cpu time spent up to now is      235.0 secs

     End of self-consistent calculation

          k = 0.0000 0.0000 0.0000 (  4181 PWs)   bands (ev):

   -32.0881  -2.4728   6.0120   6.8473   6.8473   7.8408  11.9972  12.3093
    12.3093  14.4578  14.6683  14.6683  14.8678  15.2730

          k =-0.1405-0.0000 0.2229 (  4119 PWs)   bands (ev):

   -32.0875  -2.2246   5.4608   6.3872   7.8167   8.6005   9.7033  10.7456
    11.2002  13.3980  14.9054  15.7713  16.4081  16.9565

          k =-0.2809-0.0000 0.4458 (  4108 PWs)   bands (ev):

   -32.0860  -1.4819   5.0957   5.7406   6.7688   8.6197   9.4866   9.7095
    10.2897  12.2628  14.4770  17.2470  17.9119  19.0155

          k =-0.4214-0.0000 0.6687 (  4112 PWs)   bands (ev):

   -32.0845  -0.2571   3.7150   5.2063   6.0207   7.1009   8.4745  11.0315
    11.1679  12.6746  14.8375  18.1512  18.7660  18.9915

          k = 0.5619 0.0000-0.8916 (  4124 PWs)   bands (ev):

   -32.0839   1.1190   1.8987   5.6544   5.8094   6.3346   8.0522  10.9943
    11.5314  15.1752  15.3835  15.9971  17.2212  19.8749

          k =-0.1405 0.2809 0.6687 (  4105 PWs)   bands (ev):

   -32.0846  -0.5246   4.4289   5.1859   6.1701   7.6901   8.5527   9.4618
    10.7594  12.6128  14.8044  17.0428  19.3066  20.7315

          k =-0.2809 0.2809 0.8916 (  4110 PWs)   bands (ev):

   -32.0839   0.8795   2.7108   3.9065   5.9286   7.4976   8.8558  10.4567
    11.1979  13.9766  15.5793  16.6123  16.9650  19.3709

          k =-0.4214 0.2809 1.1146 (  4115 PWs)   bands (ev):

   -32.0843   0.9464   2.3086   3.4173   6.2938   7.4371   8.9784  11.3641
    13.5513  13.9932  14.9227  15.3261  18.0799  18.7723

          k = 0.5619 0.2809-0.4458 (  4110 PWs)   bands (ev):

   -32.0856  -0.4695   2.2357   5.3884   6.5328   8.3349   9.2244  11.5869
    12.9292  13.5924  15.1242  16.7327  16.9979  18.2437

          k = 0.4214 0.2809-0.2229 (  4110 PWs)   bands (ev):

   -32.0870  -1.4461   2.3448   6.7651   8.0364   8.7570   9.9435  11.4065
    12.2513  13.9532  14.1064  15.2020  16.2866  18.1296

          k = 0.2809 0.2809 0.0000 (  4103 PWs)   bands (ev):

   -32.0878  -1.9453   2.9128   7.3039   7.4438  10.4668  10.9453  11.4872
    12.2429  12.9495  13.3548  14.9614  16.1033  16.8372

          k = 0.1405 0.2809 0.2229 (  4109 PWs)   bands (ev):

   -32.0873  -1.9575   3.9232   6.2978   8.2495   9.0258  10.2847  10.4204
    12.3372  13.0483  14.2779  15.2660  15.5803  17.7533

          k =-0.1405-0.5619-0.6687 (  4110 PWs)   bands (ev):

   -32.0844   0.2629   3.0691   4.0766   6.3580   6.9137   9.3700  10.5318
    12.4389  13.3986  16.0414  16.4268  17.8555  18.3229

          k =-0.4214-0.5619-0.2229 (  4113 PWs)   bands (ev):

   -32.0869  -0.8244   1.1777   7.1792   7.9191   8.8100   9.8307  10.2172
    12.3196  14.4278  15.9805  16.2583  17.0202  18.4004

          k = 0.5619-0.5619-1.7833 (  4116 PWs)   bands (ev):

   -32.0874  -0.9087   0.7828   7.8491   8.6668   9.6168   9.9090  10.8280
    11.0034  12.4264  15.3813  18.3791  18.7307  18.9648

          k = 0.1405 0.0000 0.6687 (  4128 PWs)   bands (ev):

   -32.0846  -0.7920   5.2527   6.3350   6.4746   7.2028   7.7474   9.0217
     9.4623  11.8688  16.3909  18.0454  18.8973  20.6728

          k =-0.0000-0.0000 0.8916 (  4133 PWs)   bands (ev):

   -32.0839   0.3685   4.2633   4.7026   4.7026   7.0795   8.9821   9.9003
     9.9003  12.2118  19.1692  19.1692  19.2411  20.3545

          k =-0.1405-0.0000 1.1146 (  4102 PWs)   bands (ev):

   -32.0841   1.8955   2.4006   3.4865   4.0143   6.7035   9.8930  11.1871
    12.2937  13.7510  18.6278  19.1807  19.8399  19.9822

          k = 0.8428 0.0000-0.4458 (  4101 PWs)   bands (ev):

   -32.0852   0.6130   2.7763   3.3773   4.4032   6.9077  10.9523  12.2228
    15.2845  16.0636  16.5231  16.9040  17.2048  18.7916

          k = 0.7024 0.0000-0.2229 (  4103 PWs)   bands (ev):

   -32.0866  -0.6355   2.5854   3.6364   6.4270   7.8230  12.3526  13.1450
    13.5507  14.4783  15.2025  17.8956  17.9564  18.5654

          k = 0.5619-0.0000 0.0000 (  4109 PWs)   bands (ev):

   -32.0874  -1.4058   2.9161   4.0753   8.0682   9.2417  11.7314  12.7645
    13.0491  13.4003  14.4313  16.0765  16.7723  17.8651

          k = 0.4214 0.0000 0.2229 (  4120 PWs)   bands (ev):

   -32.0871  -1.6880   3.7618   4.8305   8.0276   9.5685  10.8778  11.3711
    11.6012  13.0154  14.6511  15.6992  16.9212  17.5383

          k = 0.1405-0.8428-0.6687 (  4116 PWs)   bands (ev):

   -32.0842   1.4814   2.1991   3.3992   5.1942   7.3235   8.7076  11.0915
    13.1075  14.7920  16.7336  17.4077  17.8846  19.2249

          k =-0.1405-0.8428-0.2229 (  4111 PWs)   bands (ev):

   -32.0864   0.0462   1.7353   3.7343   5.6014   7.4119  12.4806  13.2862
    15.0109  15.2083  16.6191  17.1624  17.8569  19.2885

          k = 0.8428-0.8428-1.7833 (  4118 PWs)   bands (ev):

   -32.0870  -0.3047   1.1574   4.4714   6.2873   8.6997  11.6542  13.2947
    13.8483  14.5436  16.9771  17.8129  17.9708  18.6902

          k = 0.7024-0.8428-1.5604 (  4108 PWs)   bands (ev):

   -32.0867  -0.5307   1.3770   5.4271   6.7180   8.0800  10.9567  12.6541
    13.4852  14.2506  15.4424  17.1932  17.6809  18.2643

          k = 0.4214-0.8428-1.1146 (  4112 PWs)   bands (ev):

   -32.0844  -0.0052   3.4351   4.1010   5.8411   8.5106   9.8045   9.9935
    11.5925  13.5054  13.8379  16.6937  16.8189  19.6823

          k = 0.1405-0.5619-0.2229 (  4104 PWs)   bands (ev):

   -32.0869  -1.1699   2.5248   4.9124   7.3539   8.6621  11.1296  12.1280
    13.2916  13.7135  14.1108  16.2324  17.3221  18.5335

          k = 0.7024-0.5619-1.1146 (  4107 PWs)   bands (ev):

   -32.0844   0.6640   2.3141   3.7361   5.7165   8.7291  10.7605  11.3372
    12.0074  12.7407  13.5448  15.2209  17.3668  19.3550

          k = 0.5619-0.5619-0.8916 (  4080 PWs)   bands (ev):

   -32.0838   2.1199   2.1199   2.5379   4.7528  10.7054  10.7054  11.8216
    11.9516  12.5608  12.7122  12.7122  17.0476  21.2113

          k =-0.7024-0.0000-0.6687 (  4111 PWs)   bands (ev):

   -32.0843   0.7829   2.6120   4.0697   5.1666   7.9391   8.4137  10.1963
    13.7127  15.4289  15.7087  16.2657  17.5412  19.5389

          k =-0.9833 0.0000-0.2229 (  4111 PWs)   bands (ev):

   -32.0862   0.8422   1.9905   2.4958   4.7882   7.0888  13.1094  13.9594
    15.1110  16.3737  17.5721  17.7463  18.4240  19.5398

          k = 0.0000 0.0000-1.7833 (  4078 PWs)   bands (ev):

   -32.0866   1.2966   1.7273   1.7273   4.7123   8.1582  11.3340  16.0958
    17.4606  17.4606  18.2395  18.6175  18.9073  18.9073

          k = 0.2809-0.1405-0.6687 (  4105 PWs)   bands (ev):

   -32.0846  -0.5246   4.4408   5.1247   6.3263   7.5067   8.4415   9.7485
    10.8762  12.1829  15.2176  16.7651  19.7677  20.4773

          k = 0.2809-0.4214-1.1146 (  4115 PWs)   bands (ev):

   -32.0843   0.9461   2.3126   3.4035   6.6007   6.9434   9.2443  11.5928
    12.8709  13.9049  14.9024  16.2567  17.4936  18.9927

          k = 0.2809 0.5619 0.4458 (  4110 PWs)   bands (ev):

   -32.0856  -0.4697   2.2373   5.3411   6.7547   7.8165   9.8155  11.3468
    12.6201  13.9094  15.0069  16.6743  17.4471  18.3360

          k = 0.2809 0.4214 0.2229 (  4110 PWs)   bands (ev):

   -32.0870  -1.4462   2.3465   6.6837   8.1896   8.9063   9.8899  10.6505
    13.1871  13.8487  14.2888  14.7919  16.2087  18.1300

          k = 0.2809 0.1405-0.2229 (  4109 PWs)   bands (ev):

   -32.0873  -1.9575   3.9198   6.3337   8.1805   8.9011  10.4587  10.6406
    12.0572  13.0111  14.3468  14.9930  15.8734  17.7217

          k =-0.5619-0.1405 0.6687 (  4110 PWs)   bands (ev):

   -32.0844   0.2630   3.0602   4.1222   5.9929   7.5314   8.9765  10.3907
    12.5426  14.3606  15.0787  16.0646  17.8111  18.9704

          k =-0.5619-0.4214 0.2229 (  4113 PWs)   bands (ev):

   -32.0869  -0.8243   1.1771   7.3155   7.7257   8.7608   9.7304  10.6543
    12.0444  14.3619  15.8623  16.4326  17.2888  18.3500

          k =-0.8428 0.1405 0.6687 (  4116 PWs)   bands (ev):

   -32.0842   1.4805   2.2032   3.3862   5.2341   7.2220   8.7936  11.1919
    12.7959  15.2395  16.4437  16.9266  18.5993  19.4130

          k =-0.8428-0.1405 0.2229 (  4111 PWs)   bands (ev):

   -32.0864   0.0466   1.7332   3.7405   5.5939   7.4117  12.4986  13.3448
    14.6954  15.7013  16.1610  17.0765  18.3048  19.1054

          k =-0.8428 0.7024 1.5604 (  4108 PWs)   bands (ev):

   -32.0867  -0.5310   1.3786   5.4011   6.7596   8.0908  10.9398  12.2717
    13.8841  14.4840  15.5166  16.7988  17.2918  18.5659

          k =-0.8428 0.4214 1.1146 (  4112 PWs)   bands (ev):

   -32.0844  -0.0053   3.4461   4.0682   5.9365   8.1262   9.9648  10.5674
    11.8015  12.0138  14.8524  16.3150  17.3588  19.1997

          k =-0.5619 0.1405 0.2229 (  4104 PWs)   bands (ev):

   -32.0869  -1.1700   2.5292   4.8887   7.3903   8.7371  10.9965  11.7364
    13.3797  14.1936  14.6951  15.4944  17.1698  18.5510

          k =-0.5619 0.7024 1.1146 (  4107 PWs)   bands (ev):

   -32.0844   0.6640   2.3130   3.7434   5.6861   8.9970  10.1284  11.3983
    12.2762  12.9384  14.0448  14.3897  17.5316  19.3464

     the Fermi energy is    13.9360 ev

!    total energy              =     -47.99986862 Ry
     estimated scf accuracy    <          3.1E-11 Ry
     smearing contrib. (-TS)   =      -0.00039299 Ry
     internal energy E=F+TS    =     -47.99947563 Ry

     The total energy is F=E-TS. E is the sum of the following terms:
     one-electron contribution =      17.33655629 Ry
     hartree contribution      =       2.93655315 Ry
     xc contribution           =     -16.90873772 Ry
     ewald contribution        =     -51.36384734 Ry

     convergence has been achieved in   8 iterations

     Forces acting on atoms (cartesian axes, Ry/au):

     atom    1 type  1   force =     0.00003354   -0.00001348    0.00000000
     atom    2 type  1   force =    -0.00003354    0.00001348    0.00000000
     atom    3 type  1   force =     0.00001348    0.00003354   -0.00000000
     atom    4 type  1   force =    -0.00001348   -0.00003354   -0.00000000
     atom    5 type  2   force =    -0.00000000   -0.00000000   -0.00000000
     The non-local contrib.  to forces
     atom    1 type  1   force =    -0.02617789    0.01050681   -0.00000000
     atom    2 type  1   force =     0.02617789   -0.01050681    0.00000000
     atom    3 type  1   force =    -0.01050681   -0.02617789    0.00000000
     atom    4 type  1   force =     0.01050681    0.02617789   -0.00000000
     atom    5 type  2   force =    -0.00000000   -0.00000000    0.00000000
     The ionic contribution  to forces
     atom    1 type  1   force =    -0.02381689    0.01690384   -0.00000000
     atom    2 type  1   force =     0.02381688   -0.01690383   -0.00000000
     atom    3 type  1   force =    -0.01690382   -0.02381687    0.00000000
     atom    4 type  1   force =     0.01690384    0.02381685    0.00000000
     atom    5 type  2   force =    -0.00000001    0.00000001    0.00000000
     The local contribution  to forces
     atom    1 type  1   force =     0.04825409   -0.02682980    0.00000000
     atom    2 type  1   force =    -0.04825410    0.02682980    0.00000000
     atom    3 type  1   force =     0.02682979    0.04825409   -0.00000000
     atom    4 type  1   force =    -0.02682980   -0.04825409   -0.00000000
     atom    5 type  2   force =    -0.00000000   -0.00000000   -0.00000000
     The core correction contribution to forces
     atom    1 type  1   force =     0.00177347   -0.00059116    0.00000000
     atom    2 type  1   force =    -0.00177347    0.00059116    0.00000000
     atom    3 type  1   force =     0.00059116    0.00177347   -0.00000000
     atom    4 type  1   force =    -0.00059116   -0.00177347   -0.00000000
     atom    5 type  2   force =     0.00000000    0.00000000    0.00000000
     The Hubbard contrib.    to forces
     atom    1 type  1   force =     0.00000000    0.00000000    0.00000000
     atom    2 type  1   force =     0.00000000    0.00000000    0.00000000
     atom    3 type  1   force =     0.00000000    0.00000000    0.00000000
     atom    4 type  1   force =     0.00000000    0.00000000    0.00000000
     atom    5 type  2   force =     0.00000000    0.00000000    0.00000000
     The SCF correction term to forces
     atom    1 type  1   force =     0.00000073   -0.00000317    0.00000000
     atom    2 type  1   force =    -0.00000073    0.00000317    0.00000000
     atom    3 type  1   force =     0.00000317    0.00000073   -0.00000000
     atom    4 type  1   force =    -0.00000317   -0.00000073   -0.00000000
     atom    5 type  2   force =     0.00000000   -0.00000000   -0.00000000

     Total force =     0.000072     Total SCF correction =     0.000007


     Computing stress (Cartesian axis) and pressure

          total   stress  (Ry/bohr**3)                   (kbar)     P=      500.38
   0.00339857   0.00000000   0.00000000          499.95        0.00        0.00
  -0.00000000   0.00339857   0.00000000           -0.00      499.95        0.00
   0.00000000  -0.00000000   0.00340743            0.00       -0.00      501.25


     Writing all to output data dir ./output/SiLi.save/

     init_run     :      1.72s CPU      3.62s WALL (       2 calls)
     electrons    :    156.84s CPU    183.72s WALL (      26 calls)
     update_pot   :      8.63s CPU      8.74s WALL (      24 calls)
     forces       :      6.78s CPU      6.93s WALL (      26 calls)
     stress       :     31.33s CPU     32.61s WALL (      26 calls)

     Called by init_run:
     wfcinit      :      0.92s CPU      2.49s WALL (       2 calls)
     potinit      :      0.34s CPU      0.53s WALL (       2 calls)
     hinit0       :      0.40s CPU      0.45s WALL (       2 calls)

     Called by electrons:
     c_bands      :    136.40s CPU    158.98s WALL (     170 calls)
     sum_band     :     18.65s CPU     22.19s WALL (     170 calls)
     v_of_rho     :      1.86s CPU      2.49s WALL (     182 calls)
     mix_rho      :      0.14s CPU      0.20s WALL (     170 calls)

     Called by c_bands:
     init_us_2    :      2.80s CPU      3.21s WALL (   18124 calls)
     init_us_2:cp :      2.78s CPU      3.19s WALL (   18124 calls)
     cegterg      :    127.42s CPU    146.85s WALL (    7820 calls)

     Called by *egterg:
     cdiaghg      :      6.33s CPU      6.75s WALL (   31186 calls)
     h_psi        :    111.88s CPU    131.83s WALL (   33026 calls)
     g_psi        :      0.39s CPU      0.41s WALL (   25114 calls)

     Called by h_psi:
     h_psi:calbec :      6.23s CPU      7.12s WALL (   33026 calls)
     vloc_psi     :     99.85s CPU    118.29s WALL (   33026 calls)
     add_vuspsi   :      5.50s CPU      6.10s WALL (   33026 calls)

     General routines
     calbec       :      8.21s CPU      9.14s WALL (   39006 calls)
     fft          :      1.43s CPU      2.25s WALL (    2482 calls)
     ffts         :      0.12s CPU      0.18s WALL (     170 calls)
     fftw         :    104.77s CPU    124.18s WALL (  747576 calls)

     Parallel routines

     PWSCF        :   3m25.81s CPU   3m56.62s WALL


   This run was terminated on:  20: 3:52  29Dec2024            

=------------------------------------------------------------------------------=
   JOB DONE.
=------------------------------------------------------------------------------=
