
     Program PWSCF v.7.3.1 starts on 18Feb2025 at 18:47:17 

     This program is part of the open-source Quantum ESPRESSO suite
     for quantum simulation of materials; please cite
         "P. Giannozzi et al., J. Phys.:Condens. Matter 21 395502 (2009);
         "P. Giannozzi et al., J. Phys.:Condens. Matter 29 465901 (2017);
         "P. Giannozzi et al., J. Chem. Phys. 152 154105 (2020);
          URL http://www.quantum-espresso.org", 
     in publications or presentations arising from this work. More details at
     http://www.quantum-espresso.org/quote

     Parallel version (MPI & OpenMP), running on      16 processor cores
     Number of MPI processes:                16
     Threads/MPI process:                     1

     MPI processes distributed on     1 nodes
     494006 MiB available memory on the printing compute node when the environment starts

     Waiting for input...
     Reading input from standard input

     Current dimensions of program PWSCF are:
     Max number of different atomic species (ntypx) = 10
     Max number of k-points (npk) =  40000
     Max angular momentum in pseudopotentials (lmaxx) =  4

     R & G space division:  proc/nbgrp/npool/nimage =      16
     Subspace diagonalization in iterative solution of the eigenvalue problem:
     a serial algorithm will be used


     Parallelization info
     --------------------
     sticks:   dense  smooth     PW     G-vecs:    dense   smooth      PW
     Min         182     182     55                 4176     4176     691
     Max         183     183     56                 4177     4177     692
     Sum        2919    2919    885                66831    66831   11061

     Using Slab Decomposition



     bravais-lattice index     =            5
     lattice parameter (alat)  =      16.8432  a.u.
     unit-cell volume          =     692.6109 (a.u.)^3
     number of atoms/cell      =           10
     number of atomic types    =            2
     number of electrons       =        38.00
     number of Kohn-Sham states=           23
     kinetic-energy cutoff     =      80.0000  Ry
     charge density cutoff     =     320.0000  Ry
     scf convergence threshold =      1.0E-08
     mixing beta               =       0.7000
     number of iterations used =            8  plain     mixing
     energy convergence thresh.=      1.0E-04
     force convergence thresh. =      5.0E-04
     press convergence thresh. =      1.0E+00
     Exchange-correlation= PBE
                           (   1   4   3   4   0   0   0)
     nstep                     =           50


     celldm(1)=  16.843177  celldm(2)=   0.000000  celldm(3)=   0.000000
     celldm(4)=   0.913800  celldm(5)=   0.000000  celldm(6)=   0.000000

     crystal axes: (cart. coord. in units of alat)
               a(1) = (   0.207606  -0.119861   0.970841 )  
               a(2) = (   0.000000   0.239722   0.970841 )  
               a(3) = (  -0.207606  -0.119861   0.970841 )  

     reciprocal axes: (cart. coord. in units 2 pi/alat)
               b(1) = (  2.408412 -1.390497  0.343345 )  
               b(2) = (  0.000000  2.780995  0.343345 )  
               b(3) = ( -2.408412 -1.390497  0.343345 )  


     PseudoPot. # 1 for Si read from file:
     ../pseudo/Si_ONCV_PBE_sr.upf
     MD5 check sum: e543d271109d17c80368dfa7c482276d
     Pseudo is Norm-conserving + core correction, Zval =  4.0
     Generated using ONCVPSP code by D. R. Hamann
     Using radial grid of 1510 points,  6 beta functions with: 
                l(1) =   0
                l(2) =   0
                l(3) =   1
                l(4) =   1
                l(5) =   2
                l(6) =   2

     PseudoPot. # 2 for Li read from file:
     ../pseudo/Li_ONCV_PBE_sr.upf
     MD5 check sum: 50ff420e78310ffa21704f3361e624a4
     Pseudo is Norm-conserving, Zval =  3.0
     Generated using ONCVPSP code by D. R. Hamann
     Using radial grid of 1944 points,  4 beta functions with: 
                l(1) =   0
                l(2) =   0
                l(3) =   1
                l(4) =   1

     atomic species   valence    mass     pseudopotential
     Si                4.00    28.08550     Si( 1.00)
     Li                3.00     6.94100     Li( 1.00)

     12 Sym. Ops., with inversion, found



   Cartesian axes

     site n.     atom                  positions (alat units)
         1        Si     tau(   1) = (  -0.0000000  -0.0000000   0.1905529  )
         2        Si     tau(   2) = (  -0.0000000  -0.0000000   2.7219716  )
         3        Si     tau(   3) = (   0.0000000  -0.0000000   0.5531428  )
         4        Si     tau(   4) = (   0.0000000  -0.0000000   2.3593817  )
         5        Si     tau(   5) = (  -0.0000000  -0.0000000   1.0343374  )
         6        Si     tau(   6) = (  -0.0000000  -0.0000000   1.8781870  )
         7        Si     tau(   7) = (   0.0000000  -0.0000000   1.2616745  )
         8        Si     tau(   8) = (  -0.0000000  -0.0000000   1.6508499  )
         9        Li     tau(   9) = (   0.0000000  -0.0000000   0.7987103  )
        10        Li     tau(  10) = (   0.0000000  -0.0000000   2.1138141  )

     number of k points=    44  Marzari-Vanderbilt smearing, width (Ry)=  0.0200
                       cart. coord. in units 2pi/alat
        k(    1) = (   0.0000000   0.0000000   0.0000000), wk =   0.0058309
        k(    2) = (  -0.3440589  -0.1986425   0.0490493), wk =   0.0349854
        k(    3) = (  -0.6881178  -0.3972850   0.0980985), wk =   0.0349854
        k(    4) = (  -1.0321766  -0.5959275   0.1471478), wk =   0.0349854
        k(    5) = (  -0.3440589   0.1986425   0.0980985), wk =   0.0349854
        k(    6) = (  -0.6881178  -0.0000000   0.1471478), wk =   0.0699708
        k(    7) = (  -1.0321766  -0.1986425   0.1961970), wk =   0.0699708
        k(    8) = (   1.0321766   0.9932124  -0.0980985), wk =   0.0699708
        k(    9) = (   0.6881178   0.7945700  -0.0490493), wk =   0.0699708
        k(   10) = (   0.3440589   0.5959275   0.0000000), wk =   0.0349854
        k(   11) = (  -0.6881178   0.3972850   0.1961970), wk =   0.0349854
        k(   12) = (  -1.0321766   0.1986425   0.2452463), wk =   0.0699708
        k(   13) = (   1.0321766   1.3904974  -0.0490493), wk =   0.0699708
        k(   14) = (   0.6881178   1.1918549   0.0000000), wk =   0.0349854
        k(   15) = (  -1.0321766   0.5959275   0.2942955), wk =   0.0349854
        k(   16) = (   1.0321766   1.7877824   0.0000000), wk =   0.0349854
        k(   17) = (  -0.0000000  -0.0000000   0.1471478), wk =   0.0116618
        k(   18) = (  -0.3440589  -0.1986425   0.1961970), wk =   0.0349854
        k(   19) = (  -0.6881178  -0.3972850   0.2452463), wk =   0.0349854
        k(   20) = (   1.3762355   0.7945700  -0.0490493), wk =   0.0349854
        k(   21) = (   1.0321766   0.5959275   0.0000000), wk =   0.0349854
        k(   22) = (   0.6881178   0.3972850   0.0490493), wk =   0.0349854
        k(   23) = (  -0.3440589   0.1986425   0.2452463), wk =   0.0349854
        k(   24) = (  -0.6881178  -0.0000000   0.2942955), wk =   0.0699708
        k(   25) = (   1.3762355   1.1918549   0.0000000), wk =   0.0699708
        k(   26) = (   1.0321766   0.9932124   0.0490493), wk =   0.0699708
        k(   27) = (   0.6881178   0.7945700   0.0980985), wk =   0.0699708
        k(   28) = (  -0.6881178   0.3972850   0.3433448), wk =   0.0349854
        k(   29) = (   1.3762355   1.5891399   0.0490493), wk =   0.0699708
        k(   30) = (   1.0321766   1.3904974   0.0980985), wk =   0.0699708
        k(   31) = (   0.6881178   1.1918549   0.1471478), wk =   0.0699708
        k(   32) = (   1.3762355  -0.7945700  -0.2452463), wk =   0.0349854
        k(   33) = (   1.0321766  -0.9932124  -0.1961970), wk =   0.0699708
        k(   34) = (   1.0321766  -0.5959275  -0.1471478), wk =   0.0349854
        k(   35) = (  -0.0000000  -0.0000000   0.2942955), wk =   0.0116618
        k(   36) = (  -0.3440589  -0.1986425   0.3433448), wk =   0.0349854
        k(   37) = (   1.7202944   0.9932124   0.0490493), wk =   0.0349854
        k(   38) = (   1.3762355   0.7945700   0.0980985), wk =   0.0349854
        k(   39) = (  -0.3440589   0.1986425   0.3923940), wk =   0.0349854
        k(   40) = (   1.7202944   1.3904974   0.0980985), wk =   0.0699708
        k(   41) = (   1.3762355   1.1918549   0.1471478), wk =   0.0699708
        k(   42) = (   1.7202944  -0.9932124  -0.1961970), wk =   0.0349854
        k(   43) = (  -0.0000000   0.0000000   0.4414433), wk =   0.0116618
        k(   44) = (   2.0643533   1.1918549   0.1471478), wk =   0.0349854

     Dense  grid:    66831 G-vectors     FFT dimensions: (  96,  96,  96)

     Estimated max dynamical RAM per process >      27.29 MB

     Estimated total dynamical RAM >     436.66 MB

     Initial potential from superposition of free atoms

     starting charge      37.9860, renormalised to      38.0000
     Starting wfcs are   36 randomized atomic wfcs

     total cpu time spent up to now is        3.0 secs

     per-process dynamical memory:    44.8 Mb

     Self-consistent Calculation

     iteration #  1     ecut=    80.00 Ry     beta= 0.70
     CG style diagonalization
     ethr =  1.00E-02,  avg # of iterations =  3.6

     total cpu time spent up to now is        8.8 secs

     total energy              =     -95.07616451 Ry
     estimated scf accuracy    <       0.84902904 Ry

     iteration #  2     ecut=    80.00 Ry     beta= 0.70
     CG style diagonalization
     c_bands:  2 eigenvalues not converged
     c_bands:  1 eigenvalues not converged
     c_bands:  1 eigenvalues not converged
     c_bands:  1 eigenvalues not converged
     ethr =  2.23E-03,  avg # of iterations =  6.2

     total cpu time spent up to now is       18.2 secs

     total energy              =     -93.31891033 Ry
     estimated scf accuracy    <      24.62384365 Ry

     iteration #  3     ecut=    80.00 Ry     beta= 0.70
     CG style diagonalization
     ethr =  2.23E-03,  avg # of iterations =  5.6

     total cpu time spent up to now is       26.8 secs

     total energy              =     -95.63629701 Ry
     estimated scf accuracy    <       0.19326966 Ry

     iteration #  4     ecut=    80.00 Ry     beta= 0.70
     CG style diagonalization
     ethr =  5.09E-04,  avg # of iterations =  3.9

     total cpu time spent up to now is       32.9 secs

     total energy              =     -95.67645540 Ry
     estimated scf accuracy    <       0.01347168 Ry

     iteration #  5     ecut=    80.00 Ry     beta= 0.70
     CG style diagonalization
     c_bands:  1 eigenvalues not converged
     c_bands:  1 eigenvalues not converged
     c_bands:  1 eigenvalues not converged
     c_bands:  1 eigenvalues not converged
     c_bands:  1 eigenvalues not converged
     c_bands:  1 eigenvalues not converged
     c_bands:  1 eigenvalues not converged
     c_bands:  1 eigenvalues not converged
     c_bands:  1 eigenvalues not converged
     ethr =  3.55E-05,  avg # of iterations =  4.5

     total cpu time spent up to now is       39.8 secs

     total energy              =     -95.68096503 Ry
     estimated scf accuracy    <       0.00050888 Ry

     iteration #  6     ecut=    80.00 Ry     beta= 0.70
     CG style diagonalization
     c_bands:  1 eigenvalues not converged
     c_bands:  1 eigenvalues not converged
     c_bands:  1 eigenvalues not converged
     c_bands:  1 eigenvalues not converged
     c_bands:  1 eigenvalues not converged
     c_bands:  1 eigenvalues not converged
     ethr =  1.34E-06,  avg # of iterations =  4.9

     total cpu time spent up to now is       47.3 secs

     total energy              =     -95.68115931 Ry
     estimated scf accuracy    <       0.00025590 Ry

     iteration #  7     ecut=    80.00 Ry     beta= 0.70
     CG style diagonalization
     c_bands:  1 eigenvalues not converged
     ethr =  6.73E-07,  avg # of iterations =  3.1

     total cpu time spent up to now is       52.0 secs

     total energy              =     -95.68117004 Ry
     estimated scf accuracy    <       0.00003013 Ry

     iteration #  8     ecut=    80.00 Ry     beta= 0.70
     CG style diagonalization
     ethr =  7.93E-08,  avg # of iterations =  3.8

     total cpu time spent up to now is       57.9 secs

     total energy              =     -95.68117762 Ry
     estimated scf accuracy    <       0.00000983 Ry

     iteration #  9     ecut=    80.00 Ry     beta= 0.70
     CG style diagonalization
     ethr =  2.59E-08,  avg # of iterations =  3.3

     total cpu time spent up to now is       63.0 secs

     total energy              =     -95.68117912 Ry
     estimated scf accuracy    <       0.00000047 Ry

     iteration # 10     ecut=    80.00 Ry     beta= 0.70
     CG style diagonalization
     ethr =  1.24E-09,  avg # of iterations =  3.9

     total cpu time spent up to now is       69.0 secs

     End of self-consistent calculation

          k = 0.0000 0.0000 0.0000 (  8333 PWs)   bands (ev):

   -33.0174 -33.0149  -2.5152  -1.1619  -0.1139   4.6297   4.6460   9.2045
     9.2045   9.3544   9.3544  10.6521  10.6521  11.0728  11.0728  11.4311
    12.2742  12.6094  12.6094  12.7022  13.4506  14.3127  14.3130

          k =-0.3441-0.1986 0.0490 (  8307 PWs)   bands (ev):

   -33.0165 -33.0143  -2.2699  -0.9650   0.1892   4.5076   5.1342   7.0090
     7.6368   8.0160   8.6729   9.8778  10.6877  10.7862  11.5026  11.9054
    12.1175  12.7232  12.9743  13.4462  13.5929  13.8855  14.3904

          k =-0.6881-0.3973 0.0981 (  8351 PWs)   bands (ev):

   -33.0145 -33.0129  -1.5470  -0.3877   1.0628   4.0218   4.7823   5.3985
     6.4428   7.0156   7.2791   7.6491   9.1564   9.9916  11.0523  11.0748
    11.8277  12.3483  13.1860  13.4594  14.5092  14.5653  15.5161

          k =-1.0322-0.5959 0.1471 (  8372 PWs)   bands (ev):

   -33.0128 -33.0118  -0.4379   0.2818   1.9794   2.8600   3.0922   4.7475
     6.0534   6.5052   7.1136   7.2236   7.9768   9.1970  10.6353  10.7740
    11.1578  11.4351  12.5453  12.6802  15.2773  16.5353  16.6496

          k =-0.3441 0.1986 0.0981 (  8327 PWs)   bands (ev):

   -33.0165 -33.0143  -2.2596  -1.0204   0.2695   4.2009   5.4508   7.0862
     7.5129   7.9525   8.8118   9.9048  10.8880  10.9723  11.3027  11.5732
    12.0156  12.5169  12.5694  13.4047  13.7680  14.2781  14.2840

          k =-0.6881-0.0000 0.1471 (  8365 PWs)   bands (ev):

   -33.0151 -33.0132  -1.7651  -0.6580   0.9134   4.2204   5.3837   5.6591
     6.0716   7.0143   7.4528   8.6743   9.7030  10.1401  11.1403  11.6618
    11.9264  12.2389  12.9000  13.7208  14.3405  14.9222  15.3178

          k =-1.0322-0.1986 0.1962 (  8379 PWs)   bands (ev):

   -33.0132 -33.0120  -0.8232   0.0667   1.9673   3.2456   3.9500   4.7580
     5.5671   6.0605   6.3463   8.0334   9.1166   9.2281   9.5811  10.7618
    11.8283  12.6525  13.4659  14.3218  14.8495  15.1211  16.0191

          k = 1.0322 0.9932-0.0981 (  8382 PWs)   bands (ev):

   -33.0122 -33.0116   0.1948   0.3814   1.9870   2.7623   3.5099   4.0043
     5.2040   5.5020   6.7417   7.7691   8.6342   8.8156   9.4732   9.8706
    11.6711  12.4079  13.8619  14.6774  15.1564  15.7326  16.4516

          k = 0.6881 0.7946-0.0490 (  8384 PWs)   bands (ev):

   -33.0132 -33.0120  -0.8656   0.2016   1.7762   3.2585   3.8110   4.9777
     5.5807   6.4871   6.7565   7.2655   8.4907   8.8738   9.8727  11.2362
    11.8165  13.1470  13.7515  14.4236  14.6709  15.1345  15.9301

          k = 0.3441 0.5959 0.0000 (  8374 PWs)   bands (ev):

   -33.0151 -33.0132  -1.7944  -0.5237   0.7069   4.8800   5.0757   5.5110
     6.0082   6.9132   7.2962   8.9346   9.4417  10.5891  10.6698  11.8601
    12.0230  12.2265  12.8085  13.9605  14.2829  15.1477  15.5526

          k =-0.6881 0.3973 0.1962 (  8350 PWs)   bands (ev):

   -33.0145 -33.0129  -1.5096  -0.5292   1.3025   3.8497   4.6389   5.0899
     6.8952   6.9987   7.9311   7.9417   8.5022  10.1488  10.1564  10.7073
    11.6656  13.0372  13.2704  14.4531  14.9193  15.1434  15.2415

          k =-1.0322 0.1986 0.2452 (  8374 PWs)   bands (ev):

   -33.0132 -33.0120  -0.7994   0.0001   2.1113   3.3292   3.6537   4.6513
     5.4576   6.5177   7.0377   7.6040   8.1054   8.4617  11.0606  11.4610
    11.7894  12.8384  13.3695  13.8871  14.1157  15.0358  15.7953

          k = 1.0322 1.3905-0.0490 (  8395 PWs)   bands (ev):

   -33.0120 -33.0115   0.2562   0.7017   2.2372   2.5971   3.6581   4.0486
     4.5835   5.3534   6.4187   6.7210   7.6909   9.3644   9.8748  10.7099
    12.6641  13.2927  14.1763  14.6640  14.8188  16.0784  16.4271

          k = 0.6881 1.1919 0.0000 (  8362 PWs)   bands (ev):

   -33.0120 -33.0115   0.1842   0.8218   2.1842   2.9632   3.1505   3.9017
     4.3700   5.8822   6.6564   7.4063   7.9192   8.2523   8.6302  11.7594
    12.7044  14.0656  14.0828  14.8187  14.8904  15.8840  16.1114

          k =-1.0322 0.5959 0.2943 (  8389 PWs)   bands (ev):

   -33.0128 -33.0118  -0.3798   0.1707   2.0194   2.7723   3.2912   5.0276
     5.6560   6.3539   6.5688   7.4971   8.5615   9.5103   9.5190  10.7627
    11.0652  12.5756  13.4466  13.5584  14.1522  14.5153  16.2542

          k = 1.0322 1.7878 0.0000 (  8368 PWs)   bands (ev):

   -33.0122 -33.0116   0.2555   0.3350   1.9936   2.4043   4.0571   4.1261
     5.3452   5.6486   6.3015   6.9252   7.5233   9.7684  10.4640  11.5129
    11.7135  12.1842  12.8337  13.4962  14.5727  14.7329  17.3576

          k =-0.0000-0.0000 0.1471 (  8309 PWs)   bands (ev):

   -33.0174 -33.0149  -2.4839  -1.3253   0.1239   3.6961   5.6387   9.1724
     9.1724   9.3865   9.3865  10.6469  10.6469  11.0470  11.1230  11.1230
    12.2384  12.4549  12.5259  12.5259  13.9566  14.3304  14.3304

          k =-0.3441-0.1986 0.1962 (  8330 PWs)   bands (ev):

   -33.0165 -33.0143  -2.2192  -1.1888   0.5367   3.6086   6.0879   6.9510
     7.8067   8.0400   8.6282   9.7244  10.5452  10.6174  11.4783  11.4788
    12.4292  12.6526  13.2829  13.3693  13.6564  14.1097  14.4518

          k =-0.6881-0.3973 0.2452 (  8350 PWs)   bands (ev):

   -33.0145 -33.0129  -1.4826  -0.6086   1.4414   3.6622   4.6889   5.1858
     6.8794   7.0157   7.3925   7.6489   9.5768   9.8080  11.0870  11.1574
    11.8087  12.3479  12.5867  13.0248  14.2254  14.4941  15.7826

          k = 1.3762 0.7946-0.0490 (  8371 PWs)   bands (ev):

   -33.0128 -33.0118  -0.3755   0.1653   1.8885   3.1956   3.2997   4.4646
     5.2756   6.4783   7.1659   7.9535   8.4634   8.9533  10.4120  10.7017
    11.2461  11.5824  12.1523  12.7301  14.7423  16.3685  17.2909

          k = 1.0322 0.5959 0.0000 (  8369 PWs)   bands (ev):

   -33.0128 -33.0118  -0.4616   0.3316   2.1162   2.6086   2.9468   5.2167
     6.4565   6.4974   6.8928   7.1875   7.2123   9.4685  10.2217  10.6312
    11.5446  11.8462  12.6342  13.0496  15.3959  16.0057  16.2606

          k = 0.6881 0.3973 0.0490 (  8356 PWs)   bands (ev):

   -33.0145 -33.0129  -1.5566  -0.3454   1.0009   4.1412   4.6015   5.6694
     6.1315   6.9541   7.7297   7.7809   8.6623  10.1128  10.5471  10.8774
    12.0064  12.5306  13.3606  14.3479  14.6158  15.1672  15.4636

          k =-0.3441 0.1986 0.2452 (  8348 PWs)   bands (ev):

   -33.0165 -33.0143  -2.1897  -1.2833   0.7069   3.3199   6.3871   7.0823
     7.5829   7.9053   8.9415   9.8531  10.5382  11.0613  11.0907  11.2539
    12.0458  12.3066  12.4963  13.0712  14.0263  14.2339  15.0897

          k =-0.6881-0.0000 0.2943 (  8354 PWs)   bands (ev):

   -33.0151 -33.0132  -1.6822  -0.9117   1.3872   3.4387   5.4289   5.7178
     6.3396   7.1753   7.9817   8.4357   9.3960  10.3980  10.9181  11.6145
    11.9304  12.1070  13.0017  13.7003  14.1718  14.6118  15.0598

          k = 1.3762 1.1919 0.0000 (  8387 PWs)   bands (ev):

   -33.0132 -33.0120  -0.7414  -0.1263   2.2629   3.3293   3.9692   4.3328
     5.5202   5.9835   6.1961   8.4524   9.0430   9.7312  10.1663  10.3735
    11.4677  12.4935  13.0743  14.0350  14.3818  15.6211  15.8514

          k = 1.0322 0.9932 0.0490 (  8376 PWs)   bands (ev):

   -33.0122 -33.0116   0.2108   0.3712   1.9663   2.6802   3.4912   4.3171
     5.1346   5.6487   6.2812   7.9797   8.1503   8.5130  10.1126  10.5611
    11.6302  12.5206  13.3617  14.1721  14.6472  15.6625  17.0275

          k = 0.6881 0.7946 0.0981 (  8378 PWs)   bands (ev):

   -33.0132 -33.0120  -0.8571   0.1692   1.8363   3.3144   3.6692   4.9308
     5.5758   6.6787   7.0790   7.2998   7.9944   8.3291  10.5720  11.4098
    11.8338  13.3700  13.5456  14.3049  14.5441  14.8795  15.7112

          k =-0.6881 0.3973 0.3433 (  8370 PWs)   bands (ev):

   -33.0145 -33.0129  -1.4166  -0.7684   1.8005   3.2777   4.7337   4.8494
     6.8730   7.4577   7.9124   8.0164   9.0651  10.0077  10.1486  10.2507
    11.6117  12.5756  13.8717  13.9869  14.3173  15.2712  15.3462

          k = 1.3762 1.5891 0.0490 (  8382 PWs)   bands (ev):

   -33.0132 -33.0120  -0.7121  -0.1835   2.4063   3.3546   3.7607   4.2183
     5.4021   6.4210   6.5922   7.7370   8.5846   9.3129  10.8830  11.1105
    11.9450  12.3824  13.2265  13.5525  13.6774  15.2960  16.0989

          k = 1.0322 1.3905 0.0981 (  8401 PWs)   bands (ev):

   -33.0120 -33.0115   0.3168   0.6155   2.2996   2.4565   3.8979   4.1035
     4.7213   5.2569   6.0121   6.3113   8.3339   9.2613  10.2348  11.1829
    12.0567  12.5221  14.2348  14.5778  15.2235  16.2184  16.3802

          k = 0.6881 1.1919 0.1471 (  8399 PWs)   bands (ev):

   -33.0120 -33.0115   0.2035   0.7873   2.1973   2.7897   3.3661   3.9429
     4.4332   5.6478   6.8851   7.0626   7.4649   8.6928   9.2076  11.2440
    13.0401  13.7150  14.1345  14.7107  14.7864  15.9270  16.3004

          k = 1.3762-0.7946-0.2452 (  8381 PWs)   bands (ev):

   -33.0128 -33.0118  -0.3072   0.0574   1.9192   2.9773   3.7658   4.4418
     5.0551   6.3615   7.2510   7.4703   9.0638   9.3177   9.5639  10.6666
    11.1862  12.0898  12.9201  13.2310  14.5088  14.7640  16.7081

          k = 1.0322-0.9932-0.1962 (  8371 PWs)   bands (ev):

   -33.0122 -33.0116   0.2377   0.3505   1.9733   2.4999   3.7386   4.3676
     5.2671   5.6249   6.1921   7.2965   7.7043   9.2781  10.6083  11.0017
    11.7880  12.3260  13.0470  13.6362  14.3057  15.3512  17.1344

          k = 1.0322-0.5959-0.1471 (  8371 PWs)   bands (ev):

   -33.0128 -33.0118  -0.4405   0.2854   2.1328   2.6099   2.9806   5.5636
     6.0161   6.3904   6.4080   7.3791   7.7563   9.5655   9.7584  10.7550
    11.2319  12.6673  13.0014  13.2669  14.7316  15.0958  16.1939

          k =-0.0000-0.0000 0.2943 (  8350 PWs)   bands (ev):

   -33.0174 -33.0149  -2.3941  -1.6135   0.6387   2.8201   6.6871   9.1248
     9.1248   9.4314   9.4314  10.1101  10.6740  10.6740  11.1786  11.1786
    12.2097  12.3450  12.4393  12.4393  13.8538  13.8538  14.4723

          k =-0.3441-0.1986 0.3433 (  8355 PWs)   bands (ev):

   -33.0165 -33.0143  -2.1165  -1.4634   1.0912   2.7689   6.8090   7.0987
     7.9938   7.9996   8.7188   9.5288  10.0234  10.6266  11.1340  11.3340
    12.3044  12.6476  13.1114  13.7852  13.9298  14.2507  14.4027

          k = 1.7203 0.9932 0.0490 (  8358 PWs)   bands (ev):

   -33.0145 -33.0129  -1.3821  -0.8350   1.9694   3.0909   4.5472   5.1960
     6.8379   6.9541   7.7803   8.2239   9.5014   9.9349  10.5556  10.6638
    11.9746  12.5022  12.5376  12.9114  14.4239  14.4796  15.9163

          k = 1.3762 0.7946 0.0981 (  8367 PWs)   bands (ev):

   -33.0128 -33.0118  -0.3042   0.0540   1.8708   3.1760   3.7451   4.4197
     4.7285   6.4107   7.3226   7.9334   8.6669   9.2574   9.8971  10.7575
    11.2231  11.8551  12.3690  12.7206  14.6664  15.4785  17.3086

          k =-0.3441 0.1986 0.3924 (  8344 PWs)   bands (ev):

   -33.0165 -33.0143  -2.0768  -1.5410   1.3034   2.5022   6.9451   7.1834
     7.8974   7.9886   8.9669   9.6180   9.7798  10.8407  10.9961  11.3214
    12.0554  12.4700  12.5593  13.1587  14.1318  14.2484  15.1405

          k = 1.7203 1.3905 0.0981 (  8355 PWs)   bands (ev):

   -33.0151 -33.0132  -1.5780  -1.1199   1.9878   2.6932   5.4491   5.6757
     6.5482   7.2022   8.4334   8.7373   9.0645   9.8649  11.1023  11.6152
    11.9564  11.9976  12.8638  13.9896  14.1742  14.4999  14.8225

          k = 1.3762 1.1919 0.1471 (  8376 PWs)   bands (ev):

   -33.0132 -33.0120  -0.6722  -0.2498   2.4666   3.4821   3.7878   4.0606
     5.4447   6.1453   6.3255   8.0356   9.2283   9.7745  10.3846  10.9004
    11.1913  12.6011  12.9990  13.5670  13.9604  15.4786  16.1114

          k = 1.7203-0.9932-0.1962 (  8371 PWs)   bands (ev):

   -33.0145 -33.0129  -1.3335  -0.9182   2.3321   2.7035   4.5745   5.0567
     6.8953   7.0660   7.9412   8.5356   9.4888   9.8817  10.1463  10.1607
    11.7054  12.4466  13.2411  13.4892  14.2901  14.9333  15.7673

          k =-0.0000 0.0000 0.4414 (  8341 PWs)   bands (ev):

   -33.0174 -33.0150  -2.2755  -1.8479   1.2772   2.0168   7.7327   9.0571
     9.0968   9.0968   9.4545   9.4545  10.7408  10.7408  11.1466  11.1466
    12.2349  12.2877  12.4996  12.4996  13.4382  13.4382  14.6569

          k = 2.0644 1.1919 0.1471 (  8337 PWs)   bands (ev):

   -33.0165 -33.0143  -2.0186  -1.6377   1.7537   1.9990   6.8977   7.4091
     7.9316   8.4767   8.8669   8.9974   9.7299  10.6735  11.1302  11.2057
    12.1057  12.6572  12.7779  13.6123  14.1724  14.3067  14.4342

     the Fermi energy is    13.5038 ev

!    total energy              =     -95.68117931 Ry
     estimated scf accuracy    <          2.6E-09 Ry
     smearing contrib. (-TS)   =      -0.00021618 Ry
     internal energy E=F+TS    =     -95.68096313 Ry

     The total energy is F=E-TS. E is the sum of the following terms:
     one-electron contribution =      26.95217148 Ry
     hartree contribution      =       9.18739778 Ry
     xc contribution           =     -33.82989327 Ry
     ewald contribution        =     -97.99063911 Ry

     convergence has been achieved in  10 iterations

     Forces acting on atoms (cartesian axes, Ry/au):

     atom    1 type  1   force =     0.00000000   -0.00000000    0.00441908
     atom    2 type  1   force =    -0.00000000    0.00000000   -0.00441908
     atom    3 type  1   force =     0.00000000    0.00000000   -0.05289712
     atom    4 type  1   force =     0.00000000    0.00000000    0.05289712
     atom    5 type  1   force =     0.00000000    0.00000000   -0.17603499
     atom    6 type  1   force =    -0.00000000   -0.00000000    0.17603499
     atom    7 type  1   force =    -0.00000000   -0.00000000    0.25619480
     atom    8 type  1   force =     0.00000000    0.00000000   -0.25619480
     atom    9 type  2   force =    -0.00000000   -0.00000000   -0.01334934
     atom   10 type  2   force =    -0.00000000   -0.00000000    0.01334934

     Total force =     0.446363     Total SCF correction =     0.000062


     Computing stress (Cartesian axis) and pressure

          total   stress  (Ry/bohr**3)                   (kbar)     P=      632.66
   0.00364988  -0.00000000   0.00000000          536.92       -0.00        0.00
  -0.00000000   0.00364988   0.00000000           -0.00      536.92        0.00
   0.00000000   0.00000000   0.00560238            0.00        0.00      824.14


     BFGS Geometry Optimization
     Energy error            =      0.0E+00 Ry
     Gradient error          =      2.6E-01 Ry/Bohr
     Cell gradient error     =      3.2E+02 kbar

     number of scf cycles    =   1
     number of bfgs steps    =   0

     enthalpy           new  =     -93.3270425741 Ry

     new trust radius        =       0.2899468623 bohr
ibrav =      5
 celldm(1) =     17.72479129
 celldm(4) =      0.92118183
Input lattice vectors:
     0.20890812    -0.12061316     1.02432157
    -0.00000000     0.24122631     1.02432157
    -0.20890812    -0.12061316     1.02432157
New lattice vectors in INITIAL alat:
     0.20890812    -0.12061316     1.02432157
     0.00000000     0.24122631     1.02432157
    -0.20890812    -0.12061316     1.02432157
New lattice vectors in NEW alat (for information only):
     0.19851722    -0.11461397     0.97337277
     0.00000000     0.22922794     0.97337277
    -0.19851722    -0.11461397     0.97337277
Discrepancy in bohr =     0.000000    0.000000    0.000000
     new conv_thr            =       0.0000000100 Ry

     new unit-cell volume =    739.96228 a.u.^3 (   109.65110 Ang^3 )
     density =      3.61281 g/cm^3

CELL_PARAMETERS (alat= 16.84317676)
   0.208908116  -0.120613157   1.024321566
   0.000000000   0.241226314   1.024321566
  -0.208908116  -0.120613157   1.024321566

ATOMIC_POSITIONS (crystal)
Si               0.0655154121        0.0655154121        0.0655154121
Si               0.9344845879        0.9344845879        0.9344845879
Si               0.1888403729        0.1888403729        0.1888403729
Si               0.8111596271        0.8111596271        0.8111596271
Si               0.3515458923        0.3515458923        0.3515458923
Si               0.6484541077        0.6484541077        0.6484541077
Si               0.4384118092        0.4384118092        0.4384118092
Si               0.5615881908        0.5615881908        0.5615881908
Li               0.2739608764        0.2739608764        0.2739608764
Li               0.7260391236        0.7260391236        0.7260391236



     Writing config-only to output data dir ./output/SiLi.save/ :
     XML data file
     NEW-OLD atomic charge density approx. for the potential

     total cpu time spent up to now is       71.9 secs

     per-process dynamical memory:    54.0 Mb

     Self-consistent Calculation

     iteration #  1     ecut=    80.00 Ry     beta= 0.70
     CG style diagonalization
     c_bands:  1 eigenvalues not converged
     c_bands:  3 eigenvalues not converged
     c_bands:  1 eigenvalues not converged
     c_bands:  5 eigenvalues not converged
     c_bands:  4 eigenvalues not converged
     c_bands:  2 eigenvalues not converged
     c_bands:  2 eigenvalues not converged
     c_bands:  1 eigenvalues not converged
     c_bands:  5 eigenvalues not converged
     c_bands:  5 eigenvalues not converged
     c_bands:  1 eigenvalues not converged
     c_bands:  1 eigenvalues not converged
     c_bands:  1 eigenvalues not converged
     c_bands:  4 eigenvalues not converged
     c_bands:  3 eigenvalues not converged
     c_bands:  2 eigenvalues not converged
     c_bands:  2 eigenvalues not converged
     c_bands:  1 eigenvalues not converged
     c_bands:  5 eigenvalues not converged
     c_bands:  5 eigenvalues not converged
     c_bands:  2 eigenvalues not converged
     c_bands:  5 eigenvalues not converged
     c_bands:  2 eigenvalues not converged
     c_bands:  5 eigenvalues not converged
     c_bands:  1 eigenvalues not converged
     c_bands:  4 eigenvalues not converged
     c_bands:  2 eigenvalues not converged
     c_bands:  1 eigenvalues not converged
     c_bands:  3 eigenvalues not converged
     c_bands:  2 eigenvalues not converged
     c_bands:  3 eigenvalues not converged
     c_bands:  2 eigenvalues not converged
     c_bands:  3 eigenvalues not converged
     c_bands:  2 eigenvalues not converged
     c_bands:  3 eigenvalues not converged
     c_bands:  4 eigenvalues not converged
     ethr =  1.00E-06,  avg # of iterations = 15.0

     total cpu time spent up to now is       94.4 secs

     total energy              =     -95.89523823 Ry
     estimated scf accuracy    <       0.10267136 Ry

     iteration #  2     ecut=    80.00 Ry     beta= 0.70
     CG style diagonalization
     ethr =  2.70E-04,  avg # of iterations =  4.9

     total cpu time spent up to now is      101.8 secs

     total energy              =     -95.68372021 Ry
     estimated scf accuracy    <       3.04172416 Ry

     iteration #  3     ecut=    80.00 Ry     beta= 0.70
     CG style diagonalization
     ethr =  2.70E-04,  avg # of iterations =  4.7

     total cpu time spent up to now is      108.9 secs

     total energy              =     -95.94970813 Ry
     estimated scf accuracy    <       0.06040697 Ry

     iteration #  4     ecut=    80.00 Ry     beta= 0.70
     CG style diagonalization
     ethr =  1.59E-04,  avg # of iterations =  3.4

     total cpu time spent up to now is      114.3 secs

     total energy              =     -95.95912031 Ry
     estimated scf accuracy    <       0.00162721 Ry

     iteration #  5     ecut=    80.00 Ry     beta= 0.70
     CG style diagonalization
     ethr =  4.28E-06,  avg # of iterations =  4.9

     total cpu time spent up to now is      121.8 secs

     total energy              =     -95.96013074 Ry
     estimated scf accuracy    <       0.00014918 Ry

     iteration #  6     ecut=    80.00 Ry     beta= 0.70
     CG style diagonalization
     ethr =  3.93E-07,  avg # of iterations =  3.4

     total cpu time spent up to now is      127.0 secs

     total energy              =     -95.96015558 Ry
     estimated scf accuracy    <       0.00000270 Ry

     iteration #  7     ecut=    80.00 Ry     beta= 0.70
     CG style diagonalization
     ethr =  7.11E-09,  avg # of iterations =  4.7

     total cpu time spent up to now is      134.1 secs

     total energy              =     -95.96015830 Ry
     estimated scf accuracy    <       0.00000126 Ry

     iteration #  8     ecut=    80.00 Ry     beta= 0.70
     CG style diagonalization
     ethr =  3.33E-09,  avg # of iterations =  3.3

     total cpu time spent up to now is      139.2 secs

     total energy              =     -95.96015850 Ry
     estimated scf accuracy    <       0.00000006 Ry

     iteration #  9     ecut=    80.00 Ry     beta= 0.70
     CG style diagonalization
     ethr =  1.56E-10,  avg # of iterations =  3.7

     total cpu time spent up to now is      144.9 secs

     End of self-consistent calculation

          k = 0.0000 0.0000 0.0000 (  8333 PWs)   bands (ev):

   -33.8995 -33.8981  -2.7302  -1.2522  -0.9938   3.5877   3.7721   9.1274
     9.1274   9.3490   9.3490  10.2221  10.2221  10.5906  10.5906  10.8574
    11.3077  11.4751  11.4751  11.8234  12.0814  13.5616  13.5617

          k =-0.3419-0.1974 0.0465 (  8307 PWs)   bands (ev):

   -33.8988 -33.8975  -2.4751  -1.0809  -0.6562   3.5847   4.1882   6.8015
     7.4299   7.8917   8.4863   9.1560   9.8093  10.1374  10.8057  10.8138
    11.3389  11.8581  12.1054  12.3284  12.9427  12.9709  13.5892

          k =-0.6838-0.3948 0.0930 (  8351 PWs)   bands (ev):

   -33.8972 -33.8963  -1.7185  -0.4895   0.2441   3.5997   4.1217   4.9682
     5.5447   6.3948   6.8923   7.4227   8.2699   9.2183  10.1270  10.1573
    10.8360  11.4676  11.9738  12.2718  13.3029  13.9247  15.1807

          k =-1.0257-0.5922 0.1395 (  8372 PWs)   bands (ev):

   -33.8959 -33.8954  -0.5234   0.3266   1.3513   2.2075   2.6677   3.9955
     5.1721   6.3867   6.4423   6.8553   6.8766   8.2347   9.7994   9.8940
    10.1280  10.3600  11.5415  11.7400  13.6855  15.1456  15.3716

          k =-0.3419 0.1974 0.0930 (  8327 PWs)   bands (ev):

   -33.8988 -33.8975  -2.4644  -1.1947  -0.5211   3.3025   4.4893   6.8788
     7.2692   7.8107   8.6925   9.3256   9.8590  10.3180  10.3681  10.3859
    11.5192  11.6840  12.0838  12.2509  12.8343  13.3373  13.7737

          k =-0.6838 0.0000 0.1395 (  8365 PWs)   bands (ev):

   -33.8977 -33.8966  -1.9477  -0.8325   0.1435   3.4161   4.9793   5.2933
     5.5998   6.5268   6.9250   7.7244   9.0002   9.2077  10.2724  10.7251
    11.3986  11.6210  12.1863  12.4477  13.1699  14.0873  14.2267

          k =-1.0257-0.1974 0.1860 (  8379 PWs)   bands (ev):

   -33.8962 -33.8956  -0.9498  -0.0247   1.2364   2.8864   3.7132   4.0913
     4.9550   5.1931   5.8235   7.0142   8.2749   8.3645   8.7016   9.9219
    10.9231  11.7094  12.4418  13.4996  13.8265  14.2112  14.6086

          k = 1.0257 0.9870-0.0930 (  8382 PWs)   bands (ev):

   -33.8955 -33.8951   0.2096   0.4226   1.5816   2.3128   2.6243   3.4088
     4.5678   4.9779   5.8690   7.0310   7.6773   7.8544   8.5530   8.9689
    10.9672  11.4896  12.8014  13.5198  13.9792  14.2877  14.8730

          k = 0.6838 0.7896-0.0465 (  8384 PWs)   bands (ev):

   -33.8962 -33.8956  -0.9976   0.2238   0.9102   2.9718   3.5104   4.4532
     4.9465   5.5036   6.0413   6.3933   7.7213   8.0295   9.0196  10.4209
    11.1486  12.0454  12.8352  13.3159  13.6799  13.8604  14.6355

          k = 0.3419 0.5922 0.0000 (  8374 PWs)   bands (ev):

   -33.8977 -33.8966  -1.9787  -0.5712  -0.1813   4.1821   4.2351   5.2757
     5.6407   6.4339   6.8249   7.9679   8.7200   9.7470   9.8283  11.0735
    11.5124  11.5534  12.1394  12.3981  13.0674  14.2359  14.5599

          k =-0.6838 0.3948 0.1860 (  8350 PWs)   bands (ev):

   -33.8972 -33.8963  -1.6778  -0.7122   0.5556   3.1956   4.3081   4.5865
     6.0405   6.7424   7.1778   7.4825   7.8482   9.1544   9.2630   9.8961
    10.7644  11.9318  12.2637  13.4541  13.4667  14.3826  14.7409

          k =-1.0257 0.1974 0.2324 (  8374 PWs)   bands (ev):

   -33.8962 -33.8956  -0.9217  -0.1254   1.4157   2.9179   3.3553   4.0296
     4.8464   6.0346   6.1707   6.6967   7.2743   7.5821  10.1447  10.5904
    11.0575  11.6483  12.2789  12.9262  12.9661  14.0610  14.6084

          k = 1.0257 1.3818-0.0465 (  8395 PWs)   bands (ev):

   -33.8953 -33.8951   0.2463   0.7658   1.9940   2.2684   3.0019   3.3619
     3.8085   4.3660   5.7036   5.9103   6.8895   8.3776   8.7738   9.7034
    11.5582  12.0721  13.0295  13.9016  14.2102  15.1683  15.3607

          k = 0.6838 1.1844 0.0000 (  8362 PWs)   bands (ev):

   -33.8953 -33.8951   0.1545   0.9878   1.9348   2.3567   2.6885   3.2581
     3.5887   4.8867   5.9288   6.4858   6.9508   7.4661   7.7042  10.6867
    11.6125  12.9838  13.3373  13.6565  14.2362  14.4560  14.9202

          k =-1.0257 0.5922 0.2789 (  8389 PWs)   bands (ev):

   -33.8959 -33.8954  -0.4505   0.1293   1.5361   2.3045   2.5188   4.3991
     4.7500   5.7165   6.1993   7.4491   7.5515   8.4764   8.6694   9.8157
    10.0793  11.2670  12.1554  12.4080  12.9584  13.5313  14.6526

          k = 1.0257 1.7766 0.0000 (  8368 PWs)   bands (ev):

   -33.8955 -33.8951   0.2595   0.4082   1.4770   1.9840   3.2008   3.5611
     4.6045   4.9386   5.6169   6.4858   6.5744   8.8528   9.5073  10.3547
    10.9036  11.1524  11.5683  12.3648  13.3531  13.6460  16.0125

          k = 0.0000-0.0000 0.1395 (  8309 PWs)   bands (ev):

   -33.8995 -33.8981  -2.6982  -1.5625  -0.6203   2.8118   4.6087   9.0891
     9.0891   9.3971   9.3971   9.9436  10.1828  10.1828  10.6972  10.6972
    11.3802  11.3802  11.8188  11.9624  12.2790  13.4842  13.4842

          k =-0.3419-0.1974 0.1860 (  8330 PWs)   bands (ev):

   -33.8988 -33.8975  -2.4222  -1.4358  -0.1960   2.7599   5.0959   6.7426
     7.6385   7.9278   8.4162   8.8110   9.6034   9.9535  10.4356  11.0045
    11.3273  11.9191  12.4080  12.7065  13.0190  13.2248  13.5507

          k =-0.6838-0.3948 0.2324 (  8350 PWs)   bands (ev):

   -33.8972 -33.8963  -1.6480  -0.8165   0.7136   3.0191   4.1058   5.0934
     5.9748   6.3330   6.8934   7.4201   8.7383   8.9981   9.9557  10.1935
    10.7850  11.3743  11.3896  12.0915  13.3150  13.9255  15.5055

          k = 1.3677 0.7896-0.0465 (  8371 PWs)   bands (ev):

   -33.8959 -33.8954  -0.4473   0.1314   1.3919   2.4573   2.9073   3.6544
     4.4876   6.3495   6.9484   7.1674   7.4924   7.7873   9.4951   9.7590
    10.2067  10.5706  11.1288  11.6880  13.5960  15.0667  15.7625

          k = 1.0257 0.5922 0.0000 (  8369 PWs)   bands (ev):

   -33.8959 -33.8954  -0.5505   0.4167   1.3618   2.1243   2.4296   4.4870
     5.6986   5.9563   6.1346   6.3206   7.0126   8.5550   9.2940   9.8295
    10.5638  10.8292  11.4617  12.0386  13.9087  14.5189  14.6783

          k = 0.6838 0.3948 0.0465 (  8356 PWs)   bands (ev):

   -33.8972 -33.8963  -1.7287  -0.4007   0.1373   3.7198   4.1111   4.9430
     5.3115   6.8115   6.9018   7.6062   7.7410   9.3083   9.6005  10.0632
    11.1554  11.5339  12.2659  12.8797  13.6692  13.8054  14.4061

          k =-0.3419 0.1974 0.2324 (  8348 PWs)   bands (ev):

   -33.8988 -33.8975  -2.3907  -1.5506  -0.0176   2.4943   5.4178   6.8600
     7.3001   7.7560   8.9110   9.1237   9.4549  10.0193  10.0862  10.4189
    11.5815  11.6456  11.9884  12.1957  13.3264  13.8978  13.9779

          k =-0.6838-0.0000 0.2789 (  8354 PWs)   bands (ev):

   -33.8977 -33.8966  -1.8560  -1.1623   0.6633   2.6568   5.2725   5.5007
     5.6988   6.8256   7.1598   7.4026   8.6371   9.3520   9.8846  10.9473
    11.3061  11.3964  12.3177  12.6616  13.1054  13.7729  14.1441

          k = 1.3677 1.1844 0.0000 (  8387 PWs)   bands (ev):

   -33.8962 -33.8956  -0.8501  -0.2994   1.6810   2.7757   3.5649   3.9088
     4.7644   5.2797   5.7888   7.5297   8.0555   8.7991   9.2690   9.4814
    10.2621  11.7156  12.1674  13.1287  13.4851  14.5005  14.8226

          k = 1.0257 0.9870 0.0465 (  8376 PWs)   bands (ev):

   -33.8955 -33.8951   0.2235   0.4234   1.5101   2.3327   2.5648   3.7805
     4.3265   5.0590   5.6690   7.0587   7.2964   7.6430   9.2503   9.5377
    10.7871  11.5410  12.2573  12.9372  13.4949  14.7306  15.1891

          k = 0.6838 0.7896 0.0930 (  8378 PWs)   bands (ev):

   -33.8962 -33.8956  -0.9880   0.1517   1.0086   3.0449   3.3159   4.4269
     4.8680   6.0425   6.1118   6.3113   7.3529   7.5181   9.6736  10.6058
    11.2178  12.2136  12.5677  13.0565  13.3654  13.8496  14.4181

          k =-0.6838 0.3948 0.3254 (  8370 PWs)   bands (ev):

   -33.8972 -33.8963  -1.5696  -1.0166   1.0928   2.5442   4.2808   4.6404
     6.6631   6.7176   6.8907   7.9826   8.0656   8.9432   8.9565   9.5596
    10.6452  11.6644  12.7943  13.0393  13.0611  14.4488  14.7271

          k = 1.3677 1.5792 0.0465 (  8382 PWs)   bands (ev):

   -33.8962 -33.8956  -0.8089  -0.3798   1.8863   2.6474   3.4933   3.6812
     4.8143   5.7019   6.1630   6.8436   7.7099   8.2633   9.7851  10.2851
    10.9223  11.3546  12.1918  12.6031  12.8429  14.4197  15.0464

          k = 1.0257 1.3818 0.0930 (  8401 PWs)   bands (ev):

   -33.8953 -33.8951   0.3368   0.6168   2.0435   2.1895   3.2915   3.4274
     3.8067   4.2053   5.4241   5.6006   7.4236   8.2755   9.2393  10.0473
    10.8936  11.2309  13.5564  13.8202  14.4277  15.1668  15.4709

          k = 0.6838 1.1844 0.1395 (  8399 PWs)   bands (ev):

   -33.8953 -33.8951   0.1783   0.9194   1.9526   2.3380   2.7675   3.2877
     3.6598   4.6956   6.0318   6.2362   6.6662   7.8219   8.1561  10.2009
    12.1006  12.4398  13.0047  13.7584  14.2747  14.8195  15.0869

          k = 1.3677-0.7896-0.2324 (  8381 PWs)   bands (ev):

   -33.8959 -33.8954  -0.3468  -0.0486   1.4989   2.5275   2.8241   3.9129
     4.2120   6.2080   6.3693   7.3980   8.1214   8.4695   8.5521   9.4556
    10.1634  10.8802  11.8306  12.1000  13.2972  13.9317  14.8667

          k = 1.0257-0.9870-0.1860 (  8371 PWs)   bands (ev):

   -33.8955 -33.8951   0.2462   0.4160   1.4749   2.0872   2.9161   3.8321
     4.3611   5.0012   5.6571   6.5505   6.8636   8.3415   9.8088   9.9244
    10.7409  11.2992  11.9379  12.4054  13.2636  14.1634  15.6595

          k = 1.0257-0.5922-0.1395 (  8371 PWs)   bands (ev):

   -33.8959 -33.8954  -0.5253   0.3211   1.4721   2.1842   2.3326   4.9994
     5.0532   5.4544   6.2408   6.7594   7.2495   8.6854   8.7913   9.9311
    10.3161  11.5941  11.6153  12.0617  13.7531  13.8188  14.2377

          k = 0.0000-0.0000 0.2789 (  8350 PWs)   bands (ev):

   -33.8995 -33.8981  -2.6028  -1.9094  -0.0864   2.0183   5.5862   8.8210
     9.0331   9.0331   9.4649   9.4649  10.1822  10.1822  10.8169  10.8169
    11.2649  11.2649  11.8609  11.9940  12.9874  12.9874  13.0523

          k =-0.3419-0.1974 0.3254 (  8355 PWs)   bands (ev):

   -33.8988 -33.8975  -2.3080  -1.7592   0.3559   1.9949   6.0119   6.7682
     7.7358   7.8654   8.4948   8.5437   8.8166  10.1009  10.2783  10.6357
    11.5982  11.8649  12.3281  13.1452  13.3453  13.4086  13.5930

          k = 1.7096 0.9870 0.0465 (  8358 PWs)   bands (ev):

   -33.8972 -33.8963  -1.5242  -1.1009   1.2678   2.3558   4.0997   5.1504
     5.8771   6.8131   7.1729   7.6007   8.6017   9.1004   9.3343   9.6257
    10.9438  11.4613  11.5807  11.9721  13.6604  13.8452  15.4426

          k = 1.3677 0.7896 0.0930 (  8367 PWs)   bands (ev):

   -33.8959 -33.8954  -0.3443  -0.0493   1.4408   2.6915   2.9274   3.7082
     4.0012   6.2649   7.0324   7.1646   7.8828   8.1287   8.9519   9.5915
    10.2079  10.7300  11.3086  11.6902  13.7991  14.1960  15.4964

          k =-0.3419 0.1974 0.3719 (  8344 PWs)   bands (ev):

   -33.8988 -33.8975  -2.2579  -1.8517   0.5497   1.7579   6.3356   6.7941
     7.5052   7.7479   8.2867   8.9551   9.0282   9.9556  10.1221  10.4699
    11.6670  11.6987  11.9851  12.3147  13.6539  13.9677  14.2935

          k = 1.7096 1.3818 0.0930 (  8355 PWs)   bands (ev):

   -33.8977 -33.8966  -1.7174  -1.4244   1.2419   1.9602   5.3172   5.4145
     6.1013   6.9262   7.3955   7.6628   8.1832   8.7182  10.2662  10.8308
    11.2344  11.3609  12.3821  12.9188  13.0884  13.6771  13.9811

          k = 1.3677 1.1844 0.1395 (  8376 PWs)   bands (ev):

   -33.8962 -33.8956  -0.7429  -0.4816   2.0831   2.5286   3.4057   3.7923
     4.7689   5.4182   5.9530   7.1935   8.2241   8.9249   9.1851   9.8651
    10.1690  11.7342  12.1548  12.5636  13.1165  14.5166  15.1630

          k = 1.7096-0.9870-0.1860 (  8371 PWs)   bands (ev):

   -33.8972 -33.8963  -1.4432  -1.2233   1.6727   1.9147   4.1578   4.9125
     6.1967   6.7433   7.6274   7.8422   8.3189   8.6743   9.1696   9.3482
    10.7034  11.6393  12.1619  12.3422  13.5777  14.1300  14.9282

          k =-0.0000 0.0000 0.4184 (  8341 PWs)   bands (ev):

   -33.8995 -33.8981  -2.4517  -2.1885   0.4770   1.3263   6.6103   7.7166
     9.0008   9.0008   9.4941   9.4941  10.2680  10.2680  10.7092  10.7092
    11.3731  11.3731  11.9097  11.9590  12.6152  12.6152  13.4713

          k = 2.0515 1.1844 0.1395 (  8337 PWs)   bands (ev):

   -33.8988 -33.8975  -2.1611  -1.9909   0.8855   1.3802   6.5558   7.1229
     7.5030   7.7885   7.8708   8.7676   8.7731  10.1093  10.2306  10.3849
    11.6373  11.9827  11.9873  12.7076  13.7045  13.8006  13.9593

     the Fermi energy is    12.4353 ev

!    total energy              =     -95.96015851 Ry
     estimated scf accuracy    <          8.6E-09 Ry
     smearing contrib. (-TS)   =       0.00081672 Ry
     internal energy E=F+TS    =     -95.96097524 Ry

     The total energy is F=E-TS. E is the sum of the following terms:
     one-electron contribution =      26.32884399 Ry
     hartree contribution      =       8.20608894 Ry
     xc contribution           =     -33.30941860 Ry
     ewald contribution        =     -97.18648957 Ry

     convergence has been achieved in   9 iterations

     Forces acting on atoms (cartesian axes, Ry/au):

     atom    1 type  1   force =    -0.00000000   -0.00000000   -0.00345304
     atom    2 type  1   force =     0.00000000    0.00000000    0.00345304
     atom    3 type  1   force =    -0.00000000   -0.00000000   -0.03710980
     atom    4 type  1   force =    -0.00000000    0.00000000    0.03710980
     atom    5 type  1   force =     0.00000000   -0.00000000    0.03012148
     atom    6 type  1   force =     0.00000000    0.00000000   -0.03012148
     atom    7 type  1   force =    -0.00000000   -0.00000000    0.05744363
     atom    8 type  1   force =    -0.00000000   -0.00000000   -0.05744363
     atom    9 type  2   force =    -0.00000000   -0.00000000   -0.03454922
     atom   10 type  2   force =     0.00000000    0.00000000    0.03454922

     Total force =     0.116531     Total SCF correction =     0.000233


     Computing stress (Cartesian axis) and pressure

          total   stress  (Ry/bohr**3)                   (kbar)     P=      415.44
   0.00279720   0.00000000  -0.00000000          411.48        0.00       -0.00
   0.00000000   0.00279720   0.00000000            0.00      411.48        0.00
   0.00000000   0.00000000   0.00287792            0.00        0.00      423.36

     Energy error            =      1.2E-01 Ry
     Gradient error          =      5.7E-02 Ry/Bohr
     Cell gradient error     =      8.9E+01 kbar

     number of scf cycles    =   2
     number of bfgs steps    =   1

     enthalpy           old  =     -93.3270425741 Ry
     enthalpy           new  =     -93.4450778349 Ry

     CASE: enthalpy          _new < enthalpy          _old

     new trust radius        =       0.0958755073 bohr
ibrav =      5
 celldm(1) =     17.60547414
 celldm(4) =      0.92250295
Input lattice vectors:
     0.20575544    -0.11879296     1.01789898
     0.00000000     0.23758591     1.01789898
    -0.20575544    -0.11879296     1.01789898
New lattice vectors in INITIAL alat:
     0.20575544    -0.11879296     1.01789898
     0.00000000     0.23758591     1.01789898
    -0.20575544    -0.11879296     1.01789898
New lattice vectors in NEW alat (for information only):
     0.19684645    -0.11364935     0.97382509
     0.00000000     0.22729871     0.97382509
    -0.19684645    -0.11364935     0.97382509
Discrepancy in bohr =     0.000000    0.000000    0.000000
     new conv_thr            =       0.0000000100 Ry

     new unit-cell volume =    713.29627 a.u.^3 (   105.69960 Ang^3 )
     density =      3.74787 g/cm^3

CELL_PARAMETERS (alat= 16.84317676)
   0.205755435  -0.118792956   1.017898975
   0.000000000   0.237585912   1.017898975
  -0.205755435  -0.118792956   1.017898975

ATOMIC_POSITIONS (crystal)
Si               0.0654520299        0.0654520299        0.0654520299
Si               0.9345479701        0.9345479701        0.9345479701
Si               0.1879162448        0.1879162448        0.1879162448
Si               0.8120837552        0.8120837552        0.8120837552
Si               0.3517660435        0.3517660435        0.3517660435
Si               0.6482339565        0.6482339565        0.6482339565
Si               0.4402641722        0.4402641722        0.4402641722
Si               0.5597358278        0.5597358278        0.5597358278
Li               0.2731873928        0.2731873928        0.2731873928
Li               0.7268126072        0.7268126072        0.7268126072



     Writing config-only to output data dir ./output/SiLi.save/ :
     XML data file
     NEW-OLD atomic charge density approx. for the potential

     total cpu time spent up to now is      147.8 secs

     per-process dynamical memory:    54.0 Mb

     Self-consistent Calculation

     iteration #  1     ecut=    80.00 Ry     beta= 0.70
     CG style diagonalization
     c_bands:  1 eigenvalues not converged
     c_bands:  1 eigenvalues not converged
     c_bands:  1 eigenvalues not converged
     c_bands:  1 eigenvalues not converged
     c_bands:  2 eigenvalues not converged
     c_bands:  1 eigenvalues not converged
     c_bands:  2 eigenvalues not converged
     c_bands:  1 eigenvalues not converged
     c_bands:  1 eigenvalues not converged
     c_bands:  1 eigenvalues not converged
     c_bands:  1 eigenvalues not converged
     c_bands:  1 eigenvalues not converged
     c_bands:  1 eigenvalues not converged
     c_bands:  2 eigenvalues not converged
     ethr =  1.00E-06,  avg # of iterations = 11.4

     total cpu time spent up to now is      165.2 secs

     total energy              =     -95.88931716 Ry
     estimated scf accuracy    <       0.00566138 Ry

     iteration #  2     ecut=    80.00 Ry     beta= 0.70
     CG style diagonalization
     ethr =  1.49E-05,  avg # of iterations =  4.8

     total cpu time spent up to now is      172.6 secs

     total energy              =     -95.87215524 Ry
     estimated scf accuracy    <       0.27864096 Ry

     iteration #  3     ecut=    80.00 Ry     beta= 0.70
     CG style diagonalization
     ethr =  1.49E-05,  avg # of iterations =  4.6

     total cpu time spent up to now is      179.6 secs

     total energy              =     -95.89325267 Ry
     estimated scf accuracy    <       0.00074394 Ry

     iteration #  4     ecut=    80.00 Ry     beta= 0.70
     CG style diagonalization
     c_bands:  1 eigenvalues not converged
     ethr =  1.96E-06,  avg # of iterations =  4.1

     total cpu time spent up to now is      185.8 secs

     total energy              =     -95.89344673 Ry
     estimated scf accuracy    <       0.00004126 Ry

     iteration #  5     ecut=    80.00 Ry     beta= 0.70
     CG style diagonalization
     ethr =  1.09E-07,  avg # of iterations =  3.9

     total cpu time spent up to now is      191.7 secs

     total energy              =     -95.89346028 Ry
     estimated scf accuracy    <       0.00000083 Ry

     iteration #  6     ecut=    80.00 Ry     beta= 0.70
     CG style diagonalization
     ethr =  2.19E-09,  avg # of iterations =  4.6

     total cpu time spent up to now is      198.3 secs

     total energy              =     -95.89346090 Ry
     estimated scf accuracy    <       0.00000008 Ry

     iteration #  7     ecut=    80.00 Ry     beta= 0.70
     CG style diagonalization
     ethr =  2.15E-10,  avg # of iterations =  3.5

     total cpu time spent up to now is      203.4 secs

     End of self-consistent calculation

          k = 0.0000 0.0000 0.0000 (  8333 PWs)   bands (ev):

   -33.4112 -33.4098  -2.4778  -0.8820  -0.8418   3.9132   4.0851   9.7570
     9.7570   9.9339   9.9339  10.7131  10.7131  11.0879  11.0879  11.3830
    11.7024  12.0366  12.0366  12.7005  13.0176  13.9969  13.9969

          k =-0.3472-0.2004 0.0468 (  8307 PWs)   bands (ev):

   -33.4104 -33.4091  -2.2123  -0.7586  -0.4426   3.9112   4.5233   7.3333
     7.9528   8.4474   8.9713   9.6408  10.4149  10.6696  11.2907  11.3315
    11.9651  12.2634  12.6107  12.8512  13.4849  13.5733  14.3729

          k =-0.6943-0.4009 0.0936 (  8351 PWs)   bands (ev):

   -33.4085 -33.4075  -1.4244  -0.1518   0.4849   3.9898   4.5582   5.3474
     5.9385   6.8102   7.4214   7.8602   8.8000   9.7343  10.5924  10.6932
    11.3063  11.9550  12.3563  12.9031  13.8825  14.5635  15.2411

          k =-1.0415-0.6013 0.1403 (  8372 PWs)   bands (ev):

   -33.4069 -33.4064  -0.1733   0.7275   1.6189   2.5294   3.0804   4.3436
     5.5341   6.8950   6.9057   7.2831   7.2907   8.7301  10.2921  10.3791
    10.5924  10.6784  12.1163  12.3568  14.1560  15.7263  15.9567

          k =-0.3472 0.2004 0.0936 (  8327 PWs)   bands (ev):

   -33.4104 -33.4091  -2.2013  -0.8986  -0.2810   3.6240   4.8296   7.4405
     7.7497   8.3470   9.2149   9.8695  10.4100  10.8155  10.8341  10.8984
    12.1609  12.2143  12.6188  12.7037  13.4078  13.8367  14.6043

          k =-0.6943 0.0000 0.1403 (  8365 PWs)   bands (ev):

   -33.4090 -33.4079  -1.6631  -0.5255   0.4007   3.7568   5.3800   5.7879
     6.1226   6.9056   7.3300   8.1940   9.4426   9.7078  10.8088  11.2761
    11.9860  12.1988  12.7516  12.9733  13.6970  14.6533  14.7984

          k =-1.0415-0.2004 0.1871 (  8379 PWs)   bands (ev):

   -33.4073 -33.4066  -0.6210   0.3206   1.5181   3.2861   4.1623   4.5320
     5.2755   5.5708   6.2735   7.3438   8.7441   8.8389   9.1209  10.4599
    11.4939  12.2012  12.9001  14.1622  14.4585  14.8234  15.1362

          k = 1.0415 1.0021-0.0936 (  8382 PWs)   bands (ev):

   -33.4064 -33.4061   0.6048   0.8322   1.8861   2.6404   2.9757   3.7649
     5.0363   5.3789   6.1730   7.4984   8.0643   8.2378   8.9705   9.5023
    11.5890  11.9578  13.3037  14.0783  14.5394  14.8211  15.4317

          k = 0.6943 0.8017-0.0468 (  8384 PWs)   bands (ev):

   -33.4073 -33.4066  -0.6730   0.6317   1.1270   3.3849   3.9403   4.9175
     5.3505   5.8232   6.4618   6.7125   8.1956   8.4508   9.4855  10.9852
    11.7813  12.4796  13.3497  13.9275  14.1663  14.5095  15.1746

          k = 0.3472 0.6013 0.0000 (  8374 PWs)   bands (ev):

   -33.4090 -33.4079  -1.6957  -0.1795  -0.0089   4.5418   4.6034   5.7737
     6.1734   6.8147   7.2196   8.4685   9.1434  10.2645  10.3504  11.7012
    12.0732  12.1179  12.6641  12.8966  13.6160  14.8328  15.0752

          k =-0.6943 0.4009 0.1871 (  8350 PWs)   bands (ev):

   -33.4085 -33.4075  -1.3813  -0.4039   0.8257   3.5654   4.6995   5.0503
     6.4039   7.2379   7.6322   7.9556   8.3610   9.5349   9.7868  10.3969
    11.3203  12.4660  12.7724  13.9744  14.0195  14.8666  15.4023

          k =-1.0415 0.2004 0.2339 (  8374 PWs)   bands (ev):

   -33.4073 -33.4066  -0.5905   0.2089   1.7060   3.3520   3.7297   4.4244
     5.2985   6.3924   6.6261   7.0440   7.6376   8.0533  10.6850  11.1475
    11.5580  12.1518  12.8158  13.4245  13.5507  14.6288  15.2016

          k = 1.0415 1.4030-0.0468 (  8395 PWs)   bands (ev):

   -33.4062 -33.4060   0.6395   1.1728   2.3535   2.6630   3.3346   3.7243
     4.2037   4.7186   6.0517   6.2614   7.2649   8.8143   9.2184  10.1851
    12.0488  12.5755  13.5755  14.5976  14.8584  15.7231  16.0134

          k = 0.6943 1.2026 0.0000 (  8362 PWs)   bands (ev):

   -33.4062 -33.4060   0.5349   1.4566   2.2637   2.6638   3.0890   3.6312
     3.9376   5.3223   6.2237   6.8392   7.2599   7.9376   8.1692  11.2172
    12.0674  13.5231  14.0433  14.2126  14.8054  15.0624  15.4803

          k =-1.0415 0.6013 0.2807 (  8389 PWs)   bands (ev):

   -33.4069 -33.4064  -0.0938   0.4942   1.8524   2.6017   2.9200   4.7705
     5.1186   6.1286   6.6759   7.9770   8.0028   8.8074   9.1957  10.3372
    10.5719  11.7052  12.6739  12.8944  13.4479  14.0144  15.2486

          k = 1.0415 1.8039 0.0000 (  8368 PWs)   bands (ev):

   -33.4064 -33.4061   0.6340   0.8599   1.7483   2.3090   3.5919   3.9268
     4.9882   5.3774   5.9790   6.8819   6.9303   9.3398  10.0197  10.8666
    11.3678  11.6839  12.0197  12.8446  13.9579  14.1544  16.6466

          k = 0.0000-0.0000 0.1403 (  8309 PWs)   bands (ev):

   -33.4112 -33.4098  -2.4448  -1.2898  -0.3702   3.1189   4.9413   9.7032
     9.7032  10.0024  10.0024  10.3786  10.6598  10.6598  11.2207  11.2207
    11.9143  11.9143  12.5638  12.7452  13.0672  13.9435  13.9435

          k =-0.3472-0.2004 0.1871 (  8330 PWs)   bands (ev):

   -33.4104 -33.4091  -2.1574  -1.1598   0.0647   3.0715   5.4516   7.2594
     8.2029   8.4979   8.8827   9.2559  10.0696  10.5832  10.9288  11.5308
    11.8840  12.4327  12.9492  13.2455  13.6013  13.8340  14.2828

          k =-0.6943-0.4009 0.2339 (  8350 PWs)   bands (ev):

   -33.4085 -33.4075  -1.3490  -0.5179   0.9938   3.3685   4.5384   5.5604
     6.3400   6.7369   7.4226   7.8578   9.3045   9.5115  10.4726  10.6229
    11.2619  11.7687  11.8213  12.7120  13.9977  14.5757  15.9457

          k = 1.3886 0.8017-0.0468 (  8371 PWs)   bands (ev):

   -33.4069 -33.4064  -0.0871   0.4902   1.7082   2.7679   3.3482   3.9671
     4.8457   6.8539   7.3807   7.6457   8.0015   8.2020   9.9025  10.2697
    10.5775  11.0243  11.6546  12.2642  14.2134  15.6155  16.2884

          k = 1.0415 0.6013 0.0000 (  8369 PWs)   bands (ev):

   -33.4069 -33.4064  -0.2039   0.8492   1.5843   2.4554   2.8340   4.8585
     6.0508   6.4073   6.5389   6.8173   7.4563   9.0704   9.6977  10.4033
    10.9510  11.2831  12.0211  12.6244  14.3425  15.0332  15.2225

          k = 0.6943 0.4009 0.0468 (  8356 PWs)   bands (ev):

   -33.4085 -33.4075  -1.4352  -0.0328   0.3477   4.1466   4.5013   5.3648
     5.6600   7.3182   7.3365   8.0778   8.2401   9.8268  10.0175  10.6140
    11.7084  12.0175  12.7715  13.3979  14.1479  14.4149  15.0180

          k =-0.3472 0.2004 0.2339 (  8348 PWs)   bands (ev):

   -33.4104 -33.4091  -2.1245  -1.2803   0.2491   2.8016   5.7782   7.4210
     7.7793   8.2840   9.4812   9.6343   9.9175  10.4214  10.6272  10.9736
    12.1548  12.2857  12.5380  12.7029  13.9382  14.4732  14.7525

          k =-0.6943-0.0000 0.2807 (  8354 PWs)   bands (ev):

   -33.4090 -33.4079  -1.5652  -0.8804   0.9454   2.9794   5.7650   6.0129
     6.1404   7.2199   7.5970   7.8039   9.0973   9.8094  10.3794  11.5545
    11.8762  11.9969  12.8900  13.1810  13.6343  14.3307  14.7871

          k = 1.3886 1.2026 0.0000 (  8387 PWs)   bands (ev):

   -33.4073 -33.4066  -0.5083   0.0123   1.9985   3.1573   3.9418   4.4116
     5.0746   5.6628   6.2552   7.8713   8.5073   9.2678   9.7070  10.0101
    10.7507  12.2728  12.6215  13.7304  14.1370  15.0914  15.4507

          k = 1.0415 1.0021 0.0468 (  8376 PWs)   bands (ev):

   -33.4064 -33.4061   0.6126   0.8472   1.8009   2.6588   2.9196   4.1579
     4.7511   5.4515   6.0508   7.3971   7.6998   8.1114   9.6983  10.0677
    11.3255  12.0597  12.7153  13.4574  14.0927  15.3754  15.6618

          k = 0.6943 0.8017 0.0936 (  8378 PWs)   bands (ev):

   -33.4073 -33.4066  -0.6628   0.5333   1.2509   3.4911   3.6983   4.8438
     5.3287   6.3927   6.4849   6.6484   7.8365   7.9232  10.1606  11.1988
    11.7933  12.6975  13.1654  13.5266  13.8721  14.4672  14.9285

          k =-0.6943 0.4009 0.3275 (  8370 PWs)   bands (ev):

   -33.4085 -33.4075  -1.2629  -0.7332   1.3854   2.8812   4.6864   5.1128
     7.0499   7.2098   7.3428   8.5347   8.5435   9.2982   9.4040  10.0924
    11.1410  12.2478  13.3586  13.5054  13.5708  15.1210  15.3525

          k = 1.3886 1.6034 0.0468 (  8382 PWs)   bands (ev):

   -33.4073 -33.4066  -0.4588  -0.0792   2.2071   3.0382   3.8386   4.1297
     5.2398   6.0671   6.6589   7.1886   8.1002   8.7060  10.2783  10.8346
    11.4222  11.8532  12.6477  13.1453  13.5064  15.0431  15.6431

          k = 1.0415 1.4030 0.0936 (  8401 PWs)   bands (ev):

   -33.4062 -33.4060   0.7567   0.9821   2.4015   2.6043   3.6406   3.7797
     4.2200   4.5220   5.7882   5.9421   7.7931   8.7200   9.7201  10.5121
    11.3506  11.7119  14.1707  14.4959  15.0620  15.7553  16.1136

          k = 0.6943 1.2026 0.1403 (  8399 PWs)   bands (ev):

   -33.4062 -33.4060   0.5615   1.3653   2.2970   2.6850   3.1304   3.6577
     4.0214   5.0989   6.3329   6.6190   7.0156   8.2752   8.5914  10.6985
    12.6142  12.9343  13.5779  14.4207  14.9620  15.3622  15.6072

          k = 1.3886-0.8017-0.2339 (  8381 PWs)   bands (ev):

   -33.4069 -33.4064   0.0372   0.2745   1.8380   2.8497   3.2015   4.2809
     4.5602   6.6855   6.8047   7.9105   8.6245   8.8977   8.9826   9.9257
    10.5859  11.3475  12.3620  12.5822  13.7903  14.5643  15.3551

          k = 1.0415-1.0021-0.1871 (  8371 PWs)   bands (ev):

   -33.4064 -33.4061   0.6262   0.8584   1.7520   2.4129   3.2825   4.2308
     4.7444   5.3973   6.0734   6.8772   7.2662   8.8097  10.3285  10.4523
    11.1761  11.8405  12.4005  12.8852  13.8772  14.6873  16.2685

          k = 1.0415-0.6013-0.1403 (  8371 PWs)   bands (ev):

   -33.4069 -33.4064  -0.1771   0.7249   1.7298   2.4896   2.7504   5.3627
     5.4663   5.8361   6.7228   7.1833   7.7302   9.1671   9.2088  10.4786
    10.8273  12.0443  12.0610  12.6122  14.2269  14.3343  14.7730

          k = 0.0000-0.0000 0.2807 (  8350 PWs)   bands (ev):

   -33.4112 -33.4098  -2.3460  -1.6519   0.1801   2.3129   5.9354   9.2228
     9.6354   9.6354  10.0847  10.0847  10.6531  10.6531  11.4122  11.4122
    11.7189  11.7189  12.7366  12.8973  13.4597  13.4597  13.6784

          k =-0.3472-0.2004 0.3275 (  8355 PWs)   bands (ev):

   -33.4104 -33.4091  -2.0367  -1.4991   0.6326   2.2929   6.4046   7.2658
     8.3153   8.4132   8.9761   9.0404   9.1774  10.6866  10.8370  11.1291
    12.1417  12.4417  12.9532  13.6930  13.9379  13.9923  14.2556

          k = 1.7358 1.0021 0.0468 (  8358 PWs)   bands (ev):

   -33.4085 -33.4075  -1.2096  -0.8280   1.5686   2.6806   4.5263   5.6735
     6.2127   7.3196   7.6032   8.0727   9.0703   9.6937   9.8046  10.0394
    11.3322  11.9511  12.0852  12.5424  14.3699  14.4899  15.9555

          k = 1.3886 0.8017 0.0936 (  8367 PWs)   bands (ev):

   -33.4069 -33.4064   0.0445   0.2678   1.7778   3.0073   3.3375   4.0509
     4.3458   6.7504   7.5018   7.6322   8.3794   8.6099   9.3379  10.0549
    10.5923  11.2247  11.7741  12.2466  14.4945  14.7116  15.9329

          k =-0.3472 0.2004 0.3743 (  8344 PWs)   bands (ev):

   -33.4104 -33.4091  -1.9819  -1.5978   0.8312   2.0513   6.7334   7.3250
     8.0077   8.2748   8.6961   9.5270   9.5400  10.3456  10.6319  11.0938
    12.2624  12.2669  12.5805  12.8407  14.3925  14.8340  14.8394

          k = 1.7358 1.4030 0.0936 (  8355 PWs)   bands (ev):

   -33.4090 -33.4079  -1.4027  -1.1725   1.5422   2.2648   5.8184   5.9099
     6.5713   7.4327   7.7907   7.9880   8.5832   9.1988  10.7729  11.3762
    11.8813  11.9786  12.9432  13.4352  13.5882  14.2724  14.5961

          k = 1.3886 1.2026 0.1403 (  8376 PWs)   bands (ev):

   -33.4073 -33.4066  -0.3556  -0.2214   2.4305   2.8803   3.7661   4.2689
     5.1437   5.7896   6.4301   7.5658   8.6321   9.4219   9.5947  10.3961
    10.6564  12.2599  12.6185  13.1318  13.7788  15.1396  15.7970

          k = 1.7358-1.0021-0.1871 (  8371 PWs)   bands (ev):

   -33.4085 -33.4075  -1.0862  -0.9946   1.9883   2.2245   4.5787   5.3952
     6.5862   7.2386   8.1301   8.3551   8.6823   9.1557   9.5486   9.9326
    11.1248  12.2611  12.6746  12.7947  14.1740  14.8420  15.4887

          k =-0.0000 0.0000 0.4210 (  8341 PWs)   bands (ev):

   -33.4112 -33.4098  -2.1819  -1.9477   0.7572   1.6073   6.9828   8.0887
     9.5987   9.5987  10.1092  10.1092  10.7534  10.7534  11.2909  11.2909
    11.8370  11.8370  12.7957  12.8668  13.0776  13.0776  14.1591

          k = 2.0829 1.2026 0.1403 (  8337 PWs)   bands (ev):

   -33.4104 -33.4091  -1.8509  -1.7725   1.1795   1.6612   7.0538   7.5986
     7.8706   8.3210   8.4090   9.2074   9.3035  10.6330  10.6750  11.0110
    12.2012  12.5798  12.5920  13.2513  14.3856  14.4524  14.6840

     the Fermi energy is    12.9619 ev

!    total energy              =     -95.89346092 Ry
     estimated scf accuracy    <          3.3E-09 Ry
     smearing contrib. (-TS)   =       0.00112349 Ry
     internal energy E=F+TS    =     -95.89458441 Ry

     The total energy is F=E-TS. E is the sum of the following terms:
     one-electron contribution =      28.78583359 Ry
     hartree contribution      =       7.73608837 Ry
     xc contribution           =     -33.54181685 Ry
     ewald contribution        =     -98.87468952 Ry

     convergence has been achieved in   7 iterations

     Forces acting on atoms (cartesian axes, Ry/au):

     atom    1 type  1   force =     0.00000000    0.00000000   -0.00431120
     atom    2 type  1   force =    -0.00000000   -0.00000000    0.00431120
     atom    3 type  1   force =     0.00000000    0.00000000   -0.03541212
     atom    4 type  1   force =    -0.00000000   -0.00000000    0.03541212
     atom    5 type  1   force =     0.00000000   -0.00000000    0.03064175
     atom    6 type  1   force =    -0.00000000   -0.00000000   -0.03064175
     atom    7 type  1   force =     0.00000000   -0.00000000    0.04316718
     atom    8 type  1   force =     0.00000000    0.00000000   -0.04316718
     atom    9 type  2   force =     0.00000000   -0.00000000   -0.03060728
     atom   10 type  2   force =     0.00000000    0.00000000    0.03060728

     Total force =     0.100117     Total SCF correction =     0.000059


     Computing stress (Cartesian axis) and pressure

          total   stress  (Ry/bohr**3)                   (kbar)     P=      498.69
   0.00347777  -0.00000000   0.00000000          511.60       -0.00        0.00
   0.00000000   0.00347777   0.00000000            0.00      511.60        0.00
  -0.00000000   0.00000000   0.00321456           -0.00        0.00      472.88

     Energy error            =      2.4E-02 Ry
     Gradient error          =      4.3E-02 Ry/Bohr
     Cell gradient error     =      2.7E+01 kbar

     number of scf cycles    =   3
     number of bfgs steps    =   2

     enthalpy           old  =     -93.4450778349 Ry
     enthalpy           new  =     -93.4690161764 Ry

     CASE: enthalpy          _new < enthalpy          _old

     new trust radius        =       0.1635441868 bohr
ibrav =      5
 celldm(1) =     17.47377730
 celldm(4) =      0.92230106
Input lattice vectors:
     0.20448211    -0.11805780     1.01021294
    -0.00000000     0.23611561     1.01021294
    -0.20448211    -0.11805780     1.01021294
New lattice vectors in INITIAL alat:
     0.20448211    -0.11805780     1.01021294
     0.00000000     0.23611561     1.01021294
    -0.20448211    -0.11805780     1.01021294
New lattice vectors in NEW alat (for information only):
     0.19710268    -0.11379729     0.97375598
     0.00000000     0.22759457     0.97375598
    -0.19710268    -0.11379729     0.97375598
Discrepancy in bohr =     0.000000    0.000000    0.000000
     new conv_thr            =       0.0000000086 Ry

     new unit-cell volume =    699.17553 a.u.^3 (   103.60712 Ang^3 )
     density =      3.82356 g/cm^3

CELL_PARAMETERS (alat= 16.84317676)
   0.204482114  -0.118057803   1.010212943
   0.000000000   0.236115607   1.010212943
  -0.204482114  -0.118057803   1.010212943

ATOMIC_POSITIONS (crystal)
Si               0.0652609123        0.0652609123        0.0652609123
Si               0.9347390877        0.9347390877        0.9347390877
Si               0.1859427010        0.1859427010        0.1859427010
Si               0.8140572990        0.8140572990        0.8140572990
Si               0.3527508565        0.3527508565        0.3527508565
Si               0.6472491435        0.6472491435        0.6472491435
Si               0.4434438651        0.4434438651        0.4434438651
Si               0.5565561349        0.5565561349        0.5565561349
Li               0.2715478008        0.2715478008        0.2715478008
Li               0.7284521992        0.7284521992        0.7284521992



     Writing config-only to output data dir ./output/SiLi.save/ :
     XML data file
     NEW-OLD atomic charge density approx. for the potential

     total cpu time spent up to now is      206.4 secs

     per-process dynamical memory:    54.2 Mb

     Self-consistent Calculation

     iteration #  1     ecut=    80.00 Ry     beta= 0.70
     CG style diagonalization
     c_bands:  1 eigenvalues not converged
     c_bands:  2 eigenvalues not converged
     c_bands:  4 eigenvalues not converged
     c_bands:  2 eigenvalues not converged
     c_bands:  1 eigenvalues not converged
     c_bands:  2 eigenvalues not converged
     c_bands:  2 eigenvalues not converged
     c_bands:  1 eigenvalues not converged
     c_bands:  1 eigenvalues not converged
     c_bands:  2 eigenvalues not converged
     c_bands:  3 eigenvalues not converged
     c_bands:  2 eigenvalues not converged
     c_bands:  2 eigenvalues not converged
     c_bands:  1 eigenvalues not converged
     c_bands:  3 eigenvalues not converged
     c_bands:  1 eigenvalues not converged
     c_bands:  4 eigenvalues not converged
     c_bands:  2 eigenvalues not converged
     c_bands:  1 eigenvalues not converged
     c_bands:  1 eigenvalues not converged
     c_bands:  2 eigenvalues not converged
     c_bands:  1 eigenvalues not converged
     c_bands:  3 eigenvalues not converged
     c_bands:  1 eigenvalues not converged
     c_bands:  1 eigenvalues not converged
     c_bands:  1 eigenvalues not converged
     c_bands:  2 eigenvalues not converged
     c_bands:  1 eigenvalues not converged
     c_bands:  1 eigenvalues not converged
     c_bands:  2 eigenvalues not converged
     ethr =  1.00E-06,  avg # of iterations = 13.1

     total cpu time spent up to now is      226.2 secs

     total energy              =     -95.84921298 Ry
     estimated scf accuracy    <       0.02293688 Ry

     iteration #  2     ecut=    80.00 Ry     beta= 0.70
     CG style diagonalization
     ethr =  6.04E-05,  avg # of iterations =  4.8

     total cpu time spent up to now is      233.5 secs

     total energy              =     -95.77981830 Ry
     estimated scf accuracy    <       1.09365629 Ry

     iteration #  3     ecut=    80.00 Ry     beta= 0.70
     CG style diagonalization
     ethr =  6.04E-05,  avg # of iterations =  4.7

     total cpu time spent up to now is      240.5 secs

     total energy              =     -95.86588059 Ry
     estimated scf accuracy    <       0.00212939 Ry

     iteration #  4     ecut=    80.00 Ry     beta= 0.70
     CG style diagonalization
     ethr =  5.60E-06,  avg # of iterations =  4.2

     total cpu time spent up to now is      247.1 secs

     total energy              =     -95.86652406 Ry
     estimated scf accuracy    <       0.00013574 Ry

     iteration #  5     ecut=    80.00 Ry     beta= 0.70
     CG style diagonalization
     ethr =  3.57E-07,  avg # of iterations =  3.8

     total cpu time spent up to now is      252.9 secs

     total energy              =     -95.86656130 Ry
     estimated scf accuracy    <       0.00000527 Ry

     iteration #  6     ecut=    80.00 Ry     beta= 0.70
     CG style diagonalization
     ethr =  1.39E-08,  avg # of iterations =  4.2

     total cpu time spent up to now is      259.3 secs

     total energy              =     -95.86656383 Ry
     estimated scf accuracy    <       0.00000051 Ry

     iteration #  7     ecut=    80.00 Ry     beta= 0.70
     CG style diagonalization
     ethr =  1.34E-09,  avg # of iterations =  3.6

     total cpu time spent up to now is      264.8 secs

     total energy              =     -95.86656392 Ry
     estimated scf accuracy    <       0.00000003 Ry

     iteration #  8     ecut=    80.00 Ry     beta= 0.70
     CG style diagonalization
     ethr =  6.75E-11,  avg # of iterations =  4.1

     total cpu time spent up to now is      270.9 secs

     End of self-consistent calculation

          k = 0.0000 0.0000 0.0000 (  8333 PWs)   bands (ev):

   -33.0861 -33.0849  -2.3803  -0.8049  -0.5390   4.1959   4.3002  10.2252
    10.2252  10.2351  10.2351  10.8514  10.8514  11.3307  11.3307  11.8653
    12.0223  12.4051  12.4051  13.1044  13.5442  14.1212  14.1212

          k =-0.3493-0.2017 0.0471 (  8307 PWs)   bands (ev):

   -33.0853 -33.0841  -2.1055  -0.6016  -0.2177   4.1664   4.7798   7.6218
     8.2382   8.8043   9.1966   9.8486  10.7629  10.9580  11.4871  11.7377
    12.4225  12.5568  12.7724  13.1680  13.8011  13.9165  14.7774

          k =-0.6986-0.4034 0.0943 (  8351 PWs)   bands (ev):

   -33.0832 -33.0824  -1.2890   0.0540   0.6671   4.2395   4.8772   5.4894
     6.2136   7.0421   7.7871   8.0384   9.1587   9.8957  10.7581  11.1247
    11.6232  12.1885  12.6020  13.2998  14.3511  14.9059  15.5611

          k =-1.0479-0.6050 0.1414 (  8372 PWs)   bands (ev):

   -33.0816 -33.0811   0.0184   1.0177   1.7175   2.6398   3.3816   4.5394
     5.7803   7.2138   7.3011   7.4235   7.5801   9.0069  10.3891  10.6453
    10.8192  10.9557  12.5262  12.7591  14.5102  16.1286  16.3376

          k =-0.3493 0.2017 0.0943 (  8327 PWs)   bands (ev):

   -33.0853 -33.0841  -2.0954  -0.7275  -0.0686   3.8712   5.0936   7.7778
     7.9727   8.6653   9.5024  10.1018  10.8212  11.0008  11.0211  11.2730
    12.5971  12.6127  12.7951  12.9703  13.7463  14.1184  15.0368

          k =-0.6986 0.0000 0.1414 (  8365 PWs)   bands (ev):

   -33.0838 -33.0829  -1.5387  -0.3345   0.5984   4.0121   5.6755   6.0526
     6.4639   7.0277   7.4953   8.4841   9.6728  10.0574  11.2188  11.6179
    12.2345  12.4703  13.0769  13.3315  13.9256  14.9188  15.2234

          k =-1.0479-0.2017 0.1886 (  8379 PWs)   bands (ev):

   -33.0820 -33.0814  -0.4550   0.5423   1.6947   3.4945   4.4783   4.8368
     5.3737   5.6864   6.6301   7.5273   9.0419   9.1855   9.3699  10.7955
    11.8641  12.4582  13.0577  14.5578  14.8998  15.2117  15.4542

          k = 1.0479 1.0084-0.0943 (  8382 PWs)   bands (ev):

   -33.0811 -33.0808   0.8371   1.1333   1.9687   2.7218   3.2639   3.9895
     5.3524   5.5440   6.3613   7.8379   8.2771   8.4905   9.2563   9.8608
    11.9253  12.1647  13.5626  14.4794  14.8742  15.1844  15.8065

          k = 0.6986 0.8067-0.0471 (  8384 PWs)   bands (ev):

   -33.0820 -33.0814  -0.5076   0.9294   1.2235   3.5863   4.2248   5.2429
     5.5611   5.9169   6.7951   6.8445   8.5255   8.7144   9.7824  11.2989
    12.2245  12.6365  13.6162  14.2843  14.5662  14.9232  15.5050

          k = 0.3493 0.6050 0.0000 (  8374 PWs)   bands (ev):

   -33.0838 -33.0829  -1.5696   0.0249   0.1713   4.8345   4.8625   6.0434
     6.5252   6.9321   7.3726   8.7826   9.3711  10.6334  10.6692  12.1248
    12.3540  12.3600  12.9239  13.3097  13.8702  15.1993  15.3129

          k =-0.6986 0.4034 0.1886 (  8350 PWs)   bands (ev):

   -33.0832 -33.0824  -1.2480  -0.2061   1.0203   3.8447   4.8221   5.3959
     6.6238   7.5289   7.8691   8.2994   8.6762   9.6630   9.9821  10.7361
    11.6092  12.8738  13.0834  14.3149  14.3467  15.1484  15.3549

          k =-1.0479 0.2017 0.2357 (  8374 PWs)   bands (ev):

   -33.0820 -33.0814  -0.4253   0.4251   1.8876   3.6568   3.8705   4.6783
     5.5737   6.4855   6.9439   7.2254   7.8654   8.4241  11.0789  11.4601
    11.8732  12.4415  13.0169  13.7035  13.9481  14.9874  15.6412

          k = 1.0479 1.4117-0.0471 (  8395 PWs)   bands (ev):

   -33.0809 -33.0806   0.8686   1.4521   2.5208   2.9136   3.4376   3.9081
     4.4029   4.9361   6.2731   6.5070   7.4945   9.1418   9.5688  10.5080
    12.3561  12.9211  13.9172  15.0321  15.0845  15.8652  16.4049

          k = 0.6986 1.2101 0.0000 (  8362 PWs)   bands (ev):

   -33.0809 -33.0806   0.7543   1.8442   2.3574   2.8149   3.2691   3.8639
     4.0656   5.6327   6.3488   7.1124   7.4314   8.2618   8.5363  11.6420
    12.2962  13.8631  14.4912  14.6014  15.1038  15.4069  15.6461

          k =-1.0479 0.6050 0.2828 (  8389 PWs)   bands (ev):

   -33.0816 -33.0811   0.0986   0.7416   2.0122   2.6476   3.2521   4.9971
     5.3682   6.3869   6.9555   8.3276   8.3624   8.8506   9.4541  10.6028
    10.8601  12.0154  13.0549  13.1993  13.7581  14.3254  15.6298

          k = 1.0479 1.8151 0.0000 (  8368 PWs)   bands (ev):

   -33.0811 -33.0808   0.8490   1.2318   1.7761   2.4316   3.8790   4.1325
     5.2351   5.6611   6.1502   6.9668   7.2730   9.7742  10.3014  11.2511
    11.6640  12.0436  12.1590  12.9953  14.3657  14.5475  17.0669

          k =-0.0000-0.0000 0.1414 (  8309 PWs)   bands (ev):

   -33.0861 -33.0849  -2.3504  -1.1191  -0.1554   3.3535   5.2051  10.0998
    10.0998  10.3896  10.3896  10.7581  10.7864  10.7864  11.4747  11.4747
    12.2489  12.2489  13.0032  13.1501  13.5772  14.0888  14.0888

          k =-0.3493-0.2017 0.1886 (  8330 PWs)   bands (ev):

   -33.0853 -33.0841  -2.0554  -0.9789   0.2748   3.3047   5.7330   7.5337
     8.5426   8.9189   9.0390   9.4313  10.3961  11.0067  11.1384  11.7255
    12.2869  12.6723  13.3073  13.5553  13.9303  14.1926  14.7033

          k =-0.6986-0.4034 0.2357 (  8350 PWs)   bands (ev):

   -33.0832 -33.0824  -1.2171  -0.3225   1.1959   3.6189   4.7694   5.8233
     6.5162   7.0365   7.7888   8.0358   9.6637   9.7629  10.7777  10.8693
    11.5909  11.8905  12.0542  13.1202  14.4859  14.9311  16.3132

          k = 1.3973 0.8067-0.0471 (  8371 PWs)   bands (ev):

   -33.0816 -33.0811   0.1095   0.7294   1.8557   2.8864   3.6803   4.1191
     5.0914   7.1853   7.5823   7.9831   8.2989   8.5157  10.0645  10.3884
    10.8417  11.3202  11.9847  12.6617  14.6482  15.9719  16.6472

          k = 1.0479 0.6050 0.0000 (  8369 PWs)   bands (ev):

   -33.0816 -33.0811  -0.0145   1.2067   1.6144   2.5372   3.1520   5.0776
     6.2744   6.6731   6.8886   7.1309   7.6804   9.2911   9.8649  10.8049
    11.0456  11.5691  12.4230  13.0523  14.6253  15.4401  15.5754

          k = 0.6986 0.4034 0.0471 (  8356 PWs)   bands (ev):

   -33.0832 -33.0824  -1.2995   0.1890   0.5125   4.4574   4.7016   5.6635
     5.8269   7.5718   7.6273   8.3278   8.5845   9.9741  10.1934  11.0122
    12.0105  12.3139  13.1573  13.7710  14.4614  14.7476  15.3770

          k =-0.3493 0.2017 0.2357 (  8348 PWs)   bands (ev):

   -33.0853 -33.0841  -2.0263  -1.0950   0.4613   3.0288   6.0626   7.7637
     7.9992   8.5894   9.8510   9.9590  10.1991  10.5377  10.9029  11.2779
    12.4593  12.6685  12.7992  12.9996  14.3550  14.7271  15.1736

          k =-0.6986 0.0000 0.2828 (  8354 PWs)   bands (ev):

   -33.0838 -33.0829  -1.4489  -0.6860   1.1557   3.2144   6.0430   6.2539
     6.5034   7.3683   7.7751   8.0810   9.3664  10.1808  10.6934  11.9229
    12.1778  12.2930  13.1843  13.4739  13.8191  14.6046  15.2683

[...]
     c_bands:  5 eigenvalues not converged
     c_bands:  2 eigenvalues not converged
     c_bands:  5 eigenvalues not converged
     c_bands:  2 eigenvalues not converged
     c_bands:  1 eigenvalues not converged
     c_bands:  2 eigenvalues not converged
     c_bands:  5 eigenvalues not converged
     c_bands:  2 eigenvalues not converged
     c_bands:  5 eigenvalues not converged
     c_bands:  5 eigenvalues not converged
     c_bands:  2 eigenvalues not converged
     ethr =  1.00E-06,  avg # of iterations = 16.4

     total cpu time spent up to now is     1076.6 secs

     total energy              =     -95.78018852 Ry
     estimated scf accuracy    <       0.23537091 Ry

     iteration #  2     ecut=    80.00 Ry     beta= 0.70
     CG style diagonalization
     c_bands:  1 eigenvalues not converged
     ethr =  6.19E-04,  avg # of iterations =  5.1

     total cpu time spent up to now is     1084.7 secs

     total energy              =     -95.26723901 Ry
     estimated scf accuracy    <       6.53370236 Ry

     iteration #  3     ecut=    80.00 Ry     beta= 0.70
     CG style diagonalization
     c_bands:  1 eigenvalues not converged
     ethr =  6.19E-04,  avg # of iterations =  4.9

     total cpu time spent up to now is     1092.7 secs

     total energy              =     -95.89136011 Ry
     estimated scf accuracy    <       0.06272405 Ry

     iteration #  4     ecut=    80.00 Ry     beta= 0.70
     CG style diagonalization
     ethr =  1.65E-04,  avg # of iterations =  3.5

     total cpu time spent up to now is     1098.2 secs

     total energy              =     -95.89822427 Ry
     estimated scf accuracy    <       0.00861390 Ry

     iteration #  5     ecut=    80.00 Ry     beta= 0.70
     CG style diagonalization
     ethr =  2.27E-05,  avg # of iterations =  3.9

     total cpu time spent up to now is     1104.2 secs

     total energy              =     -95.89976740 Ry
     estimated scf accuracy    <       0.00082084 Ry

     iteration #  6     ecut=    80.00 Ry     beta= 0.70
     CG style diagonalization
     c_bands:  1 eigenvalues not converged
     c_bands:  1 eigenvalues not converged
     ethr =  2.16E-06,  avg # of iterations =  4.3

     total cpu time spent up to now is     1110.7 secs

     total energy              =     -95.89998557 Ry
     estimated scf accuracy    <       0.00001692 Ry

     iteration #  7     ecut=    80.00 Ry     beta= 0.70
     CG style diagonalization
     ethr =  4.45E-08,  avg # of iterations =  4.5

     total cpu time spent up to now is     1118.0 secs

     total energy              =     -95.89999981 Ry
     estimated scf accuracy    <       0.00000149 Ry

     iteration #  8     ecut=    80.00 Ry     beta= 0.70
     CG style diagonalization
     ethr =  3.91E-09,  avg # of iterations =  3.6

     total cpu time spent up to now is     1124.0 secs

     total energy              =     -95.90000010 Ry
     estimated scf accuracy    <       0.00000008 Ry

     iteration #  9     ecut=    80.00 Ry     beta= 0.70
     CG style diagonalization
     ethr =  2.23E-10,  avg # of iterations =  4.1

     total cpu time spent up to now is     1130.7 secs

     total energy              =     -95.90000013 Ry
     estimated scf accuracy    <          7.8E-10 Ry

     iteration # 10     ecut=    80.00 Ry     beta= 0.70
     CG style diagonalization
     ethr =  2.05E-12,  avg # of iterations =  4.9

     total cpu time spent up to now is     1138.6 secs

     End of self-consistent calculation

          k = 0.0000 0.0000 0.0000 (  8429 PWs)   bands (ev):

   -32.9368 -32.9360  -2.5039  -1.1758   0.0274   4.6347   4.8679   9.8177
     9.8177   9.9358   9.9358  10.2797  10.2797  10.8177  10.8177  12.2486
    12.3714  12.3714  12.4979  12.9632  13.0899  13.8820  13.8820

          k =-0.3424-0.1977 0.0488 (  8452 PWs)   bands (ev):

   -32.9361 -32.9354  -2.2352  -0.9238   0.2775   4.6232   5.3044   7.2077
     7.9248   8.4254   8.8460   9.5033  10.2419  10.8325  11.1613  12.2520
    12.4542  12.5005  12.7831  13.2601  13.4686  14.0023  14.3585

          k =-0.6847-0.3953 0.0977 (  8461 PWs)   bands (ev):

   -32.9346 -32.9341  -1.4347  -0.1783   0.9987   4.2200   4.9984   5.4071
     6.3247   7.1165   7.4480   7.7154   9.2131   9.3997  10.5505  11.0209
    11.7742  12.2365  13.1256  13.3112  14.4989  14.8454  15.5146

          k =-1.0271-0.5930 0.1465 (  8481 PWs)   bands (ev):

   -32.9334 -32.9331  -0.1385   0.9565   1.5428   2.4899   3.3560   4.4877
     6.1530   6.9864   7.1143   7.4958   7.8476   8.8877  10.1669  10.3351
    10.6841  11.1603  12.6686  13.0735  15.1332  16.5231  16.5666

          k =-0.3424 0.1977 0.0977 (  8452 PWs)   bands (ev):

   -32.9361 -32.9354  -2.2252  -0.9765   0.3554   4.3206   5.6173   7.3660
     7.6621   8.2782   9.1659   9.6458  10.4619  10.7503  10.9333  11.8040
    12.2221  12.4264  12.4888  13.2800  14.0071  14.0584  14.3427

          k =-0.6847-0.0000 0.1465 (  8475 PWs)   bands (ev):

   -32.9350 -32.9345  -1.6800  -0.5230   0.9165   4.4143   5.7026   5.9323
     6.3132   6.7109   7.1048   8.4508   9.6471  10.2172  11.3982  11.5804
    11.7837  12.4122  12.7038  13.1142  13.8861  14.8152  15.6672

          k =-1.0271-0.1977 0.1953 (  8508 PWs)   bands (ev):

   -32.9337 -32.9333  -0.6131   0.4093   1.8252   3.2976   4.3720   5.0395
     5.1190   5.3656   6.6082   7.8158   9.1367   9.4479   9.5314  10.7791
    11.8851  12.1190  13.1525  14.2853  14.8529  15.1641  15.7451

          k = 1.0271 0.9883-0.0977 (  8505 PWs)   bands (ev):

   -32.9330 -32.9328   0.6989   1.0312   1.7960   2.2968   3.5126   3.8958
     5.0696   5.4898   6.6056   7.9112   8.3066   9.0209   9.4214  10.0453
    11.5573  11.7865  13.8194  14.6217  15.0559  15.6346  16.2341

          k = 0.6847 0.7907-0.0488 (  8498 PWs)   bands (ev):

   -32.9337 -32.9333  -0.6667   0.6803   1.4771   3.3357   4.0913   5.1543
     5.4636   5.8697   6.7711   7.0765   8.7311   8.8474   9.9141  11.0092
    11.9688  12.6407  13.8883  14.1598  14.6839  15.2320  15.5832

          k = 0.3424 0.5930 0.0000 (  8474 PWs)   bands (ev):

   -32.9350 -32.9345  -1.7106  -0.3635   0.6842   5.2066   5.3182   5.7305
     6.2931   6.5588   6.9476   8.6503   9.4636  10.6958  10.8077  11.5867
    11.9465  12.4517  12.6551  13.6170  13.8559  15.0966  15.5471

          k =-0.6847 0.3953 0.1953 (  8480 PWs)   bands (ev):

   -32.9346 -32.9341  -1.3950  -0.3549   1.2726   4.1789   4.5169   5.1849
     7.0261   7.1739   7.7825   8.3718   8.5221   9.4526   9.5007  10.6595
    11.5591  13.2148  13.4419  14.2380  14.4321  15.2467  15.4084

          k =-1.0271 0.1977 0.2441 (  8507 PWs)   bands (ev):

   -32.9337 -32.9333  -0.5856   0.3104   2.0053   3.4292   3.8172   4.6634
     5.4534   6.1376   7.0781   7.1264   8.0468   8.9167  10.9722  11.4910
    12.0636  12.4308  12.8648  13.7298  14.1537  14.9043  15.5573

          k = 1.0271 1.3837-0.0488 (  8513 PWs)   bands (ev):

   -32.9329 -32.9327   0.7032   1.3903   2.3238   2.7071   3.1533   3.7590
     4.3022   4.9960   6.2630   6.6712   7.8154   9.4959  10.0166  10.8835
    12.7313  13.3891  13.8211  14.4535  14.6870  15.2190  16.0233

          k = 0.6847 1.1860 0.0000 (  8534 PWs)   bands (ev):

   -32.9329 -32.9327   0.5835   2.0079   2.0542   2.4711   3.0511   3.6796
     3.9864   5.6113   6.3014   7.4560   7.7239   8.5140   8.9387  12.3373
    12.3402  14.0160  14.0924  14.7640  14.7891  15.2992  15.3114

          k =-1.0271 0.5930 0.2930 (  8495 PWs)   bands (ev):

   -32.9334 -32.9331  -0.0643   0.6756   1.8812   2.3172   3.3873   5.0486
     5.5802   6.6077   6.6180   8.0599   8.5358   8.7253   9.2854  10.1802
    11.1245  12.3593  13.4045  13.6130  13.9953  14.5091  16.1414

          k = 1.0271 1.7790 0.0000 (  8490 PWs)   bands (ev):

   -32.9330 -32.9328   0.6921   1.2629   1.5150   2.0623   3.9341   4.0757
     5.3228   5.9154   5.9896   6.4900   7.6473  10.2996  10.5450  11.2235
    11.8071  11.8366  12.5983  12.6275  14.6523  14.9314  17.2813

          k = 0.0000-0.0000 0.1465 (  8453 PWs)   bands (ev):

   -32.9368 -32.9360  -2.4746  -1.3179   0.2457   3.7920   5.7771   9.7331
     9.7331  10.0734  10.0734  10.1853  10.1853  10.9511  10.9511  11.6117
    12.2166  12.2166  12.2736  12.8644  13.7698  13.7986  13.7987

          k =-0.3424-0.1977 0.1953 (  8448 PWs)   bands (ev):

   -32.9361 -32.9354  -2.1861  -1.1395   0.6192   3.7167   6.3050   7.1212
     8.2348   8.5509   8.6741   9.1473  10.1660  10.8069  11.3198  11.6234
    12.1726  12.5232  13.3737  13.4156  13.5233  13.9935  14.3295

          k =-0.6847-0.3953 0.2441 (  8459 PWs)   bands (ev):

   -32.9346 -32.9341  -1.3637  -0.4557   1.4377   3.8774   4.5857   5.5670
     6.4221   7.4506   7.4989   7.7115   9.3704   9.6625  10.5676  11.4041
    11.7406  11.7619  12.0489  13.1200  14.4969  14.6941  15.7092

          k = 1.3695 0.7907-0.0488 (  8479 PWs)   bands (ev):

   -32.9334 -32.9331  -0.0436   0.6397   1.6638   2.7748   3.6732   4.0505
     5.4330   6.8629   7.2823   8.2376   8.2788   8.9071   9.9062  10.0994
    10.6288  11.4650  12.3446  12.7417  15.0111  16.2808  17.0351

          k = 1.0271 0.5930 0.0000 (  8494 PWs)   bands (ev):

   -32.9334 -32.9331  -0.1750   1.2232   1.4109   2.2947   3.1680   5.0220
     6.6427   6.8049   6.9301   7.2704   7.3855   8.8909   9.7180  10.3279
    11.2335  11.7072  12.6786  13.3715  15.2166  15.8558  16.0847

          k = 0.6847 0.3953 0.0488 (  8455 PWs)   bands (ev):

   -32.9346 -32.9341  -1.4456  -0.1165   0.9156   4.3939   4.7384   5.6205
     6.1355   7.2785   7.5189   8.0184   8.7289   9.4121  10.0285  10.7871
    12.0506  12.4323  13.7989  14.0405  14.4526  15.0510  15.3278

          k =-0.3424 0.1977 0.2441 (  8464 PWs)   bands (ev):

   -32.9361 -32.9354  -2.1580  -1.2307   0.7871   3.4273   6.5942   7.4530
     7.6388   8.1980   9.5115   9.5837  10.3177  10.5063  10.9177  11.2364
    11.9405  12.1263  12.5064  13.0887  14.4172  14.5266  14.6538

          k =-0.6847-0.0000 0.2930 (  8488 PWs)   bands (ev):

   -32.9350 -32.9345  -1.5929  -0.8050   1.4193   3.5815   5.7212   5.9653
     6.4740   7.1251   7.5502   8.2708   9.3765  10.4630  11.1206  11.6117
    11.9170  12.0712  12.9176  13.0079  13.5094  14.4206  15.4681

          k = 1.3695 1.1860 0.0000 (  8506 PWs)   bands (ev):

   -32.9337 -32.9333  -0.5034   0.1096   2.2715   3.3503   4.2895   4.6031
     4.8525   5.5309   6.5346   8.1051   9.2499   9.8871  10.1475  10.5298
    11.4298  12.1610  12.3160  14.1230  14.4380  15.2525  15.5328

          k = 1.0271 0.9883 0.0488 (  8503 PWs)   bands (ev):

   -32.9330 -32.9328   0.6922   1.1096   1.6572   2.2958   3.4032   4.3166
     5.0230   5.5047   6.3354   7.5543   8.1276   8.9731  10.1307  10.4942
    11.7690  11.8780  12.9871  14.0295  14.5722  16.1215  16.5475

          k = 0.6847 0.7907 0.0977 (  8505 PWs)   bands (ev):

   -32.9337 -32.9333  -0.6572   0.6106   1.5745   3.4134   3.8677   4.9717
     5.7338   6.1524   6.7313   7.0954   8.1567   8.6071  10.6303  11.0800
    12.0347  12.9590  13.6287  14.0535  14.6027  14.7122  15.5439

          k =-0.6847 0.3953 0.3418 (  8469 PWs)   bands (ev):

   -32.9346 -32.9341  -1.2913  -0.6382   1.8149   3.4778   4.5105   5.1719
     7.1391   7.1913   8.1855   8.6156   8.9299   9.1979   9.5910  10.5145
    10.8952  12.9555  13.7418  13.9433  13.9997  15.1993  15.8605

          k = 1.3695 1.5813 0.0488 (  8502 PWs)   bands (ev):

   -32.9337 -32.9333  -0.4638   0.0311   2.4551   3.4070   3.8754   4.2705
     5.1929   6.0348   6.8756   7.2973   8.6083   9.6616  10.8333  11.4581
    11.8962  12.1640  12.2389  13.2769  13.9262  15.1234  15.5276

          k = 1.0271 1.3837 0.0977 (  8511 PWs)   bands (ev):

   -32.9329 -32.9327   0.8332   1.1450   2.3623   2.6677   3.4698   3.7090
     4.5192   4.7385   6.0285   6.3139   8.3727   9.3275  10.5607  11.4748
    11.8541  12.4682  13.9613  14.3469  15.0658  15.2576  16.2216

          k = 0.6847 1.1860 0.1465 (  8513 PWs)   bands (ev):

   -32.9329 -32.9327   0.6140   1.7018   2.2508   2.5891   3.0278   3.7112
     4.0806   5.3669   6.4140   7.1649   7.5708   8.8804   9.3745  11.4422
    13.1808  13.7172  13.9864  14.3898  14.7907  15.0435  15.9919

          k = 1.3695-0.7907-0.2441 (  8479 PWs)   bands (ev):

   -32.9334 -32.9331   0.0636   0.4277   1.8224   2.6476   3.7070   4.4887
     5.0313   6.6299   7.2952   7.9639   8.7061   8.8436   9.7867   9.9852
    10.9649  11.7213  13.0092  13.0722  14.3607  15.4632  15.7983

          k = 1.0271-0.9883-0.1953 (  8500 PWs)   bands (ev):

   -32.9330 -32.9328   0.6907   1.2149   1.5440   2.1553   3.6235   4.3474
     5.3289   5.3950   6.2880   6.8129   7.8153   9.6626  10.6763  10.8887
    11.9168  12.1144  12.2510  13.1752  14.4237  15.6469  16.7883

          k = 1.0271-0.5930-0.1465 (  8502 PWs)   bands (ev):

   -32.9334 -32.9331  -0.1496   0.9771   1.7155   2.2004   3.1763   5.4168
     6.2012   6.3027   6.6767   7.7292   7.9253   8.9525   9.1610  10.3004
    11.3537  12.5108  12.9441  13.2890  14.8762  14.9415  15.6661

          k = 0.0000-0.0000 0.2930 (  8450 PWs)   bands (ev):

   -32.9368 -32.9360  -2.3926  -1.5802   0.7417   2.9135   6.8544   9.6587
     9.6587  10.0405  10.0405  10.2969  10.2969  10.4038  11.1456  11.1456
    11.9961  11.9961  12.3439  12.7638  13.3319  13.3319  13.9350

          k =-0.3424-0.1977 0.3418 (  8470 PWs)   bands (ev):

   -32.9361 -32.9354  -2.0887  -1.4051   1.1703   2.8688   7.0116   7.4448
     8.3734   8.4500   8.8714   8.9356   9.9610  10.6395  10.9121  11.0913
    11.9473  12.8331  13.0527  13.7017  13.9679  14.1812  14.5018

          k = 1.7118 0.9883 0.0488 (  8461 PWs)   bands (ev):

   -32.9346 -32.9341  -1.2488  -0.7203   2.0047   3.2486   4.4288   5.6445
     6.3814   7.2802   8.0129   8.3195   9.4104   9.9821  10.0476  10.6990
    11.0852  12.1724  12.3576  13.0489  14.4983  14.9393  15.6830

          k = 1.3695 0.7907 0.0977 (  8484 PWs)   bands (ev):

   -32.9334 -32.9331   0.0837   0.4013   1.7429   2.8896   3.8590   4.0584
     4.9326   6.7122   7.6080   7.9551   8.7526   9.1459   9.3463  10.1681
    11.0377  11.4949  12.2124  12.7663  15.2492  15.3434  16.5499

          k =-0.3424 0.1977 0.3906 (  8478 PWs)   bands (ev):

   -32.9361 -32.9354  -2.0525  -1.4784   1.3797   2.6034   7.1037   7.7393
     8.0436   8.1872   9.3946   9.5901   9.7293  10.2336  10.4994  11.3332
    11.9884  11.9975  12.7009  13.1866  14.5692  14.6381  14.6874

          k = 1.7118 1.3837 0.0977 (  8495 PWs)   bands (ev):

   -32.9350 -32.9345  -1.4806  -1.0313   2.0262   2.8210   5.7648   5.8572
     6.6454   7.1835   8.0622   8.3681   9.2759  10.1135  11.0612  11.4900
    11.8486  12.2188  12.8403  12.9714  13.7282  14.1906  15.1768

          k = 1.3695 1.1860 0.1465 (  8514 PWs)   bands (ev):

   -32.9337 -32.9333  -0.3911  -0.0831   2.5802   3.5677   3.6899   4.3686
     5.0143   5.7579   6.6401   7.7017   9.2764  10.1978  10.5646  10.7336
    11.2792  11.9559  12.3461  13.5917  14.0238  15.1409  15.6336

          k = 1.7118-0.9883-0.1953 (  8476 PWs)   bands (ev):

   -32.9346 -32.9341  -1.1900  -0.8184   2.3530   2.8683   4.4404   5.4007
     6.7452   7.1747   8.3652   8.6867   9.5142   9.5918   9.7380  10.1929
    10.5856  12.7308  13.0852  13.2027  14.4336  15.3552  15.4292

          k = 0.0000 0.0000 0.4394 (  8455 PWs)   bands (ev):

   -32.9368 -32.9360  -2.2922  -1.7890   1.3711   2.1100   7.9846   9.1938
     9.6263   9.6263   9.9528   9.9528  10.5065  10.5065  11.1335  11.1335
    12.0399  12.0399  12.4407  12.6435  12.8904  12.8904  13.9857

          k = 2.0542 1.1860 0.1465 (  8474 PWs)   bands (ev):

   -32.9361 -32.9354  -2.0011  -1.5679   1.8085   2.1191   7.0675   8.1275
     8.2460   8.5387   8.9629   9.2516   9.2683  10.4008  10.6399  11.1111
    11.9210  12.5007  12.8736  13.5460  14.1853  14.6318  14.6909

     the Fermi energy is    13.2949 ev

!    total energy              =     -95.90000013 Ry
     estimated scf accuracy    <          9.0E-11 Ry
     smearing contrib. (-TS)   =       0.00066812 Ry
     internal energy E=F+TS    =     -95.90066825 Ry

     The total energy is F=E-TS. E is the sum of the following terms:
     one-electron contribution =      31.84232223 Ry
     hartree contribution      =       6.59152497 Ry
     xc contribution           =     -33.59406823 Ry
     ewald contribution        =    -100.74044722 Ry

     convergence has been achieved in  10 iterations

     Forces acting on atoms (cartesian axes, Ry/au):

     atom    1 type  1   force =     0.00000000    0.00000000   -0.00004862
     atom    2 type  1   force =     0.00000000   -0.00000000    0.00004862
     atom    3 type  1   force =     0.00000000   -0.00000000   -0.00022385
     atom    4 type  1   force =    -0.00000000    0.00000000    0.00022385
     atom    5 type  1   force =    -0.00000000   -0.00000000    0.00019773
     atom    6 type  1   force =     0.00000000    0.00000000   -0.00019773
     atom    7 type  1   force =    -0.00000000   -0.00000000   -0.00000490
     atom    8 type  1   force =    -0.00000000    0.00000000    0.00000490
     atom    9 type  2   force =    -0.00000000   -0.00000000    0.00011559
     atom   10 type  2   force =    -0.00000000    0.00000000   -0.00011559

     Total force =     0.000458     Total SCF correction =     0.000014


     Computing stress (Cartesian axis) and pressure

          total   stress  (Ry/bohr**3)                   (kbar)     P=      500.25
   0.00340022  -0.00000000  -0.00000000          500.19       -0.00       -0.00
  -0.00000000   0.00340022   0.00000000           -0.00      500.19        0.00
  -0.00000000   0.00000000   0.00340152           -0.00        0.00      500.38


     Writing all to output data dir ./output/SiLi.save/ :
     XML data file, charge density, pseudopotentials, collected wavefunctions

     init_run     :      4.83s CPU      5.09s WALL (       2 calls)
     electrons    :   1053.91s CPU   1080.36s WALL (      20 calls)
     update_pot   :      0.65s CPU      0.83s WALL (      18 calls)
     forces       :      6.11s CPU      6.36s WALL (      20 calls)
     stress       :     46.55s CPU     47.06s WALL (      20 calls)

     Called by init_run:
     wfcinit      :      3.72s CPU      3.80s WALL (       2 calls)
     potinit      :      0.08s CPU      0.09s WALL (       2 calls)
     hinit0       :      0.96s CPU      1.11s WALL (       2 calls)

     Called by electrons:
     c_bands      :    969.23s CPU    992.07s WALL (     159 calls)
     sum_band     :     79.47s CPU     81.07s WALL (     159 calls)
     v_of_rho     :      5.32s CPU      5.99s WALL (     176 calls)
     mix_rho      :      0.24s CPU      0.53s WALL (     159 calls)

     Called by c_bands:
     init_us_2    :      5.39s CPU      6.20s WALL (   15840 calls)
     ccgdiagg     :    820.86s CPU    837.22s WALL (    7024 calls)
     wfcrot       :    147.93s CPU    150.61s WALL (    6100 calls)

     Called by *cgdiagg:
     h_psi        :    865.83s CPU    881.96s WALL (  614049 calls)

     Called by h_psi:
     h_psi:calbec :     66.09s CPU     67.44s WALL (  614049 calls)
     vloc_psi     :    695.26s CPU    708.39s WALL (  614049 calls)
     add_vuspsi   :    101.76s CPU    103.30s WALL (  614049 calls)
     hs_1psi      :    725.22s CPU    739.01s WALL (  607949 calls)
     s_1psi       :     46.28s CPU     47.17s WALL (  607949 calls)

     General routines
     calbec       :    116.23s CPU    118.76s WALL ( 1226398 calls)
     fft          :      2.56s CPU      3.18s WALL (    2261 calls)
     ffts         :      0.13s CPU      0.20s WALL (     159 calls)
     fftw         :    687.67s CPU    699.82s WALL ( 1659694 calls)

     Parallel routines

     PWSCF        :   1112.67s CPU   1141.83s WALL


   This run was terminated on:  19: 6:19  18Feb2025            

=------------------------------------------------------------------------------=
   JOB DONE.
=------------------------------------------------------------------------------=
