
     Program PWSCF v.7.2 starts on 22Jan2025 at 21:14:17 

     This program is part of the open-source Quantum ESPRESSO suite
     for quantum simulation of materials; please cite
         "P. Giannozzi et al., J. Phys.:Condens. Matter 21 395502 (2009);
         "P. Giannozzi et al., J. Phys.:Condens. Matter 29 465901 (2017);
         "P. Giannozzi et al., J. Chem. Phys. 152 154105 (2020);
          URL http://www.quantum-espresso.org", 
     in publications or presentations arising from this work. More details at
     http://www.quantum-espresso.org/quote

     Parallel version (MPI & OpenMP), running on       8 processor cores
     Number of MPI processes:                 8
     Threads/MPI process:                     1

     MPI processes distributed on     1 nodes
     481487 MiB available memory on the printing compute node when the environment starts

     Waiting for input...
     Reading input from standard input

     Current dimensions of program PWSCF are:
     Max number of different atomic species (ntypx) = 10
     Max number of k-points (npk) =  40000
     Max angular momentum in pseudopotentials (lmaxx) =  4

     R & G space division:  proc/nbgrp/npool/nimage =       8
     Subspace diagonalization in iterative solution of the eigenvalue problem:
     a serial algorithm will be used


     Parallelization info
     --------------------
     sticks:   dense  smooth     PW     G-vecs:    dense   smooth      PW
     Min         131     131     42                 2771     2771     516
     Max         132     132     43                 2774     2774     517
     Sum        1055    1055    343                22183    22183    4133

     Using Slab Decomposition



     bravais-lattice index     =            7
     lattice parameter (alat)  =       8.5958  a.u.
     unit-cell volume          =     354.3741 (a.u.)^3
     number of atoms/cell      =            5
     number of atomic types    =            2
     number of electrons       =        19.00
     number of Kohn-Sham states=           14
     kinetic-energy cutoff     =      60.0000  Ry
     charge density cutoff     =     240.0000  Ry
     scf convergence threshold =      1.0E-08
     mixing beta               =       0.8000
     number of iterations used =            8  plain     mixing
     energy convergence thresh.=      5.0E-03
     force convergence thresh. =      1.0E-02
     press convergence thresh. =      2.0E+00
     Exchange-correlation= PBE
                           (   1   4   3   4   0   0   0)
     nstep                     =           50


     celldm(1)=   8.595754  celldm(2)=   0.000000  celldm(3)=   1.115938
     celldm(4)=   0.000000  celldm(5)=   0.000000  celldm(6)=   0.000000

     crystal axes: (cart. coord. in units of alat)
               a(1) = (   0.500000  -0.500000   0.557969 )  
               a(2) = (   0.500000   0.500000   0.557969 )  
               a(3) = (  -0.500000  -0.500000   0.557969 )  

     reciprocal axes: (cart. coord. in units 2 pi/alat)
               b(1) = (  1.000000 -1.000000  0.000000 )  
               b(2) = (  0.000000  1.000000  0.896107 )  
               b(3) = ( -1.000000  0.000000  0.896107 )  


     PseudoPot. # 1 for Si read from file:
     ../pseudo/Si_ONCV_PBE_sr.upf
     MD5 check sum: e543d271109d17c80368dfa7c482276d
     Pseudo is Norm-conserving + core correction, Zval =  4.0
     Generated using ONCVPSP code by D. R. Hamann
     Using radial grid of 1510 points,  6 beta functions with: 
                l(1) =   0
                l(2) =   0
                l(3) =   1
                l(4) =   1
                l(5) =   2
                l(6) =   2

     PseudoPot. # 2 for Li read from file:
     ../pseudo/Li_ONCV_PBE_sr.upf
     MD5 check sum: 50ff420e78310ffa21704f3361e624a4
     Pseudo is Norm-conserving, Zval =  3.0
     Generated using ONCVPSP code by D. R. Hamann
     Using radial grid of 1944 points,  4 beta functions with: 
                l(1) =   0
                l(2) =   0
                l(3) =   1
                l(4) =   1

     atomic species   valence    mass     pseudopotential
        Si             4.00    28.08550     Si( 1.00)
        Li             3.00     6.94100     Li( 1.00)

      8 Sym. Ops. (no inversion) found



   Cartesian axes

     site n.     atom                  positions (alat units)
         1           Si  tau(   1) = (   0.2171915   0.7828085   0.4091129  )
         2           Si  tau(   2) = (   0.7828085   0.7828085   0.7068251  )
         3           Si  tau(   3) = (   0.7828085   0.2171915   0.4091129  )
         4           Si  tau(   4) = (   0.2171915   0.2171915   0.7068251  )
         5           Li  tau(   5) = (   0.0000000   0.0000000   0.5579690  )

     number of k points=    90  Marzari-Vanderbilt smearing, width (Ry)=  0.0200
                       cart. coord. in units 2pi/alat
        k(    1) = (   0.0000000   0.0000000   0.0000000), wk =   0.0102041
        k(    2) = (  -0.2500000   0.0000000   0.2240268), wk =   0.0204082
        k(    3) = (   0.5000000   0.0000000  -0.4480536), wk =   0.0102041
        k(    4) = (   0.0000000   0.1428571   0.1280153), wk =   0.0408163
        k(    5) = (  -0.2500000   0.1428571   0.3520421), wk =   0.0204082
        k(    6) = (   0.5000000   0.1428571  -0.3200383), wk =   0.0204082
        k(    7) = (   0.2500000   0.1428571  -0.0960115), wk =   0.0204082
        k(    8) = (   0.0000000   0.2857143   0.2560306), wk =   0.0408163
        k(    9) = (  -0.2500000   0.2857143   0.4800574), wk =   0.0204082
        k(   10) = (   0.5000000   0.2857143  -0.1920230), wk =   0.0204082
        k(   11) = (   0.2500000   0.2857143   0.0320038), wk =   0.0204082
        k(   12) = (   0.0000000   0.4285714   0.3840459), wk =   0.0408163
        k(   13) = (  -0.2500000   0.4285714   0.6080727), wk =   0.0204082
        k(   14) = (   0.5000000   0.4285714  -0.0640077), wk =   0.0204082
        k(   15) = (   0.2500000   0.4285714   0.1600191), wk =   0.0204082
        k(   16) = (   0.1428571  -0.1428571   0.0000000), wk =   0.0204082
        k(   17) = (  -0.1071429  -0.1428571   0.2240268), wk =   0.0204082
        k(   18) = (   0.6428571  -0.1428571  -0.4480536), wk =   0.0204082
        k(   19) = (   0.3928571  -0.1428571  -0.2240268), wk =   0.0204082
        k(   20) = (  -0.1071429   0.0000000   0.3520421), wk =   0.0204082
        k(   21) = (   0.6428571   0.0000000  -0.3200383), wk =   0.0204082
        k(   22) = (   0.3928571   0.0000000  -0.0960115), wk =   0.0204082
        k(   23) = (   0.1428571   0.1428571   0.2560306), wk =   0.0204082
        k(   24) = (  -0.1071429   0.1428571   0.4800574), wk =   0.0204082
        k(   25) = (   0.6428571   0.1428571  -0.1920230), wk =   0.0204082
        k(   26) = (   0.3928571   0.1428571   0.0320038), wk =   0.0204082
        k(   27) = (   0.1428571   0.2857143   0.3840459), wk =   0.0408163
        k(   28) = (  -0.1071429   0.2857143   0.6080727), wk =   0.0204082
        k(   29) = (   0.6428571   0.2857143  -0.0640077), wk =   0.0204082
        k(   30) = (   0.3928571   0.2857143   0.1600191), wk =   0.0204082
        k(   31) = (   0.1428571  -0.5714286  -0.3840459), wk =   0.0408163
        k(   32) = (  -0.1071429  -0.5714286  -0.1600191), wk =   0.0204082
        k(   33) = (   0.6428571  -0.5714286  -0.8320995), wk =   0.0204082
        k(   34) = (   0.3928571  -0.5714286  -0.6080727), wk =   0.0204082
        k(   35) = (   0.1428571  -0.4285714  -0.2560306), wk =   0.0408163
        k(   36) = (  -0.1071429  -0.4285714  -0.0320038), wk =   0.0204082
        k(   37) = (   0.6428571  -0.4285714  -0.7040842), wk =   0.0204082
        k(   38) = (   0.3928571  -0.4285714  -0.4800574), wk =   0.0204082
        k(   39) = (   0.1428571  -0.2857143  -0.1280153), wk =   0.0408163
        k(   40) = (  -0.1071429  -0.2857143   0.0960115), wk =   0.0204082
        k(   41) = (   0.6428571  -0.2857143  -0.5760689), wk =   0.0204082
        k(   42) = (   0.3928571  -0.2857143  -0.3520421), wk =   0.0204082
        k(   43) = (   0.2857143  -0.2857143   0.0000000), wk =   0.0204082
        k(   44) = (   0.0357143  -0.2857143   0.2240268), wk =   0.0204082
        k(   45) = (   0.7857143  -0.2857143  -0.4480536), wk =   0.0204082
        k(   46) = (   0.5357143  -0.2857143  -0.2240268), wk =   0.0204082
        k(   47) = (   0.0357143  -0.1428571   0.3520421), wk =   0.0204082
        k(   48) = (   0.7857143  -0.1428571  -0.3200383), wk =   0.0204082
        k(   49) = (   0.5357143  -0.1428571  -0.0960115), wk =   0.0204082
        k(   50) = (   0.0357143   0.0000000   0.4800574), wk =   0.0204082
        k(   51) = (   0.7857143   0.0000000  -0.1920230), wk =   0.0204082
        k(   52) = (   0.5357143   0.0000000   0.0320038), wk =   0.0204082
        k(   53) = (   0.0357143   0.1428571   0.6080727), wk =   0.0204082
        k(   54) = (   0.7857143   0.1428571  -0.0640077), wk =   0.0204082
        k(   55) = (   0.5357143   0.1428571   0.1600191), wk =   0.0204082
        k(   56) = (   0.2857143  -0.7142857  -0.3840459), wk =   0.0204082
        k(   57) = (   0.0357143  -0.7142857  -0.1600191), wk =   0.0204082
        k(   58) = (   0.7857143  -0.7142857  -0.8320995), wk =   0.0204082
        k(   59) = (   0.5357143  -0.7142857  -0.6080727), wk =   0.0204082
        k(   60) = (   0.2857143  -0.5714286  -0.2560306), wk =   0.0408163
        k(   61) = (   0.0357143  -0.5714286  -0.0320038), wk =   0.0204082
        k(   62) = (   0.7857143  -0.5714286  -0.7040842), wk =   0.0204082
        k(   63) = (   0.5357143  -0.5714286  -0.4800574), wk =   0.0204082
        k(   64) = (   0.2857143  -0.4285714  -0.1280153), wk =   0.0408163
        k(   65) = (   0.0357143  -0.4285714   0.0960115), wk =   0.0204082
        k(   66) = (   0.7857143  -0.4285714  -0.5760689), wk =   0.0204082
        k(   67) = (   0.5357143  -0.4285714  -0.3520421), wk =   0.0204082
        k(   68) = (   0.4285714  -0.4285714   0.0000000), wk =   0.0204082
        k(   69) = (   0.1785714  -0.4285714   0.2240268), wk =   0.0204082
        k(   70) = (   0.9285714  -0.4285714  -0.4480536), wk =   0.0204082
        k(   71) = (   0.6785714  -0.4285714  -0.2240268), wk =   0.0204082
        k(   72) = (   0.1785714  -0.2857143   0.3520421), wk =   0.0204082
        k(   73) = (   0.9285714  -0.2857143  -0.3200383), wk =   0.0204082
        k(   74) = (   0.6785714  -0.2857143  -0.0960115), wk =   0.0204082
        k(   75) = (   0.1785714  -0.1428571   0.4800574), wk =   0.0204082
        k(   76) = (   0.9285714  -0.1428571  -0.1920230), wk =   0.0204082
        k(   77) = (   0.6785714  -0.1428571   0.0320038), wk =   0.0204082
        k(   78) = (   0.1785714   0.0000000   0.6080727), wk =   0.0204082
        k(   79) = (   0.9285714   0.0000000  -0.0640077), wk =   0.0204082
        k(   80) = (   0.6785714   0.0000000   0.1600191), wk =   0.0204082
        k(   81) = (   0.1785714  -0.8571429  -0.1600191), wk =   0.0204082
        k(   82) = (   0.9285714  -0.8571429  -0.8320995), wk =   0.0204082
        k(   83) = (   0.6785714  -0.8571429  -0.6080727), wk =   0.0204082
        k(   84) = (   0.1785714  -0.7142857  -0.0320038), wk =   0.0204082
        k(   85) = (   0.9285714  -0.7142857  -0.7040842), wk =   0.0204082
        k(   86) = (   0.6785714  -0.7142857  -0.4800574), wk =   0.0204082
        k(   87) = (   0.4285714  -0.5714286  -0.1280153), wk =   0.0204082
        k(   88) = (   0.1785714  -0.5714286   0.0960115), wk =   0.0204082
        k(   89) = (   0.9285714  -0.5714286  -0.5760689), wk =   0.0204082
        k(   90) = (   0.6785714  -0.5714286  -0.3520421), wk =   0.0204082

     Dense  grid:    22183 G-vectors     FFT dimensions: (  40,  40,  40)

     Estimated max dynamical RAM per process >      19.26 MB

     Estimated total dynamical RAM >     154.07 MB

     Initial potential from superposition of free atoms

     starting charge      18.9930, renormalised to      19.0000
     Starting wfcs are   18 randomized atomic wfcs

     total cpu time spent up to now is        2.0 secs

     Self-consistent Calculation

     iteration #  1     ecut=    60.00 Ry     beta= 0.80
     Davidson diagonalization with overlap
     ethr =  1.00E-02,  avg # of iterations =  4.1

     total cpu time spent up to now is        3.9 secs

     total energy              =     -46.87517801 Ry
     estimated scf accuracy    <       0.42178313 Ry

     iteration #  2     ecut=    60.00 Ry     beta= 0.80
     Davidson diagonalization with overlap
     ethr =  2.22E-03,  avg # of iterations =  2.3

     total cpu time spent up to now is        5.2 secs

     total energy              =     -46.99906770 Ry
     estimated scf accuracy    <       0.27261440 Ry

     iteration #  3     ecut=    60.00 Ry     beta= 0.80
     Davidson diagonalization with overlap
     ethr =  1.43E-03,  avg # of iterations =  2.0

     total cpu time spent up to now is        6.2 secs

     total energy              =     -47.05152330 Ry
     estimated scf accuracy    <       0.00042158 Ry

     iteration #  4     ecut=    60.00 Ry     beta= 0.80
     Davidson diagonalization with overlap
     c_bands:  1 eigenvalues not converged
     c_bands:  1 eigenvalues not converged
     c_bands:  1 eigenvalues not converged
     c_bands:  1 eigenvalues not converged
     c_bands:  1 eigenvalues not converged
     c_bands:  1 eigenvalues not converged
     c_bands:  1 eigenvalues not converged
     c_bands:  1 eigenvalues not converged
     c_bands:  1 eigenvalues not converged
     c_bands:  1 eigenvalues not converged
     ethr =  2.22E-06,  avg # of iterations = 12.2

     total cpu time spent up to now is        8.7 secs

     total energy              =     -47.05268503 Ry
     estimated scf accuracy    <       0.00047595 Ry

     iteration #  5     ecut=    60.00 Ry     beta= 0.80
     Davidson diagonalization with overlap
     ethr =  2.22E-06,  avg # of iterations =  2.2

     total cpu time spent up to now is        9.6 secs

     total energy              =     -47.05271643 Ry
     estimated scf accuracy    <       0.00003710 Ry

     iteration #  6     ecut=    60.00 Ry     beta= 0.80
     Davidson diagonalization with overlap
     ethr =  1.95E-07,  avg # of iterations =  2.1

     total cpu time spent up to now is       10.7 secs

     total energy              =     -47.05272695 Ry
     estimated scf accuracy    <       0.00000006 Ry

     iteration #  7     ecut=    60.00 Ry     beta= 0.80
     Davidson diagonalization with overlap
     ethr =  3.28E-10,  avg # of iterations =  6.1

     total cpu time spent up to now is       12.4 secs

     total energy              =     -47.05272731 Ry
     estimated scf accuracy    <       0.00000026 Ry

     iteration #  8     ecut=    60.00 Ry     beta= 0.80
     Davidson diagonalization with overlap
     ethr =  3.28E-10,  avg # of iterations =  2.0

     total cpu time spent up to now is       13.6 secs

     total energy              =     -47.05272733 Ry
     estimated scf accuracy    <       0.00000001 Ry

     iteration #  9     ecut=    60.00 Ry     beta= 0.80
     Davidson diagonalization with overlap
     ethr =  7.76E-11,  avg # of iterations =  2.2

     total cpu time spent up to now is       14.6 secs

     End of self-consistent calculation

          k = 0.0000 0.0000 0.0000 (  2779 PWs)   bands (ev):

   -38.3717  -1.8981   6.4969   6.4969   7.7422   9.3536   9.3536  10.3493
    10.4810  10.9030  10.9030  11.1069  13.0803  14.7684

          k =-0.2500 0.0000 0.2240 (  2795 PWs)   bands (ev):

   -38.3712  -1.2136   4.1397   5.5677   6.9155   8.3213   8.6358  10.3046
    11.2240  12.1217  13.7775  14.1141  14.8389  15.7902

          k = 0.5000 0.0000-0.4481 (  2784 PWs)   bands (ev):

   -38.3701   0.6009   1.1028   5.0013   6.5862   7.6032   8.5237  11.2298
    11.7250  13.4532  13.7012  15.9036  15.9882  17.3670

          k = 0.0000 0.1429 0.1280 (  2801 PWs)   bands (ev):

   -38.3718  -1.6743   5.6450   6.0647   7.1973   8.8795   8.9964  10.3798
    10.4304  10.8870  12.7578  12.8199  14.0339  14.9930

          k =-0.2500 0.1429 0.3520 (  2793 PWs)   bands (ev):

   -38.3706  -0.6343   3.3030   4.4294   6.2331   8.7072   9.0383  10.7657
    11.9022  12.3679  13.3724  14.6357  15.5238  17.4641

          k = 0.5000 0.1429-0.3200 (  2778 PWs)   bands (ev):

   -38.3699   0.3142   1.8083   4.3254   5.7381   8.5081   9.0613  10.5288
    12.5308  13.3673  14.2818  14.6394  16.1308  17.7532

          k = 0.2500 0.1429-0.0960 (  2789 PWs)   bands (ev):

   -38.3712  -1.3491   5.1697   5.4618   6.1994   8.1815   8.8404  10.1428
    11.2323  12.3375  13.2760  13.9957  14.6147  16.7312

          k = 0.0000 0.2857 0.2560 (  2793 PWs)   bands (ev):

   -38.3709  -1.0048   3.6199   5.4240   6.8389   8.1338   8.5968  10.3459
    11.5371  12.6068  13.6728  14.2147  15.3459  16.2865

          k =-0.2500 0.2857 0.4801 (  2775 PWs)   bands (ev):

   -38.3698   0.3820   2.3524   3.2036   5.6428   9.2702   9.4557  10.5951
    11.5796  13.8365  14.2913  14.9696  16.0425  17.5159

          k = 0.5000 0.2857-0.1920 (  2777 PWs)   bands (ev):

   -38.3699   0.2502   2.9400   3.1235   5.3201   7.9888   9.4682  10.9676
    12.1410  13.6973  15.1154  15.8649  16.5301  17.4223

          k = 0.2500 0.2857 0.0320 (  2794 PWs)   bands (ev):

   -38.3710  -1.0416   4.3981   5.5791   5.7549   7.3661   8.2871  10.4252
    12.8150  13.5541  13.9149  14.1300  14.6459  16.3683

          k = 0.0000 0.4286 0.3840 (  2784 PWs)   bands (ev):

   -38.3701   0.0891   1.7186   5.0498   6.6178   7.6626   8.5298  10.9183
    12.0928  12.9963  14.0702  15.0488  16.1368  17.8916

          k =-0.2500 0.4286 0.6081 (  2774 PWs)   bands (ev):

   -38.3697   0.8502   1.8725   3.1345   5.3913   8.6124   9.5933  11.1737
    11.8298  13.2909  14.9349  15.4780  16.9791  17.8206

          k = 0.5000 0.4286-0.0640 (  2772 PWs)   bands (ev):

   -38.3697   0.4863   1.9159   4.6660   5.1819   6.9593   8.1694  11.8816
    12.7586  14.2308  15.6455  16.4440  17.1479  17.6867

          k = 0.2500 0.4286 0.1600 (  2778 PWs)   bands (ev):

   -38.3701  -0.2973   3.5739   3.6963   5.4601   7.9032   9.1190  10.6649
    12.3318  14.0105  14.5653  15.3468  15.6326  17.1204

          k = 0.1429-0.1429 0.0000 (  2781 PWs)   bands (ev):

   -38.3714  -1.6558   5.9125   6.1944   6.7093   8.2068   9.0218  10.0968
    10.8247  11.9548  12.3870  12.4244  13.8854  15.9805

          k =-0.1071-0.1429 0.2240 (  2793 PWs)   bands (ev):

   -38.3713  -1.3950   4.9767   5.2697   6.8874   8.5601   9.0958  10.0797
    11.5790  11.8013  12.6759  13.9689  14.6393  14.9733

          k = 0.6429-0.1429-0.4481 (  2782 PWs)   bands (ev):

   -38.3700   0.2143   1.9278   4.2278   5.8949   8.6358   9.1594  11.0541
    11.4984  12.8725  14.3332  15.7807  16.4079  16.6242

          k = 0.3929-0.1429-0.2240 (  2790 PWs)   bands (ev):

   -38.3705  -0.5539   3.1904   4.6617   5.8429   8.3377   8.9976  10.4296
    11.8529  13.4032  14.1823  14.7772  15.5485  16.4790

          k =-0.1071 0.0000 0.3520 (  2786 PWs)   bands (ev):

   -38.3707  -1.0571   4.3371   4.8309   6.9509   7.4746   9.4411  10.0238
    11.2507  12.7748  13.4341  14.3730  15.2337  15.7987

          k = 0.6429 0.0000-0.3200 (  2775 PWs)   bands (ev):

   -38.3695   0.7993   1.3107   4.3430   6.3563   7.8406   8.7482   9.6540
    11.0788  14.6531  15.3446  15.5094  16.8264  17.3102

          k = 0.3929 0.0000-0.0960 (  2789 PWs)   bands (ev):

   -38.3707  -0.9271   4.1349   5.1443   5.9153   7.8872   9.0640   9.8995
    11.1107  12.3375  14.1925  15.1777  16.0494  16.4475

          k = 0.1429 0.1429 0.2560 (  2793 PWs)   bands (ev):

   -38.3711  -1.2462   4.6974   4.9209   6.7110   8.5792   9.1079  10.1572
    11.9841  12.0341  12.6626  13.8141  15.0801  15.4043

          k =-0.1071 0.1429 0.4801 (  2786 PWs)   bands (ev):

   -38.3700  -0.2783   3.3317   3.8078   6.7232   7.3059   9.2169   9.7139
    10.8131  13.9238  15.0981  15.5171  15.6996  18.3418

          k = 0.6429 0.1429-0.1920 (  2770 PWs)   bands (ev):

   -38.3693   0.8375   2.0426   3.3404   5.9071   7.5677   8.7466   9.9609
    11.6861  13.1895  15.4620  16.7814  17.7968  18.1070

          k = 0.3929 0.1429 0.0320 (  2794 PWs)   bands (ev):

   -38.3708  -0.8604   4.4560   4.7411   5.5559   8.1028   8.5354   9.7916
    11.9881  12.7178  14.5647  15.2419  15.5911  16.0668

          k = 0.1429 0.2857 0.3840 (  2796 PWs)   bands (ev):

   -38.3705  -0.3763   2.8253   4.3357   6.1016   8.7002   9.0711  10.9927
    11.6108  12.5042  13.7424  15.1896  15.6758  17.3662

          k =-0.1071 0.2857 0.6081 (  2784 PWs)   bands (ev):

   -38.3696   0.9026   1.6949   3.5887   6.3180   7.6294   8.7242   9.4409
    11.3809  14.5227  15.7223  15.9380  17.0333  18.2888

          k = 0.6429 0.2857-0.0640 (  2779 PWs)   bands (ev):

   -38.3696   0.8671   2.1611   3.4257   5.0930   8.0389   8.9348   9.7527
    11.0769  14.2140  15.9470  17.5475  17.9563  18.4954

          k = 0.3929 0.2857 0.1600 (  2780 PWs)   bands (ev):

   -38.3702  -0.3574   3.5381   4.0187   5.1568   8.0147   9.0337  10.9039
    12.7005  14.1469  14.3831  15.0002  15.7019  16.8640

          k = 0.1429-0.5714-0.3840 (  2779 PWs)   bands (ev):

   -38.3699   0.7843   1.2461   4.2249   5.7723   8.5744   9.1511  10.7057
    12.0345  13.2525  14.4983  15.2098  16.2484  17.8457

          k =-0.1071-0.5714-0.1600 (  2779 PWs)   bands (ev):

   -38.3697   0.2386   2.5852   3.8366   5.8093   7.4639   8.8575  10.5544
    11.2235  12.9095  14.7791  16.3019  17.4380  18.5253

          k = 0.6429-0.5714-0.8321 (  2776 PWs)   bands (ev):

   -38.3697   0.6141   1.9988   4.0243   5.2876   7.4333   8.5023  10.9600
    11.6947  14.5102  16.2453  16.8091  17.2745  18.0062

          k = 0.3929-0.5714-0.6081 (  2774 PWs)   bands (ev):

   -38.3699   0.5630   2.9080   3.0581   3.8415   9.4436  10.1301  12.1843
    12.6091  13.8945  14.2419  14.9872  15.8352  16.8550

          k = 0.1429-0.4286-0.2560 (  2785 PWs)   bands (ev):

   -38.3703  -0.2880   2.7050   4.5258   5.7889   8.4002   9.0047  10.4565
    12.2071  13.4741  14.1734  14.6378  15.7625  16.7614

          k =-0.1071-0.4286-0.0320 (  2800 PWs)   bands (ev):

   -38.3707  -0.7399   4.3983   4.5227   5.4080   7.8438   9.0130   9.8591
    11.6906  12.3130  14.4323  15.5623  16.0506  16.6778

          k = 0.6429-0.4286-0.7041 (  2775 PWs)   bands (ev):

   -38.3699   0.1297   2.8781   3.7419   4.6309   8.3018   9.2392  11.5210
    13.0044  14.0620  14.5951  15.2547  16.5862  16.6460

          k = 0.3929-0.4286-0.4801 (  2774 PWs)   bands (ev):

   -38.3698   1.4791   1.7904   2.8158   3.7342  10.3547  11.2062  11.9126
    12.7477  13.0230  14.2468  14.5645  15.6028  16.7178

          k = 0.1429-0.2857-0.1280 (  2794 PWs)   bands (ev):

   -38.3711  -1.1914   4.7126   5.2089   6.0919   8.2084   8.9076  10.2173
    11.2540  12.6100  13.6698  14.2144  15.3503  16.3378

          k =-0.1071-0.2857 0.0960 (  2792 PWs)   bands (ev):

   -38.3712  -1.2886   4.9355   5.4150   6.2364   8.2978   8.7944   9.9574
    11.0097  12.4699  13.4889  14.3048  14.9876  16.5293

          k = 0.6429-0.2857-0.5761 (  2783 PWs)   bands (ev):

   -38.3702  -0.0303   2.9855   3.9115   4.3456   9.5661   9.9994  11.8244
    12.2358  12.8744  13.3567  14.9911  15.7990  16.4060

          k = 0.3929-0.2857-0.3520 (  2780 PWs)   bands (ev):

   -38.3700   0.2567   2.5455   3.8338   4.2225   9.7377  10.1630  12.0351
    12.3043  12.9524  13.2752  15.0923  15.6328  16.5654

          k = 0.2857-0.2857 0.0000 (  2795 PWs)   bands (ev):

   -38.3709  -0.9369   4.1378   5.6330   5.6686   7.1575   8.1870  10.5436
    13.2054  13.7489  14.1123  14.3847  14.6292  16.1830

          k = 0.0357-0.2857 0.2240 (  2790 PWs)   bands (ev):

   -38.3709  -1.0929   3.8708   5.4842   6.7210   8.2533   8.7086  10.1198
    11.5598  12.2903  13.8561  14.2559  15.2374  16.1016

          k = 0.7857-0.2857-0.4481 (  2788 PWs)   bands (ev):

   -38.3701   0.1024   2.5215   3.5448   5.7720   9.0992   9.3840  10.8687
    11.3160  13.5662  13.9929  15.0247  16.0405  17.4282

          k = 0.5357-0.2857-0.2240 (  2772 PWs)   bands (ev):

   -38.3697   0.5348   2.6138   2.8888   5.3075   8.1776   9.6825  11.1592
    11.8395  13.4743  15.2780  15.8413  16.9640  17.6260

          k = 0.0357-0.1429 0.3520 (  2789 PWs)   bands (ev):

   -38.3707  -0.9965   4.0777   4.8146   6.9464   7.7309   9.1517  10.1033
    11.3946  13.0081  13.1435  14.3958  15.2653  16.0746

          k = 0.7857-0.1429-0.3200 (  2778 PWs)   bands (ev):

   -38.3695   0.5406   2.3638   3.2905   6.4817   7.6452   8.5727   9.3750
    11.5256  14.5527  15.6008  16.0071  16.7236  18.0294

          k = 0.5357-0.1429-0.0960 (  2786 PWs)   bands (ev):

   -38.3700  -0.0399   3.3483   3.6807   5.4630   7.6501   8.8969  10.5276
    11.2155  12.8774  14.5094  16.3796  17.5315  18.4242

          k = 0.0357 0.0000 0.4801 (  2784 PWs)   bands (ev):

   -38.3699  -0.4597   4.0074   4.0772   6.2984   6.5743   9.1657  10.5569
    10.6234  12.8591  15.6619  15.9514  16.0864  17.2508

          k = 0.7857 0.0000-0.1920 (  2775 PWs)   bands (ev):

   -38.3689   1.3628   1.9252   3.5110   5.6328   6.2851   7.7441  10.7491
    11.7287  14.9036  15.0422  16.3202  17.7993  18.6416

          k = 0.5357 0.0000 0.0320 (  2779 PWs)   bands (ev):

   -38.3698  -0.2024   3.6637   4.3078   4.9840   6.8943  10.2486  10.7077
    10.9999  11.3207  13.8723  16.8558  17.6554  18.5388

          k = 0.0357 0.1429 0.6081 (  2781 PWs)   bands (ev):

   -38.3693   0.5059   2.7749   3.5873   6.0845   6.5632   7.7338  10.5384
    11.3650  14.6285  15.5944  16.8177  17.0285  18.3732

          k = 0.7857 0.1429-0.0640 (  2765 PWs)   bands (ev):

   -38.3687   1.7146   2.5005   2.7168   4.6116   6.8554   7.5884  10.9893
    12.2475  13.5367  15.1738  16.9291  17.9336  19.6887

          k = 0.5357 0.1429 0.1600 (  2778 PWs)   bands (ev):

   -38.3698   0.0613   2.8247   3.7689   5.8609   7.7937   8.6300  10.9439
    11.1159  12.9615  14.9697  15.8587  17.0389  18.2286

          k = 0.2857-0.7143-0.3840 (  2772 PWs)   bands (ev):

   -38.3697   0.6874   2.1303   2.9545   5.5352   9.2236   9.6469  10.4285
    11.8706  13.6902  14.7728  15.0402  16.0928  17.5192

          k = 0.0357-0.7143-0.1600 (  2776 PWs)   bands (ev):

   -38.3691   1.2037   1.9252   3.6040   5.4902   6.4744   8.5111  10.3556
    11.6886  13.8828  14.6579  17.4029  17.8240  18.7242

          k = 0.7857-0.7143-0.8321 (  2768 PWs)   bands (ev):

   -38.3691   1.2390   2.3898   2.9296   4.8364   7.7589   8.5300   9.8568
    11.3543  13.8418  15.5188  17.2558  18.6436  19.1748

          k = 0.5357-0.7143-0.6081 (  2773 PWs)   bands (ev):

   -38.3698   0.7380   2.1529   3.0513   4.9734   8.7967  10.0287  11.6125
    11.7852  13.4601  14.7163  15.1784  16.8192  17.5142

          k = 0.2857-0.5714-0.2560 (  2770 PWs)   bands (ev):

   -38.3696   0.8388   2.1931   2.8026   5.3131   8.3852   9.8104  11.1531
    11.8307  13.2577  15.3757  15.7325  17.2356  17.8362

          k = 0.0357-0.5714-0.0320 (  2774 PWs)   bands (ev):

   -38.3696   0.0335   3.4679   4.0675   4.8759   6.7811  10.1908  10.5522
    10.9695  11.8142  13.8218  17.3112  18.1314  18.8892

          k = 0.7857-0.5714-0.7041 (  2774 PWs)   bands (ev):

   -38.3696   0.4886   2.5096   3.1347   5.8184   7.9029   8.9212  10.8461
    11.4151  13.1775  15.6213  16.2241  17.0585  18.3644

          k = 0.5357-0.5714-0.4801 (  2772 PWs)   bands (ev):

   -38.3698   1.7039   1.8149   2.7603   3.3308  10.6468  11.4044  11.8092
    12.9543  13.2389  14.2131  14.7006  15.3768  16.9411

          k = 0.2857-0.4286-0.1280 (  2777 PWs)   bands (ev):

   -38.3701  -0.2489   3.2618   4.0587   5.3931   7.6587   8.8377  10.7555
    12.8181  14.1092  14.7422  15.3712  15.7047  17.4712

          k = 0.0357-0.4286 0.0960 (  2787 PWs)   bands (ev):

   -38.3705  -0.7474   3.8996   4.8863   5.7821   7.6871   9.0982  10.1112
    11.2695  12.2760  14.3011  15.1985  16.4664  16.9860

          k = 0.7857-0.4286-0.5761 (  2787 PWs)   bands (ev):

   -38.3702   0.0862   2.3718   4.1823   4.9255   9.0701   9.6909  11.2143
    12.3728  13.1844  13.7729  14.7173  16.1374  16.5493

          k = 0.5357-0.4286-0.3520 (  2769 PWs)   bands (ev):

   -38.3697   1.3926   2.1859   2.5252   3.6825   9.9845  11.0845  11.9503
    12.9194  13.2963  14.2628  15.1604  15.9356  17.1840

          k = 0.4286-0.4286 0.0000 (  2769 PWs)   bands (ev):

   -38.3697   0.1780   2.2277   5.1550   5.2661   6.6180   7.9693  11.6629
    13.4783  14.0738  15.1764  16.1939  17.0911  17.3798

          k = 0.1786-0.4286 0.2240 (  2786 PWs)   bands (ev):

   -38.3703  -0.3172   3.0134   4.2240   5.6487   8.3165   9.1206  10.7331
    11.8200  13.7203  14.2278  15.0258  15.6898  16.6558

          k = 0.9286-0.4286-0.4481 (  2782 PWs)   bands (ev):

   -38.3700   0.4235   1.3917   4.8010   6.2227   8.0713   8.6978  11.1478
    11.8075  12.7832  14.3928  15.7345  15.9967  17.7311

          k = 0.6786-0.4286-0.2240 (  2771 PWs)   bands (ev):

   -38.3696   0.8345   2.3806   2.6638   5.2534   8.1454   9.8786  11.0602
    11.8822  13.4404  15.6854  16.0623  17.3974  17.9639

          k = 0.1786-0.2857 0.3520 (  2791 PWs)   bands (ev):

   -38.3705  -0.4541   3.0765   4.2719   5.7464   9.0662   9.2413  11.1252
    12.0427  12.3055  13.2549  14.8443  15.7097  17.1589

          k = 0.9286-0.2857-0.3200 (  2777 PWs)   bands (ev):

   -38.3695   0.6464   1.7823   3.9048   6.3656   7.6768   8.9114   9.3768
    11.0558  15.0407  15.2964  15.7935  16.8145  18.1459

          k = 0.6786-0.2857-0.0960 (  2773 PWs)   bands (ev):

   -38.3694   1.0829   2.1180   3.0470   5.2503   7.9900   9.1787   9.4514
    11.2018  13.9462  16.2992  17.1413  18.3762  18.5760

          k = 0.1786-0.1429 0.4801 (  2783 PWs)   bands (ev):

   -38.3699  -0.1577   3.0620   3.6527   6.6705   7.7889   9.0898   9.7672
    10.9470  14.2031  14.8339  15.2931  15.7362  18.5175

          k = 0.9286-0.1429-0.1920 (  2773 PWs)   bands (ev):

   -38.3688   1.2651   2.4848   3.1669   5.6142   6.1812   7.1167  11.0434
    12.2164  14.7204  15.4279  16.2747  17.3777  19.0119

          k = 0.6786-0.1429 0.0320 (  2771 PWs)   bands (ev):

   -38.3691   0.8848   2.9717   3.0824   4.6406   7.1302   8.8820  10.3582
    11.2445  13.6533  14.3080  18.1698  18.5663  18.9469

          k = 0.1786 0.0000 0.6081 (  2777 PWs)   bands (ev):

   -38.3692   0.5647   2.4864   3.7076   6.0733   6.7786   7.9346  10.3177
    11.2168  15.0096  15.5609  16.5308  16.7664  18.5906

          k = 0.9286 0.0000-0.0640 (  2759 PWs)   bands (ev):

   -38.3682   2.1283   2.7828   3.0549   4.3638   5.3322   6.4154  12.9924
    13.1960  14.7477  14.8610  15.8530  16.5361  17.4309

          k = 0.6786 0.0000 0.1600 (  2783 PWs)   bands (ev):

   -38.3694   0.9300   2.0418   3.7869   5.5450   6.5574   8.9562  10.1388
    11.4602  13.7429  14.4351  17.4877  17.8141  18.5385

          k = 0.1786-0.8571-0.1600 (  2775 PWs)   bands (ev):

   -38.3689   1.6762   2.1172   2.7937   5.4148   6.8609   7.3852  10.4922
    12.7213  13.5490  15.9292  16.4322  17.6685  19.2690

          k = 0.9286-0.8571-0.8321 (  2759 PWs)   bands (ev):

   -38.3683   2.2140   2.3106   2.9601   4.4497   5.9431   6.8518  12.1366
    13.1858  13.5812  14.9363  16.4986  17.1481  18.5555

          k = 0.6786-0.8571-0.6081 (  2780 PWs)   bands (ev):

   -38.3696   1.0408   1.5055   3.4707   6.2709   8.0377   8.6344   9.7329
    11.5284  14.0743  15.5682  15.8902  17.3659  17.9915

          k = 0.1786-0.7143-0.0320 (  2769 PWs)   bands (ev):

   -38.3690   1.1905   2.6075   3.0091   4.5982   7.3947   8.4664  10.3008
    11.3104  13.8844  14.9088  17.5592  18.5428  19.2944

          k = 0.9286-0.7143-0.7041 (  2780 PWs)   bands (ev):

   -38.3693   1.2604   1.7201   3.5247   5.7691   6.7883   8.5569   9.9667
    11.6775  13.9404  15.1980  17.2030  17.3669  18.6411

          k = 0.6786-0.7143-0.4801 (  2779 PWs)   bands (ev):

   -38.3699   0.6195   2.1662   3.0793   5.1594   9.5219   9.9694  10.9783
    11.8805  13.5217  14.1723  14.8819  16.1742  16.9852

          k = 0.4286-0.5714-0.1280 (  2769 PWs)   bands (ev):

   -38.3696   0.7425   1.8608   3.8185   5.1704   7.4594   8.8248  11.8941
    11.9465  14.1780  16.2139  16.2379  17.4582  17.7352

          k = 0.1786-0.5714 0.0960 (  2782 PWs)   bands (ev):

   -38.3698   0.2460   3.1801   3.2768   5.3813   7.7525   8.8677  10.3344
    11.1894  13.2579  14.8051  16.8687  17.8417  18.6045

          k = 0.9286-0.5714-0.5761 (  2778 PWs)   bands (ev):

   -38.3698   0.6290   1.3756   4.4299   6.3179   8.0685   8.5969  10.0493
    11.7491  14.0404  14.7432  15.3174  16.1566  17.9138

          k = 0.6786-0.5714-0.3520 (  2780 PWs)   bands (ev):

   -38.3700   0.5447   2.4227   3.5748   3.8926   9.8509  10.4615  12.1568
    12.3164  13.3491  13.5836  14.8377  15.5806  16.7471

     the Fermi energy is    13.1887 ev

!    total energy              =     -47.05272733 Ry
     estimated scf accuracy    <          1.7E-10 Ry
     smearing contrib. (-TS)   =       0.00009428 Ry
     internal energy E=F+TS    =     -47.05282161 Ry

     The total energy is F=E-TS. E is the sum of the following terms:
     one-electron contribution =      10.02087853 Ry
     hartree contribution      =       5.88140960 Ry
     xc contribution           =     -16.92057252 Ry
     ewald contribution        =     -46.03453721 Ry

     convergence has been achieved in   9 iterations

     Forces acting on atoms (cartesian axes, Ry/au):

     atom    1 type  1   force =     0.31868738   -0.31868738   -0.20802408
     atom    2 type  1   force =    -0.31868738   -0.31868738    0.20802408
     atom    3 type  1   force =    -0.31868738    0.31868738   -0.20802408
     atom    4 type  1   force =     0.31868738    0.31868738    0.20802408
     atom    5 type  2   force =     0.00000000   -0.00000000    0.00000000
     The non-local contrib.  to forces
     atom    1 type  1   force =     0.22411459   -0.22411459   -0.15187614
     atom    2 type  1   force =    -0.22411459   -0.22411459    0.15187614
     atom    3 type  1   force =    -0.22411459    0.22411459   -0.15187614
     atom    4 type  1   force =     0.22411459    0.22411459    0.15187614
     atom    5 type  2   force =     0.00000000    0.00000000   -0.00000000
     The ionic contribution  to forces
     atom    1 type  1   force =     1.50807214   -1.50807214   -0.84316345
     atom    2 type  1   force =    -1.50807214   -1.50807214    0.84316345
     atom    3 type  1   force =    -1.50807214    1.50807214   -0.84316345
     atom    4 type  1   force =     1.50807214    1.50807214    0.84316345
     atom    5 type  2   force =     0.00000000   -0.00000000   -0.00000000
     The local contribution  to forces
     atom    1 type  1   force =    -1.39788985    1.39788985    0.77656725
     atom    2 type  1   force =     1.39788985    1.39788985   -0.77656725
     atom    3 type  1   force =     1.39788985   -1.39788985    0.77656725
     atom    4 type  1   force =    -1.39788985   -1.39788985   -0.77656725
     atom    5 type  2   force =     0.00000000    0.00000000    0.00000000
     The core correction contribution to forces
     atom    1 type  1   force =    -0.01561312    0.01561312    0.01044995
     atom    2 type  1   force =     0.01561312    0.01561312   -0.01044995
     atom    3 type  1   force =     0.01561312   -0.01561312    0.01044995
     atom    4 type  1   force =    -0.01561312   -0.01561312   -0.01044995
     atom    5 type  2   force =     0.00000000    0.00000000    0.00000000
     The Hubbard contrib.    to forces
     atom    1 type  1   force =     0.00000000    0.00000000    0.00000000
     atom    2 type  1   force =     0.00000000    0.00000000    0.00000000
     atom    3 type  1   force =     0.00000000    0.00000000    0.00000000
     atom    4 type  1   force =     0.00000000    0.00000000    0.00000000
     atom    5 type  2   force =     0.00000000    0.00000000    0.00000000
     The SCF correction term to forces
     atom    1 type  1   force =     0.00000361   -0.00000361   -0.00000168
     atom    2 type  1   force =    -0.00000361   -0.00000361    0.00000168
     atom    3 type  1   force =    -0.00000361    0.00000361   -0.00000168
     atom    4 type  1   force =     0.00000361    0.00000361    0.00000168
     atom    5 type  2   force =    -0.00000000   -0.00000000    0.00000000

     Total force =     0.992768     Total SCF correction =     0.000011


     Computing stress (Cartesian axis) and pressure

          total   stress  (Ry/bohr**3)                   (kbar)     P=      857.69
   0.00694688  -0.00000000   0.00000000         1021.92       -0.00        0.00
   0.00000000   0.00694688  -0.00000000            0.00     1021.92       -0.00
   0.00000000  -0.00000000   0.00359753            0.00       -0.00      529.21


     BFGS Geometry Optimization
     Energy error            =      0.0E+00 Ry
     Gradient error          =      3.2E-01 Ry/Bohr
     Cell gradient error     =      5.2E+02 kbar

     number of scf cycles    =   1
     number of bfgs steps    =   0

     enthalpy           new  =     -45.8482341400 Ry

     new trust radius        =       0.4963842308 bohr
ibrav =      7
 celldm(1) =      9.35818629
 celldm(3) =      1.03010915
Input lattice vectors:
     0.54434935    -0.54434935     0.56073924
     0.54434935     0.54434935     0.56073924
    -0.54434935    -0.54434935     0.56073924
New lattice vectors in INITIAL alat:
     0.54434935    -0.54434935     0.56073924
     0.54434935     0.54434935     0.56073924
    -0.54434935    -0.54434935     0.56073924
New lattice vectors in NEW alat (for information only):
     0.50000000    -0.50000000     0.51505457
     0.50000000     0.50000000     0.51505457
    -0.50000000    -0.50000000     0.51505457
Discrepancy in bohr =     0.000000    0.000000    0.000000
     new conv_thr            =       0.0000000100 Ry

     new unit-cell volume =    422.11259 a.u.^3 (    62.55063 Ang^3 )
     density =      3.16662 g/cm^3

CELL_PARAMETERS (alat=  8.59575415)
   0.544349345  -0.544349345   0.560739240
   0.544349345   0.544349345   0.560739240
  -0.544349345  -0.544349345   0.560739240

ATOMIC_POSITIONS (crystal)
Si           -0.4914670485        1.0906560192        0.0906560192
Si           -0.0000000000        1.4008110293       -0.0906560192
Si            0.4914670485        0.5991889707       -0.4008110293
Si           -0.0000000000        0.9093439808        0.4008110293
Li           -0.0000000000        0.5000000000        0.5000000000



     Writing config-only to output data dir ./output/SiLi.save/
     NEW-OLD atomic charge density approx. for the potential
     extrapolated charge   22.04790, renormalised to   19.00000

     total cpu time spent up to now is       16.7 secs

     Self-consistent Calculation

     iteration #  1     ecut=    60.00 Ry     beta= 0.80
     Davidson diagonalization with overlap
     c_bands:  1 eigenvalues not converged
     c_bands:  2 eigenvalues not converged
     c_bands:  1 eigenvalues not converged
     c_bands:  1 eigenvalues not converged
     c_bands:  2 eigenvalues not converged
     c_bands:  1 eigenvalues not converged
     c_bands:  1 eigenvalues not converged
     c_bands:  1 eigenvalues not converged
     c_bands:  1 eigenvalues not converged
     c_bands:  2 eigenvalues not converged
     c_bands:  1 eigenvalues not converged
     c_bands:  2 eigenvalues not converged
     c_bands:  2 eigenvalues not converged
     c_bands:  1 eigenvalues not converged
     c_bands:  1 eigenvalues not converged
     c_bands:  1 eigenvalues not converged
     c_bands:  1 eigenvalues not converged
     c_bands:  1 eigenvalues not converged
     c_bands:  1 eigenvalues not converged
     c_bands:  1 eigenvalues not converged
     c_bands:  1 eigenvalues not converged
     c_bands:  1 eigenvalues not converged
     c_bands:  2 eigenvalues not converged
     c_bands:  2 eigenvalues not converged
     c_bands:  1 eigenvalues not converged
     c_bands:  1 eigenvalues not converged
     c_bands:  2 eigenvalues not converged
     c_bands:  1 eigenvalues not converged
     c_bands:  1 eigenvalues not converged
     c_bands:  1 eigenvalues not converged
     c_bands:  1 eigenvalues not converged
     c_bands:  1 eigenvalues not converged
     c_bands:  1 eigenvalues not converged
     c_bands:  1 eigenvalues not converged
     c_bands:  2 eigenvalues not converged
     c_bands:  2 eigenvalues not converged
     c_bands:  1 eigenvalues not converged
     c_bands:  1 eigenvalues not converged
     c_bands:  1 eigenvalues not converged
     c_bands:  1 eigenvalues not converged
     c_bands:  1 eigenvalues not converged
     c_bands:  1 eigenvalues not converged
     c_bands:  1 eigenvalues not converged
     c_bands:  1 eigenvalues not converged
     ethr =  1.00E-06,  avg # of iterations = 18.2

     total cpu time spent up to now is       21.1 secs

     total energy              =     -47.67804500 Ry
     estimated scf accuracy    <       0.23551407 Ry

     iteration #  2     ecut=    60.00 Ry     beta= 0.80
     Davidson diagonalization with overlap
     ethr =  1.24E-03,  avg # of iterations =  2.9

     total cpu time spent up to now is       22.4 secs

     total energy              =     -47.87071598 Ry
     estimated scf accuracy    <       0.32667230 Ry

     iteration #  3     ecut=    60.00 Ry     beta= 0.80
     Davidson diagonalization with overlap
     ethr =  1.24E-03,  avg # of iterations =  1.6

     total cpu time spent up to now is       23.5 secs

     total energy              =     -47.88510380 Ry
     estimated scf accuracy    <       0.02701297 Ry

     iteration #  4     ecut=    60.00 Ry     beta= 0.80
     Davidson diagonalization with overlap
     ethr =  1.42E-04,  avg # of iterations =  2.7

     total cpu time spent up to now is       24.7 secs

     total energy              =     -47.89434844 Ry
     estimated scf accuracy    <       0.00133479 Ry

     iteration #  5     ecut=    60.00 Ry     beta= 0.80
     Davidson diagonalization with overlap
     ethr =  7.03E-06,  avg # of iterations =  5.6

     total cpu time spent up to now is       26.2 secs

     total energy              =     -47.89473539 Ry
     estimated scf accuracy    <       0.00000536 Ry

     iteration #  6     ecut=    60.00 Ry     beta= 0.80
     Davidson diagonalization with overlap
     ethr =  2.82E-08,  avg # of iterations =  5.5

     total cpu time spent up to now is       27.7 secs

     total energy              =     -47.89474590 Ry
     estimated scf accuracy    <       0.00000666 Ry

     iteration #  7     ecut=    60.00 Ry     beta= 0.80
     Davidson diagonalization with overlap
     ethr =  2.82E-08,  avg # of iterations =  2.0

     total cpu time spent up to now is       28.8 secs

     total energy              =     -47.89474649 Ry
     estimated scf accuracy    <       0.00000037 Ry

     iteration #  8     ecut=    60.00 Ry     beta= 0.80
     Davidson diagonalization with overlap
     ethr =  1.94E-09,  avg # of iterations =  3.3

     total cpu time spent up to now is       30.2 secs

     total energy              =     -47.89474664 Ry
     estimated scf accuracy    <       0.00000008 Ry

     iteration #  9     ecut=    60.00 Ry     beta= 0.80
     Davidson diagonalization with overlap
     ethr =  3.97E-10,  avg # of iterations =  2.0

     total cpu time spent up to now is       31.2 secs

     End of self-consistent calculation

          k = 0.0000 0.0000 0.0000 (  2779 PWs)   bands (ev):

   -35.9598  -3.2017   5.8558   5.8558   6.6261   6.6261   6.7590   6.8960
     7.3774   7.3774   8.1786   9.6827  10.2688  12.8106

          k =-0.2296-0.0000 0.2229 (  2795 PWs)   bands (ev):

   -35.9602  -2.5461   2.6623   4.2292   4.9395   5.9451   6.7629   7.7626
     9.0138   9.6584  10.4211  12.1146  12.9345  13.4218

          k = 0.4593 0.0000-0.4458 (  2784 PWs)   bands (ev):

   -35.9592  -0.8381  -0.2800   3.5572   4.2452   5.5080   6.5030   9.2343
    10.0429  10.6618  11.2502  13.5737  14.1050  14.9282

          k = 0.0000 0.1312 0.1274 (  2801 PWs)   bands (ev):

   -35.9615  -2.9873   4.3081   4.9121   5.6490   6.2211   6.9831   7.5433
     8.1115   8.3852   8.8604  10.9372  11.5748  13.0615

          k =-0.2296 0.1312 0.3503 (  2793 PWs)   bands (ev):

   -35.9595  -1.9647   1.7702   2.7831   4.3215   6.5838   7.2699   7.9657
    10.1020  10.2360  10.9186  11.2511  14.0378  14.7845

          k = 0.4593 0.1312-0.3185 (  2778 PWs)   bands (ev):

   -35.9583  -1.1362   0.4339   2.5432   4.0043   6.3227   7.4068   8.1924
     9.9056  11.3789  11.7413  12.4385  13.6203  14.8759

          k = 0.2296 0.1312-0.0955 (  2789 PWs)   bands (ev):

   -35.9598  -2.7012   3.5967   3.9219   4.9120   6.2273   6.8011   7.3711
     8.8258   9.7011   9.9075  11.6629  12.4379  13.5168

          k = 0.0000 0.2624 0.2548 (  2793 PWs)   bands (ev):

   -35.9600  -2.3464   2.1403   4.0520   4.7562   5.8439   6.6941   7.9220
     9.2538  10.2124  10.9820  12.1990  12.6931  13.4022

          k =-0.2296 0.2624 0.4777 (  2775 PWs)   bands (ev):

   -35.9581  -0.9699   0.8953   1.3877   3.9037   7.1520   7.5464   8.7135
     9.0477  11.1667  12.1714  12.4963  13.9963  14.1826

          k = 0.4593 0.2624-0.1911 (  2777 PWs)   bands (ev):

   -35.9578  -1.2174   1.0467   1.8082   3.9602   6.3899   7.4359   8.5229
     9.7336  10.6622  12.4573  12.7533  14.3382  14.5581

          k = 0.2296 0.2624 0.0318 (  2794 PWs)   bands (ev):

   -35.9600  -2.4290   2.4663   4.3547   4.8115   5.5428   6.0656   7.6865
     9.8080  10.3871  11.1421  12.1934  12.4111  12.8683

          k = 0.0000 0.3937 0.3821 (  2784 PWs)   bands (ev):

   -35.9586  -1.3047   0.2891   3.6125   4.3022   5.5487   6.5240   8.8568
    10.2815  10.5233  11.6696  12.6420  13.4456  14.9482

          k =-0.2296 0.3937 0.6051 (  2774 PWs)   bands (ev):

   -35.9579  -0.6479   0.5094   1.3311   3.8392   7.0785   7.3030   8.8620
     9.4179  10.7304  12.8852  13.4087  13.7175  14.3468

          k = 0.4593 0.3937-0.0637 (  2772 PWs)   bands (ev):

   -35.9568  -0.9256  -0.0303   3.4292   4.1568   5.3422   6.1260   8.9389
    10.0008  11.7209  12.2595  13.1481  14.0056  15.0148

          k = 0.2296 0.3937 0.1592 (  2778 PWs)   bands (ev):

   -35.9582  -1.7340   1.6501   2.3717   4.1494   6.2371   7.1956   8.0545
    10.0614  10.7719  11.6651  12.0247  13.6731  14.6478

          k = 0.1312-0.1312-0.0000 (  2781 PWs)   bands (ev):

   -35.9592  -2.9843   4.3816   5.3181   5.5516   5.9524   6.2567   7.3195
     8.5607   8.6519   9.3927  10.5858  11.2340  13.4510

          k =-0.0984-0.1312 0.2229 (  2793 PWs)   bands (ev):

   -35.9601  -2.7081   3.4988   3.7854   5.0186   6.7027   7.0205   7.5259
     8.8910   9.1039   9.3512  12.2415  12.7466  12.8730

          k = 0.5905-0.1312-0.4458 (  2782 PWs)   bands (ev):

   -35.9585  -1.1470   0.4369   2.5179   4.0340   6.3643   7.4632   8.5724
     9.3182  11.0763  12.0385  12.8637  13.2010  14.6088

          k = 0.3609-0.1312-0.2229 (  2790 PWs)   bands (ev):

   -35.9600  -1.9540   1.7892   2.8430   4.2523   6.4552   6.9618   8.0152
     9.7535  10.6781  11.4207  11.8491  13.1612  14.0229

          k =-0.0984-0.0000 0.3503 (  2786 PWs)   bands (ev):

   -35.9595  -2.3420   2.6737   3.1325   5.4501   5.9122   6.5111   7.5064
     8.8213  10.2328  11.0538  11.4992  13.1023  14.1338

          k = 0.5905 0.0000-0.3185 (  2775 PWs)   bands (ev):

   -35.9581  -0.6199  -0.1064   2.4972   4.8685   5.7115   6.8202   7.5459
     8.2241  12.6455  13.0240  13.7105  13.9196  14.7199

          k = 0.3609 0.0000-0.0955 (  2789 PWs)   bands (ev):

   -35.9594  -2.3251   2.8194   3.2470   5.1515   5.3696   6.3579   8.0224
     8.5546  10.6887  11.3274  12.0165  12.0698  14.1844

          k = 0.1312 0.1312 0.2548 (  2793 PWs)   bands (ev):

   -35.9598  -2.5617   3.2364   3.3245   4.8142   6.7614   7.0637   7.5803
     9.1624   9.5118   9.5976  12.0594  13.1593  13.4324

          k =-0.0984 0.1312 0.4777 (  2786 PWs)   bands (ev):

   -35.9588  -1.5535   1.6769   1.9968   5.2595   5.5661   6.3924   8.1292
     8.4455  10.1061  12.9059  13.1867  14.3636  15.5620

          k = 0.5905 0.1312-0.1911 (  2770 PWs)   bands (ev):

   -35.9575  -0.7150   0.7712   1.4720   5.1553   5.3542   6.2699   7.4641
     9.3565  10.6407  13.7740  14.2312  14.7028  15.3375

          k = 0.3609 0.1312 0.0318 (  2794 PWs)   bands (ev):

   -35.9600  -2.2690   2.5203   3.4378   4.6915   5.9236   6.3732   7.1609
     9.5591  10.7973  11.2853  11.9783  12.3320  13.7915

          k = 0.1312 0.2624 0.3821 (  2796 PWs)   bands (ev):

   -35.9597  -1.7144   1.3006   2.6676   4.2014   6.4962   7.3562   8.1270
     9.9943  10.5000  11.1586  11.7687  13.7448  15.1174

          k =-0.0984 0.2624 0.6051 (  2784 PWs)   bands (ev):

   -35.9589  -0.4283   0.1629   1.7337   5.0090   5.8960   6.5639   6.8173
     8.8444  11.9244  13.2643  14.1899  14.7611  15.2966

          k = 0.5905 0.2624-0.0637 (  2779 PWs)   bands (ev):

   -35.9581  -0.6159   0.2230   2.2362   4.1605   6.0277   6.7767   7.4541
     8.1186  12.0214  13.6109  14.2285  14.8024  15.3151

          k = 0.3609 0.2624 0.1592 (  2780 PWs)   bands (ev):

   -35.9584  -1.7864   1.6217   2.6815   3.7589   6.5009   7.3157   8.0877
    10.3177  10.9558  11.3561  11.7328  13.6643  14.3361

          k = 0.1312-0.5249-0.3821 (  2779 PWs)   bands (ev):

   -35.9581  -0.6654  -0.1423   2.4765   3.9675   6.3056   7.4927   8.6409
     9.2037  11.6545  12.2298  12.5647  14.0140  14.2597

          k =-0.0984-0.5249-0.1592 (  2779 PWs)   bands (ev):

   -35.9584  -1.2664   1.3082   1.9279   5.0640   5.1885   6.3029   8.2519
     8.9281  10.1251  12.9712  13.8504  14.4992  15.2763

          k = 0.5905-0.5249-0.8280 (  2776 PWs)   bands (ev):

   -35.9574  -0.8215   0.0552   2.7889   4.4866   5.3525   6.6952   8.1295
     8.8428  12.4628  12.9168  13.5350  14.2182  15.1124

          k = 0.3609-0.5249-0.6051 (  2774 PWs)   bands (ev):

   -35.9572  -0.8860   1.0246   1.7482   2.2142   8.2688   8.5343   9.3848
    10.6466  11.2289  11.4059  11.4421  12.7136  14.1128

          k = 0.1312-0.3937-0.2548 (  2785 PWs)   bands (ev):

   -35.9594  -1.7033   1.3092   2.7168   4.1443   6.4041   7.1259   8.0360
    10.2356  10.6486  11.3272  12.3742  13.1155  14.1744

          k =-0.0984-0.3937-0.0318 (  2800 PWs)   bands (ev):

   -35.9605  -2.1625   2.5365   3.1593   4.4924   5.5830   6.7197   7.4341
     9.3096  10.2425  11.4834  12.3461  12.7542  14.1840

          k = 0.5905-0.3937-0.7006 (  2775 PWs)   bands (ev):

   -35.9575  -1.3202   0.9823   2.4209   3.1603   6.9372   7.5512   8.6715
    10.8195  11.0052  11.4383  11.9870  13.3467  14.7051

          k = 0.3609-0.3937-0.4777 (  2774 PWs)   bands (ev):

   -35.9576  -0.0039   0.4463   0.9933   2.0539   9.0197   9.5989   9.8753
    10.2509  10.9554  11.7029  11.9590  12.3931  13.0842

          k = 0.1312-0.2624-0.1274 (  2794 PWs)   bands (ev):

   -35.9603  -2.5537   3.3502   3.3863   4.7173   6.3369   6.8270   7.6111
     8.8648  10.0734  10.2098  11.9823  12.8066  13.4287

          k =-0.0984-0.2624 0.0955 (  2792 PWs)   bands (ev):

   -35.9601  -2.6474   3.5776   3.6185   5.2050   6.0214   6.5095   7.4732
     8.6339  10.2350  10.2791  11.4685  12.5498  13.2439

          k = 0.5905-0.2624-0.5732 (  2783 PWs)   bands (ev):

   -35.9583  -1.4357   1.5632   2.2800   2.4305   8.1324   8.3026   9.1457
     9.9605  10.2430  10.9757  11.8900  12.5649  14.7120

          k = 0.3609-0.2624-0.3503 (  2780 PWs)   bands (ev):

   -35.9579  -1.1604   1.1133   2.1858   2.3430   8.2273   8.4097   9.2874
    10.2657  10.6025  11.2314  11.6080  12.3557  14.9482

          k = 0.2624-0.2624-0.0000 (  2795 PWs)   bands (ev):

   -35.9601  -2.3343   2.1970   4.4090   4.9060   5.2453   5.9219   7.8179
     9.9165  10.7471  11.4811  12.3512  12.4371  12.6424

          k = 0.0328-0.2624 0.2229 (  2790 PWs)   bands (ev):

   -35.9599  -2.4382   2.4123   4.0834   4.7411   5.9631   6.8069   7.6968
     9.3171   9.8105  10.7992  12.2344  12.7978  13.3687

          k = 0.7217-0.2624-0.4458 (  2788 PWs)   bands (ev):

   -35.9592  -1.2426   1.0215   1.7835   3.9837   6.9180   7.5542   8.6307
     9.1715  11.0766  11.6546  12.2470  14.0930  14.5642

          k = 0.4921-0.2624-0.2229 (  2772 PWs)   bands (ev):

   -35.9575  -0.9441   0.9072   1.4016   3.8844   6.6427   7.4398   8.9939
     9.3404  10.5761  12.9019  13.0217  14.3165  14.6084

          k = 0.0328-0.1312 0.3503 (  2789 PWs)   bands (ev):

   -35.9598  -2.2881   2.4435   3.1291   5.5053   6.0623   6.2665   7.5033
     9.2406  10.2784  10.8745  11.4981  13.3772  14.1771

          k = 0.7217-0.1312-0.3185 (  2778 PWs)   bands (ev):

   -35.9585  -0.7404   0.7598   1.4488   5.2294   5.8123   6.2992   6.9437
     9.1218  11.2102  13.5740  14.1696  14.6708  15.4134

          k = 0.4921-0.1312-0.0955 (  2786 PWs)   bands (ev):

   -35.9589  -1.5251   1.7177   2.1315   4.5968   5.4556   6.4440   8.3674
     8.7894  10.0272  12.4691  13.7334  13.8716  15.4873

          k = 0.0328 0.0000 0.4777 (  2784 PWs)   bands (ev):

   -35.9586  -1.7138   2.1993   2.2571   4.7036   4.8597   7.7006   8.1363
     8.2914   8.8061  13.3926  13.4867  13.6399  15.5359

          k = 0.7217 0.0000-0.1911 (  2775 PWs)   bands (ev):

   -35.9579   0.0177   0.3906   1.5935   4.1517   4.8900   5.5233   7.9524
     9.3709  11.8666  13.0500  13.7194  15.8340  16.1337

          k = 0.4921 0.0000 0.0318 (  2779 PWs)   bands (ev):

   -35.9582  -1.6855   2.3268   2.4768   3.9374   4.6939   7.7269   8.4884
     8.6024   8.9873  11.5478  14.1513  14.1941  15.3500

          k = 0.0328 0.1312 0.6051 (  2781 PWs)   bands (ev):

   -35.9580  -0.7290   1.0417   1.7111   4.3790   5.0468   6.0679   7.7235
     8.9970  10.8211  14.2140  14.5774  15.0890  15.5219

          k = 0.7217 0.1312-0.0637 (  2765 PWs)   bands (ev):

   -35.9574   0.0659   0.7509   1.4493   3.4796   4.8042   5.4256   8.4010
     9.7754  11.3154  13.0102  13.7178  14.8448  17.1486

          k = 0.4921 0.1312 0.1592 (  2778 PWs)   bands (ev):

   -35.9584  -1.4215   1.5057   1.8881   5.0922   5.5516   6.1000   8.7182
     8.8906   9.9914  13.0314  13.4192  13.8043  15.3658

          k = 0.2624-0.6561-0.3821 (  2772 PWs)   bands (ev):

   -35.9578  -0.6758   0.7119   1.0985   3.8445   7.3392   7.6020   8.3339
     9.3786  11.2179  12.6123  12.8199  13.5617  14.1707

          k = 0.0328-0.6561-0.1592 (  2776 PWs)   bands (ev):

   -35.9581  -0.4118   0.7233   1.6754   4.2819   4.6855   6.3004   7.6029
     9.3268  11.1710  13.1457  13.8803  15.6305  16.5792

          k = 0.7217-0.6561-0.8280 (  2768 PWs)   bands (ev):

   -35.9573  -0.3154   0.4633   1.7879   3.7948   5.6400   6.3602   7.3663
     8.8124  11.6195  13.2938  14.1852  15.2667  16.0563

          k = 0.4921-0.6561-0.6051 (  2773 PWs)   bands (ev):

   -35.9576  -0.7407   0.7378   1.2764   3.3916   7.4358   7.7219   9.3670
     9.5293  10.5545  12.4837  12.9506  13.4716  14.3771

          k = 0.2624-0.5249-0.2548 (  2770 PWs)   bands (ev):

   -35.9574  -0.6504   0.7053   1.1121   3.8308   6.9176   7.4325   8.8907
     9.5167  10.5316  13.1073  13.4194  14.0325  14.3626

          k = 0.0328-0.5249-0.0318 (  2774 PWs)   bands (ev):

   -35.9577  -1.4750   2.0901   2.3059   3.7931   4.6322   7.8525   8.1133
     8.5965   9.3564  11.6853  14.6537  14.6758  15.6308

          k = 0.7217-0.5249-0.7006 (  2774 PWs)   bands (ev):

   -35.9580  -1.0139   1.0723   1.4016   4.7755   5.9390   6.4818   8.5406
     9.1447  10.3505  13.5539  13.8662  14.2846  14.8155

          k = 0.4921-0.5249-0.4777 (  2772 PWs)   bands (ev):

   -35.9573   0.2331   0.4430   0.9282   1.6881   9.3965   9.9103  10.1814
    10.6910  10.8596  11.5709  11.7403  12.1141  13.0372

          k = 0.2624-0.3937-0.1274 (  2777 PWs)   bands (ev):

   -35.9579  -1.6922   1.3429   2.7502   4.1740   5.9594   7.0857   7.9194
    10.5410  10.8578  11.5310  12.3283  13.5518  14.5015

          k = 0.0328-0.3937 0.0955 (  2787 PWs)   bands (ev):

   -35.9592  -2.1643   2.6007   2.9561   5.0049   5.2367   6.4597   8.1581
     8.7518  10.2622  11.5331  12.3696  12.5629  14.5919

          k = 0.7217-0.3937-0.5732 (  2787 PWs)   bands (ev):

   -35.9588  -1.3345   0.9501   2.4355   3.1367   7.3198   7.8855   8.6026
    10.5404  10.6622  11.3016  11.9889  12.5872  15.0348

          k = 0.4921-0.3937-0.3503 (  2769 PWs)   bands (ev):

   -35.9570   0.0165   0.4416   0.9823   2.0535   8.8048   9.4063  10.1473
    10.2143  10.7631  12.0502  12.1054  12.7223  13.3302

          k = 0.3937-0.3937-0.0000 (  2769 PWs)   bands (ev):

   -35.9567  -1.2712   0.3172   3.9486   4.5011   4.8671   5.7405   8.8095
    10.6141  11.1498  12.2816  13.0857  13.7460  14.5225

          k = 0.1640-0.3937 0.2229 (  2786 PWs)   bands (ev):

   -35.9593  -1.7395   1.6229   2.3690   4.1343   6.6350   6.9149   8.3584
     9.7409  10.7145  11.4755  12.1416  13.5144  14.2189

          k = 0.8529-0.3937-0.4458 (  2782 PWs)   bands (ev):

   -35.9586  -0.9728  -0.0426   3.2249   4.1340   5.8417   6.7739   9.0879
     9.6330  10.7474  11.8832  13.1057  13.7653  14.7171

          k = 0.6233-0.3937-0.2229 (  2771 PWs)   bands (ev):

   -35.9574  -0.6359   0.5227   1.3266   3.8409   6.6075   7.7119   8.8406
     9.2044  10.8897  13.1121  13.4565  14.1943  14.3894

          k = 0.1640-0.2624 0.3503 (  2791 PWs)   bands (ev):

   -35.9593  -1.8032   1.5749   2.6358   3.7841   7.0038   7.5611   8.2909
    10.0211  10.4202  10.9853  11.2712  13.6244  14.9317

          k = 0.8529-0.2624-0.3185 (  2777 PWs)   bands (ev):

   -35.9584  -0.6629   0.2234   2.0541   4.8926   5.9573   6.7162   7.0083
     8.4399  12.0903  13.4264  13.8204  14.6318  15.1591

          k = 0.6233-0.2624-0.0955 (  2773 PWs)   bands (ev):

   -35.9576  -0.3768   0.1484   1.8497   4.3566   5.9305   6.8144   7.1376
     8.5093  11.7624  13.9131  14.0969  15.0200  15.5668

          k = 0.1640-0.1312 0.4777 (  2783 PWs)   bands (ev):

   -35.9586  -1.4469   1.4650   1.8405   5.2856   5.9055   6.2342   8.2317
     8.5544  10.4580  12.7232  13.0217  14.6622  15.3536

          k = 0.8529-0.1312-0.1911 (  2773 PWs)   bands (ev):

   -35.9575   0.0549   0.7614   1.2753   4.2507   4.6810   4.9323   8.2981
     9.9209  11.3949  12.9940  14.2312  15.2448  15.9607

          k = 0.6233-0.1312 0.0318 (  2771 PWs)   bands (ev):

   -35.9578  -0.6981   1.0554   1.9632   3.5299   5.0206   6.6900   7.9176
     8.7007  11.0385  12.4974  14.9498  15.3450  15.9274

          k = 0.1640-0.0000 0.6051 (  2777 PWs)   bands (ev):

   -35.9578  -0.6801   0.7939   1.8244   4.3749   5.3898   6.1067   7.4805
     8.8051  11.2347  14.0713  14.5186  14.8334  15.6604

          k = 0.8529 0.0000-0.0637 (  2759 PWs)   bands (ev):

   -35.9568   0.8982   1.0896   1.1346   3.0543   3.6945   4.2605  10.4542
    11.0419  11.4763  12.6175  12.7961  13.6223  15.2507

          k = 0.6233-0.0000 0.1592 (  2783 PWs)   bands (ev):

   -35.9588  -0.6578   0.8314   1.8477   4.3263   4.7679   6.7434   7.3917
     9.0829  10.9862  12.9616  14.2915  15.2897  16.2897

          k = 0.1640-0.7873-0.1592 (  2775 PWs)   bands (ev):

   -35.9578   0.3509   0.5530   0.9391   4.4556   4.8669   5.1656   7.7806
    10.4643  11.0297  12.8393  14.1414  15.3255  16.6524

          k = 0.8529-0.7873-0.8280 (  2759 PWs)   bands (ev):

   -35.9566   0.4964   1.0176   1.2244   3.2177   4.1159   4.6796   9.5019
    10.7433  11.1623  12.8078  13.1197  14.2977  16.0028

          k = 0.6233-0.7873-0.6051 (  2780 PWs)   bands (ev):

   -35.9585  -0.3804   0.0766   1.6281   5.0868   5.8036   6.6934   7.2528
     8.9647  11.7293  13.2600  14.0246  14.4825  15.1775

          k = 0.1640-0.6561-0.0318 (  2769 PWs)   bands (ev):

   -35.9574  -0.3982   0.6906   1.9057   3.4878   5.2741   6.2921   7.8845
     8.7290  11.5587  12.8188  14.5083  15.0891  16.2628

          k = 0.8529-0.6561-0.7006 (  2780 PWs)   bands (ev):

   -35.9584  -0.3366   0.4822   1.6199   4.5445   5.0707   6.3552   7.1859
     9.2685  11.3883  13.4935  13.7781  15.4554  16.0652

          k = 0.6233-0.6561-0.4777 (  2779 PWs)   bands (ev):

   -35.9583  -0.7600   0.7440   1.2628   3.4053   7.6318   8.0932   8.9371
     9.2709  11.2813  11.9990  12.3387  13.6184  13.7519

          k = 0.3937-0.5249-0.1274 (  2769 PWs)   bands (ev):

   -35.9570  -0.6064  -0.1495   2.5391   3.9792   5.7964   7.0763   8.8374
     9.3144  12.2174  12.5520  12.9036  14.0516  14.8863

          k = 0.1640-0.5249 0.0955 (  2782 PWs)   bands (ev):

   -35.9583  -1.2614   1.2932   2.0175   4.5012   5.6186   6.4329   8.1894
     8.5720  10.5057  12.8797  14.0418  14.3939  15.3801

          k = 0.8529-0.5249-0.5732 (  2778 PWs)   bands (ev):

   -35.9581  -0.8586   0.0425   2.6189   4.8406   5.5070   7.0273   7.8793
     8.9070  12.1918  12.5975  12.7579  14.3940  14.7899

          k = 0.6233-0.5249-0.3503 (  2780 PWs)   bands (ev):

   -35.9578  -0.8946   0.9990   1.7866   2.1982   8.4689   8.7643   9.4775
    10.4827  10.7340  11.3618  11.5940  12.2185  14.5673

     the Fermi energy is    10.6290 ev

!    total energy              =     -47.89474666 Ry
     estimated scf accuracy    <          1.2E-09 Ry
     smearing contrib. (-TS)   =      -0.00018968 Ry
     internal energy E=F+TS    =     -47.89455698 Ry

     The total energy is F=E-TS. E is the sum of the following terms:
     one-electron contribution =      10.08586429 Ry
     hartree contribution      =       4.39199382 Ry
     xc contribution           =     -16.22813438 Ry
     ewald contribution        =     -46.14428071 Ry

     convergence has been achieved in   9 iterations

     Forces acting on atoms (cartesian axes, Ry/au):

     atom    1 type  1   force =     0.08498643   -0.08498643   -0.06790255
     atom    2 type  1   force =    -0.08498643   -0.08498643    0.06790255
     atom    3 type  1   force =    -0.08498643    0.08498643   -0.06790255
     atom    4 type  1   force =     0.08498643    0.08498643    0.06790255
     atom    5 type  2   force =     0.00000000    0.00000000   -0.00000000
     The non-local contrib.  to forces
     atom    1 type  1   force =     0.08685342   -0.08685342   -0.05519304
     atom    2 type  1   force =    -0.08685342   -0.08685342    0.05519304
     atom    3 type  1   force =    -0.08685342    0.08685342   -0.05519304
     atom    4 type  1   force =     0.08685342    0.08685342    0.05519304
     atom    5 type  2   force =    -0.00000000    0.00000000    0.00000000
     The ionic contribution  to forces
     atom    1 type  1   force =     0.48888813   -0.48888813   -0.04176566
     atom    2 type  1   force =    -0.48888813   -0.48888813    0.04176566
     atom    3 type  1   force =    -0.48888813    0.48888813   -0.04176566
     atom    4 type  1   force =     0.48888813    0.48888813    0.04176566
     atom    5 type  2   force =     0.00000000    0.00000000    0.00000000
     The local contribution  to forces
     atom    1 type  1   force =    -0.48505014    0.48505014    0.02645192
     atom    2 type  1   force =     0.48505014    0.48505014   -0.02645192
     atom    3 type  1   force =     0.48505014   -0.48505014    0.02645192
     atom    4 type  1   force =    -0.48505014   -0.48505014   -0.02645192
     atom    5 type  2   force =     0.00000000    0.00000000    0.00000000
     The core correction contribution to forces
     atom    1 type  1   force =    -0.00571185    0.00571185    0.00260360
     atom    2 type  1   force =     0.00571185    0.00571185   -0.00260360
     atom    3 type  1   force =     0.00571185   -0.00571185    0.00260360
     atom    4 type  1   force =    -0.00571185   -0.00571185   -0.00260360
     atom    5 type  2   force =     0.00000000    0.00000000    0.00000000
     The Hubbard contrib.    to forces
     atom    1 type  1   force =     0.00000000    0.00000000    0.00000000
     atom    2 type  1   force =     0.00000000    0.00000000    0.00000000
     atom    3 type  1   force =     0.00000000    0.00000000    0.00000000
     atom    4 type  1   force =     0.00000000    0.00000000    0.00000000
     atom    5 type  2   force =     0.00000000    0.00000000    0.00000000
     The SCF correction term to forces
     atom    1 type  1   force =     0.00000686   -0.00000686    0.00000063
     atom    2 type  1   force =    -0.00000686   -0.00000686   -0.00000063
     atom    3 type  1   force =    -0.00000686    0.00000686    0.00000063
     atom    4 type  1   force =     0.00000686    0.00000686   -0.00000063
     atom    5 type  2   force =    -0.00000000   -0.00000000    0.00000000

     Total force =     0.276088     Total SCF correction =     0.000019


     Computing stress (Cartesian axis) and pressure

          total   stress  (Ry/bohr**3)                   (kbar)     P=      220.24
   0.00169318   0.00000000   0.00000000          249.08        0.00        0.00
   0.00000000   0.00169318  -0.00000000            0.00      249.08       -0.00
   0.00000000  -0.00000000   0.00110521            0.00       -0.00      162.58

     Energy error            =      6.1E-01 Ry
     Gradient error          =      8.5E-02 Ry/Bohr
     Cell gradient error     =      3.4E+02 kbar

     number of scf cycles    =   2
     number of bfgs steps    =   1

     enthalpy           old  =     -45.8482341400 Ry
     enthalpy           new  =     -46.4600151187 Ry

     CASE: enthalpy          _new < enthalpy          _old

     new trust radius        =       0.3192181699 bohr
ibrav =      7
 celldm(1) =      9.05388700
 celldm(3) =      0.98201609
Input lattice vectors:
     0.52664879    -0.52664879     0.51717758
     0.52664879     0.52664879     0.51717758
    -0.52664879    -0.52664879     0.51717758
New lattice vectors in INITIAL alat:
     0.52664879    -0.52664879     0.51717758
     0.52664879     0.52664879     0.51717758
    -0.52664879    -0.52664879     0.51717758
New lattice vectors in NEW alat (for information only):
     0.50000000    -0.50000000     0.49100804
     0.50000000     0.50000000     0.49100804
    -0.50000000    -0.50000000     0.49100804
Discrepancy in bohr =     0.000000    0.000000    0.000000
     new conv_thr            =       0.0000000008 Ry

     new unit-cell volume =    364.41296 a.u.^3 (    54.00043 Ang^3 )
     density =      3.66801 g/cm^3

CELL_PARAMETERS (alat=  8.59575415)
   0.526648787  -0.526648787   0.517177582
   0.526648787   0.526648787   0.517177582
  -0.526648787  -0.526648787   0.517177582

ATOMIC_POSITIONS (crystal)
Si           -0.4505868424        1.0573077017        0.0573077017
Si            0.0000000000        1.3932791407       -0.0573077017
Si            0.4505868424        0.6067208593       -0.3932791407
Si           -0.0000000000        0.9426922983        0.3932791407
Li           -0.0000000000        0.5000000000        0.5000000000



     Writing config-only to output data dir ./output/SiLi.save/
     NEW-OLD atomic charge density approx. for the potential
     extrapolated charge   15.99273, renormalised to   19.00000

     total cpu time spent up to now is       33.3 secs

     Self-consistent Calculation

     iteration #  1     ecut=    60.00 Ry     beta= 0.80
     Davidson diagonalization with overlap
     c_bands:  1 eigenvalues not converged
     c_bands:  1 eigenvalues not converged
     c_bands:  1 eigenvalues not converged
     c_bands:  1 eigenvalues not converged
     c_bands:  1 eigenvalues not converged
     c_bands:  1 eigenvalues not converged
     c_bands:  1 eigenvalues not converged
     c_bands:  1 eigenvalues not converged
     c_bands:  1 eigenvalues not converged
     c_bands:  1 eigenvalues not converged
     c_bands:  1 eigenvalues not converged
     c_bands:  1 eigenvalues not converged
     c_bands:  1 eigenvalues not converged
     c_bands:  1 eigenvalues not converged
     c_bands:  1 eigenvalues not converged
     c_bands:  1 eigenvalues not converged
     c_bands:  1 eigenvalues not converged
     ethr =  1.00E-06,  avg # of iterations = 16.2

     total cpu time spent up to now is       37.1 secs

     total energy              =     -47.80280452 Ry
     estimated scf accuracy    <       0.04328011 Ry

     iteration #  2     ecut=    60.00 Ry     beta= 0.80
     Davidson diagonalization with overlap
     ethr =  2.28E-04,  avg # of iterations =  3.6

     total cpu time spent up to now is       38.5 secs

     total energy              =     -47.88593433 Ry
     estimated scf accuracy    <       0.10554606 Ry

     iteration #  3     ecut=    60.00 Ry     beta= 0.80
     Davidson diagonalization with overlap
     ethr =  2.28E-04,  avg # of iterations =  2.0

     total cpu time spent up to now is       39.5 secs

     total energy              =     -47.88048382 Ry
     estimated scf accuracy    <       0.02130434 Ry

     iteration #  4     ecut=    60.00 Ry     beta= 0.80
     Davidson diagonalization with overlap
     ethr =  1.12E-04,  avg # of iterations =  2.0

     total cpu time spent up to now is       40.6 secs

     total energy              =     -47.88382504 Ry
     estimated scf accuracy    <       0.00044551 Ry

     iteration #  5     ecut=    60.00 Ry     beta= 0.80
     Davidson diagonalization with overlap
     ethr =  2.34E-06,  avg # of iterations =  6.0

     total cpu time spent up to now is       42.1 secs

     total energy              =     -47.88401369 Ry
     estimated scf accuracy    <       0.00000893 Ry

     iteration #  6     ecut=    60.00 Ry     beta= 0.80
     Davidson diagonalization with overlap
     ethr =  4.70E-08,  avg # of iterations =  3.9

     total cpu time spent up to now is       43.4 secs

     total energy              =     -47.88402022 Ry
     estimated scf accuracy    <       0.00000036 Ry

     iteration #  7     ecut=    60.00 Ry     beta= 0.80
     Davidson diagonalization with overlap
     ethr =  1.89E-09,  avg # of iterations =  2.7

     total cpu time spent up to now is       44.6 secs

     total energy              =     -47.88402012 Ry
     estimated scf accuracy    <       0.00000028 Ry

     iteration #  8     ecut=    60.00 Ry     beta= 0.80
     Davidson diagonalization with overlap
     ethr =  1.47E-09,  avg # of iterations =  2.0

     total cpu time spent up to now is       45.7 secs

     total energy              =     -47.88402019 Ry
     estimated scf accuracy    <          5.2E-09 Ry

     iteration #  9     ecut=    60.00 Ry     beta= 0.80
     Davidson diagonalization with overlap
     ethr =  2.73E-11,  avg # of iterations =  3.4

     total cpu time spent up to now is       46.9 secs

     End of self-consistent calculation

          k = 0.0000 0.0000 0.0000 (  2779 PWs)   bands (ev):

   -33.6136  -2.4623   7.6977   7.6977   8.0693   8.1330   8.1330   8.7935
     9.7523   9.7523  10.0702  11.0454  11.8500  14.9800

          k =-0.2373 0.0000 0.2417 (  2795 PWs)   bands (ev):

   -33.6128  -1.7420   4.1349   5.9760   6.3077   7.2312   8.2331   9.6188
    11.1915  11.9757  12.6703  14.0621  15.3522  15.4770

          k = 0.4747-0.0000-0.4834 (  2784 PWs)   bands (ev):

   -33.6118  -0.0065   1.0115   5.2357   5.5651   6.6404   7.9931  11.3134
    12.1703  12.6602  13.8964  16.0025  16.8970  18.1123

          k =-0.0000 0.1356 0.1381 (  2801 PWs)   bands (ev):

   -33.6140  -2.2262   5.9749   6.7202   7.0480   7.6996   8.3613   9.3990
    10.3198  10.4782  11.1132  12.3713  13.7362  15.2141

          k =-0.2373 0.1356 0.3798 (  2793 PWs)   bands (ev):

   -33.6121  -1.0944   3.1150   4.2131   5.7211   7.9526   8.9248   9.4038
    11.9337  12.7316  13.7338  14.2226  16.1285  16.5416

          k = 0.4747 0.1356-0.3453 (  2778 PWs)   bands (ev):

   -33.6113  -0.2501   1.6987   3.8556   5.4943   7.6221   9.1136  10.4484
    11.4861  13.4831  14.3373  15.0600  15.9627  17.8243

          k = 0.2373 0.1356-0.1036 (  2789 PWs)   bands (ev):

   -33.6129  -1.9242   4.8667   5.5767   6.5678   8.1258   8.3971   9.2630
    10.7830  11.4845  12.0981  13.6729  14.5328  15.4571

          k =-0.0000 0.2713 0.2762 (  2793 PWs)   bands (ev):

   -33.6126  -1.5237   3.5540   5.7813   6.1130   7.0852   8.1740   9.8038
    11.4429  12.5497  13.2565  14.6200  14.8784  15.5192

          k =-0.2373 0.2713 0.5179 (  2775 PWs)   bands (ev):

   -33.6112  -0.0228   2.1386   2.6208   5.3421   8.5220   9.0989  10.6705
    11.1090  13.1558  14.9862  15.5067  16.2679  17.1554

          k = 0.4747 0.2713-0.2072 (  2777 PWs)   bands (ev):

   -33.6110  -0.3267   2.0450   3.3272   5.5240   8.4449   8.9761  10.6276
    11.3338  12.6567  14.1148  15.0592  16.3749  17.3282

          k = 0.2373 0.2713 0.0345 (  2794 PWs)   bands (ev):

   -33.6126  -1.6359   3.6185   5.9743   6.4968   7.7582   7.9485   9.0623
    11.2805  12.6670  13.3993  14.1411  14.2825  15.2598

          k =-0.0000 0.4069 0.4143 (  2784 PWs)   bands (ev):

   -33.6115  -0.4166   1.5368   5.2967   5.6265   6.6922   8.0136  10.8758
    12.4154  12.7129  14.0775  15.3782  16.0026  17.7279

          k =-0.2373 0.4069 0.6560 (  2774 PWs)   bands (ev):

   -33.6110   0.2614   1.6897   2.6154   5.3423   8.4566   9.5246  10.4491
    11.2478  13.0942  15.1787  15.3775  16.2475  17.0165

          k = 0.4747 0.4069-0.0691 (  2772 PWs)   bands (ev):

   -33.6104   0.0105   0.8738   5.0523   5.8041   7.4580   8.0531  10.3864
    11.5772  13.2859  13.9296  15.5752  16.5488  17.5127

          k = 0.2373 0.4069 0.1726 (  2778 PWs)   bands (ev):

   -33.6114  -0.8838   2.7071   3.9317   5.7412   8.2651   8.7454  10.0676
    12.0071  12.4329  13.3483  14.3296  15.9841  17.0859

          k = 0.1356-0.1356-0.0000 (  2781 PWs)   bands (ev):

   -33.6129  -2.2303   5.7611   6.8853   7.2473   8.1219   8.1380   8.8360
    10.1412  10.8305  11.5955  12.6020  12.8158  15.4492

          k =-0.1017-0.1356 0.2417 (  2793 PWs)   bands (ev):

   -33.6129  -1.9137   5.0657   5.3979   6.4086   8.1085   8.6582   9.0090
    10.5472  11.6309  11.9108  13.9770  15.1752  15.4562

          k = 0.6103-0.1356-0.4834 (  2782 PWs)   bands (ev):

   -33.6114  -0.2277   1.6671   3.8785   5.4581   7.6886   9.0751  10.0859
    11.7638  13.7587  14.2230  15.0983  15.9972  17.9655

          k = 0.3730-0.1356-0.2417 (  2790 PWs)   bands (ev):

   -33.6124  -1.1132   3.1485   4.1674   5.8116   7.7948   8.8872   9.9405
    12.0979  12.5499  13.3727  13.7482  15.7127  17.0367

          k =-0.1017-0.0000 0.3798 (  2786 PWs)   bands (ev):

   -33.6123  -1.4899   4.1378   4.6951   6.5807   7.3534   8.1176   8.9814
    10.5406  13.0776  13.6747  14.4603  14.5847  17.0826

          k = 0.6103 0.0000-0.3453 (  2775 PWs)   bands (ev):

   -33.6111   0.2430   1.1969   3.8974   5.9265   7.3020   8.6316   9.3495
    10.0575  14.8999  15.8316  16.1563  17.1124  17.4542

          k = 0.3730-0.0000-0.1036 (  2789 PWs)   bands (ev):

   -33.6122  -1.5228   4.3680   4.6401   6.2991   6.9961   8.4738   9.7758
    10.9994  12.4002  13.3738  13.8892  14.2286  16.5053

          k = 0.1356 0.1356 0.2762 (  2793 PWs)   bands (ev):

   -33.6126  -1.7512   4.8044   4.8188   6.2074   8.1559   8.7712   9.0004
    10.7733  12.0823  12.2131  14.5837  15.0348  16.1324

          k =-0.1017 0.1356 0.5179 (  2786 PWs)   bands (ev):

   -33.6114  -0.6078   2.9958   3.3396   6.3994   6.9417   7.9503  10.0374
    10.5033  12.3127  15.4646  16.2655  16.5063  18.6086

          k = 0.6103 0.1356-0.2072 (  2770 PWs)   bands (ev):

   -33.6106   0.1971   2.0247   2.7698   6.3214   7.0874   8.2599   8.9762
    11.2154  13.0614  16.3912  16.6673  17.1388  17.6219

          k = 0.3730 0.1356 0.0345 (  2794 PWs)   bands (ev):

   -33.6125  -1.4650   3.7100   5.1186   6.3093   7.3284   8.4054   9.1166
    11.6975  12.4946  13.0122  13.9590  14.7391  16.2331

          k = 0.1356 0.2713 0.4143 (  2796 PWs)   bands (ev):

   -33.6120  -0.8229   2.5952   4.0718   5.6068   7.8497   8.9941   9.5845
    12.1952  12.9031  13.8719  14.6184  15.8534  17.0964

          k =-0.1017 0.2713 0.6560 (  2784 PWs)   bands (ev):

   -33.6113   0.5092   1.4243   3.0159   6.1448   7.4409   8.1001   9.0052
    10.6137  14.0743  16.2318  17.2304  17.4612  17.7648

          k = 0.6103 0.2713-0.0691 (  2779 PWs)   bands (ev):

   -33.6109   0.3399   1.1641   3.8448   5.8108   7.6810   8.5072   8.9872
    10.0426  14.2583  15.8415  16.1506  17.4374  17.7258

          k = 0.3730 0.2713 0.1726 (  2780 PWs)   bands (ev):

   -33.6115  -0.9393   2.6780   4.2476   5.3468   8.5944   9.1381   9.8121
    12.0889  12.7613  13.0558  13.9795  15.7440  16.9135

          k = 0.1356-0.5425-0.4143 (  2779 PWs)   bands (ev):

   -33.6112   0.1795   1.1514   3.8060   5.4200   7.6106   9.1143  10.7326
    11.0650  14.0801  14.5839  15.0449  16.6790  17.0656

          k =-0.1017-0.5425-0.1726 (  2779 PWs)   bands (ev):

   -33.6111  -0.3878   2.6308   3.2460   6.1688   6.9672   8.3500   9.7687
    10.7424  12.5635  15.3637  16.2610  16.4094  18.1284

          k = 0.6103-0.5425-0.8977 (  2776 PWs)   bands (ev):

   -33.6106   0.1211   0.9712   4.4162   6.1037   7.3897   8.6062   9.6436
    10.3530  14.4237  14.7360  15.5159  17.0719  17.4187

          k = 0.3730-0.5425-0.6560 (  2774 PWs)   bands (ev):

   -33.6106   0.0370   1.9901   3.1918   3.6983  10.4585  10.5490  11.2483
    12.4685  12.8401  13.1220  13.6506  14.8208  16.6685

          k = 0.1356-0.4069-0.2762 (  2785 PWs)   bands (ev):

   -33.6121  -0.8436   2.6316   4.0300   5.6792   7.7188   9.0033  10.0482
    12.2204  12.6610  13.6340  14.1685  16.0161  17.0496

          k =-0.1017-0.4069-0.0345 (  2800 PWs)   bands (ev):

   -33.6126  -1.3511   3.7556   4.8324   6.0297   6.9244   8.7814   9.4730
    11.4240  11.9106  13.3723  14.2347  15.2077  16.6528

          k = 0.6103-0.4069-0.7596 (  2775 PWs)   bands (ev):

   -33.6108  -0.4343   1.9809   3.9532   4.7024   9.0929   9.6517  10.2169
    12.4879  12.6155  13.3220  14.2357  15.2603  17.5209

          k = 0.3730-0.4069-0.5179 (  2774 PWs)   bands (ev):

   -33.6108   0.8695   1.6737   2.1811   3.4954  10.7504  11.5110  11.8179
    12.0373  13.2551  14.1032  14.1355  14.7142  15.1925

          k = 0.1356-0.2713-0.1381 (  2794 PWs)   bands (ev):

   -33.6129  -1.7638   4.5759   5.0246   6.3507   8.0722   8.4773   9.5498
    10.9709  11.8588  12.3104  14.0770  14.6654  15.7744

          k =-0.1017-0.2713 0.1036 (  2792 PWs)   bands (ev):

   -33.6129  -1.8668   4.8542   5.2779   6.8122   7.6677   8.2466   9.4319
    10.8075  11.9219  12.4651  13.4801  14.4346  15.3572

          k = 0.6103-0.2713-0.6215 (  2783 PWs)   bands (ev):

   -33.6113  -0.5459   2.8223   3.4286   3.9985   9.8023  10.0042  10.9309
    12.0516  12.7085  12.8536  14.1433  15.0503  16.9607

          k = 0.3730-0.2713-0.3798 (  2780 PWs)   bands (ev):

   -33.6111  -0.2531   2.3582   3.3011   3.9009   9.8220  10.1065  11.1558
    12.4031  12.9762  13.3139  13.7609  14.8761  17.0179

          k = 0.2713-0.2713-0.0000 (  2795 PWs)   bands (ev):

   -33.6126  -1.5347   3.3234   6.0066   6.5404   7.5650   7.7677   9.1933
    11.3937  13.0587  13.7893  14.0464  14.2811  15.2542

          k = 0.0339-0.2713 0.2417 (  2790 PWs)   bands (ev):

   -33.6126  -1.6276   3.8605   5.6882   6.1981   7.2536   8.3016   9.7196
    11.3397  12.4147  12.7491  14.3376  14.8403  15.7707

          k = 0.7460-0.2713-0.4834 (  2788 PWs)   bands (ev):

   -33.6117  -0.3114   2.2785   3.0613   5.4109   8.2951   9.1249  10.2238
    11.5116  13.1086  14.5419  15.1755  16.1802  17.7567

          k = 0.5086-0.2713-0.2417 (  2772 PWs)   bands (ev):

   -33.6108  -0.0337   1.8847   2.8972   5.4260   8.6287   9.0465  10.8630
    11.1761  12.6309  14.6167  15.2678  16.5958  17.0992

          k = 0.0339-0.1356 0.3798 (  2789 PWs)   bands (ev):

[...]

          k = 0.6435 0.0000-0.3199 (  2773 PWs)   bands (ev):

   -32.8930  -0.0094   1.5355   5.0981   6.0082   8.0672   8.7453   9.7168
    10.6142  14.3985  15.7921  17.1994  17.3950  18.0954

          k = 0.3933-0.0000-0.0960 (  2786 PWs)   bands (ev):

   -32.8942  -1.3800   3.9405   6.0556   6.0784   7.6861   9.0097   9.5949
    11.2034  12.7747  14.0349  14.9549  16.3359  16.9109

          k = 0.1430 0.1430 0.2559 (  2789 PWs)   bands (ev):

   -32.8947  -1.7599   4.8981   5.3605   7.2987   8.5594   9.4264  10.3801
    10.7267  11.8519  12.5035  13.4316  14.8905  15.8367

          k =-0.1073 0.1430 0.4799 (  2781 PWs)   bands (ev):

   -32.8934  -0.8529   3.6270   4.0708   6.5757   7.7774   8.8591   9.5838
    11.3436  13.3281  14.9425  15.4504  16.3752  18.3883

          k = 0.6435 0.1430-0.1920 (  2768 PWs)   bands (ev):

   -32.8927   0.3275   1.9177   3.4969   6.1773   7.5337   8.7150  10.2185
    11.7911  13.1688  16.0659  17.4079  18.1654  18.4257

          k = 0.3933 0.1430 0.0320 (  2787 PWs)   bands (ev):

   -32.8942  -1.2944   4.3624   4.6350   6.4329   7.9918   8.6648   9.6165
    11.7394  13.2940  14.3843  15.1719  15.5099  16.9067

          k = 0.1430 0.2860 0.3839 (  2791 PWs)   bands (ev):

   -32.8940  -0.9230   2.8896   4.6155   6.5907   8.4174  10.0529  10.3878
    10.7176  12.6909  13.8599  14.8463  17.1034  17.7940

          k =-0.1073 0.2860 0.6078 (  2774 PWs)   bands (ev):

   -32.8928   0.1537   1.9033   3.8589   6.3723   7.7356   8.7136   9.4759
    11.3747  14.7185  15.5592  16.9727  17.9531  18.2006

          k = 0.6435 0.2860-0.0640 (  2774 PWs)   bands (ev):

   -32.8929   0.6622   1.6904   3.2308   5.6585   7.9585   9.1873  10.1967
    10.6878  15.0028  16.6888  17.3554  18.2773  19.1244

          k = 0.3933 0.2860 0.1600 (  2775 PWs)   bands (ev):

   -32.8936  -0.7712   3.1616   4.2710   5.4693   8.1745   9.3648  10.8148
    12.6833  14.0469  14.5073  15.1817  15.8869  16.9934

          k = 0.1430-0.5720-0.3839 (  2775 PWs)   bands (ev):

   -32.8933  -0.0435   1.4944   4.5206   6.2047   8.2933   9.4755  10.2814
    11.8350  13.2786  15.1855  15.7479  16.8469  17.7155

          k =-0.1073-0.5720-0.1600 (  2769 PWs)   bands (ev):

   -32.8929  -0.1921   2.3516   4.0954   6.0576   7.4548   8.7571  10.9595
    11.2964  12.7170  15.0284  17.1912  17.7519  18.5824

          k = 0.6435-0.5720-0.8318 (  2770 PWs)   bands (ev):

   -32.8930   0.4466   1.4526   3.8526   6.0790   7.1268   8.8089  10.9323
    11.9461  15.4883  16.0702  17.0156  17.9703  18.2877

          k = 0.3933-0.5720-0.6078 (  2769 PWs)   bands (ev):

   -32.8932   0.1254   2.2953   3.5316   4.0003   9.7301  10.5546  12.2595
    13.1733  13.9554  14.2384  14.9761  15.3704  16.7271

          k = 0.1430-0.4290-0.2559 (  2779 PWs)   bands (ev):

   -32.8937  -0.7736   2.5835   4.8978   6.2087   8.2839   9.0181  10.2432
    12.3192  13.4959  13.9859  15.1664  15.9347  17.1842

          k =-0.1073-0.4290-0.0320 (  2791 PWs)   bands (ev):

   -32.8941  -1.1683   4.1146   4.6347   6.1204   7.9245   8.8041   9.9175
    11.4555  13.0910  13.9253  15.7011  16.2988  17.2912

          k = 0.6435-0.4290-0.7038 (  2774 PWs)   bands (ev):

   -32.8934  -0.2475   2.4213   4.0063   4.8272   8.5570   9.4351  11.6132
    13.4116  14.1588  14.6082  15.3806  16.1328  17.0519

          k = 0.3933-0.4290-0.4799 (  2766 PWs)   bands (ev):

   -32.8930   0.5976   2.2000   2.5505   4.0599  10.6051  11.8169  12.7828
    12.9611  13.1393  13.8135  14.1641  15.5731  15.8883

          k = 0.1430-0.2860-0.1280 (  2791 PWs)   bands (ev):

   -32.8947  -1.6635   4.6240   5.7308   6.5869   8.1947   9.3273   9.7433
    10.9861  12.5986  13.2752  14.2580  15.5119  16.3518

          k =-0.1073-0.2860 0.0960 (  2790 PWs)   bands (ev):

   -32.8948  -1.7617   4.8538   5.9851   7.0107   8.0039   9.0191   9.5856
    10.7950  12.6704  12.9603  14.3168  15.1191  16.5033

          k = 0.6435-0.2860-0.5759 (  2777 PWs)   bands (ev):

   -32.8936  -0.5300   2.9329   3.8382   4.7331   9.9980  10.8896  11.3859
    11.6413  12.8267  13.3030  14.7181  16.1988  17.7294

          k = 0.3933-0.2860-0.3519 (  2775 PWs)   bands (ev):

   -32.8934  -0.2734   2.5291   3.7049   4.6311  10.1914  10.9090  11.4483
    11.9162  13.0672  13.4225  14.8534  15.8642  17.4182

          k = 0.2860-0.2860 0.0000 (  2791 PWs)   bands (ev):

   -32.8944  -1.3681   4.0715   5.3512   6.5222   7.5398   7.9567  10.7825
    12.4303  13.3956  14.1672  14.8640  15.1839  17.0444

          k = 0.0358-0.2860 0.2239 (  2786 PWs)   bands (ev):

   -32.8945  -1.5905   3.8560   6.7349   7.0167   7.9506   8.4038   9.7239
    11.5911  12.4634  13.1341  14.4078  15.3777  16.3378

          k = 0.7865-0.2860-0.4479 (  2783 PWs)   bands (ev):

   -32.8935  -0.4844   2.6935   3.5451   6.2619   8.9094  10.0637  10.2411
    11.5046  13.1738  14.1705  14.6530  17.5212  18.0402

          k = 0.5363-0.2860-0.2239 (  2764 PWs)   bands (ev):

   -32.8930   0.1184   2.1435   3.1588   5.7232   8.0239  10.0980  11.0895
    12.3541  13.2733  15.8360  16.1786  16.7374  17.8795

          k = 0.0358-0.1430 0.3519 (  2785 PWs)   bands (ev):

   -32.8942  -1.5347   4.3190   5.5202   6.6600   8.3007   9.2034  10.0768
    10.7979  12.5465  13.6123  13.9364  14.4832  16.7282

          k = 0.7865-0.1430-0.3199 (  2770 PWs)   bands (ev):

   -32.8927  -0.1061   2.5961   3.4138   6.6227   7.9590   8.3252   9.2150
    11.9803  14.3479  15.3380  16.6841  17.5106  18.2472

          k = 0.5363-0.1430-0.0960 (  2782 PWs)   bands (ev):

   -32.8934  -0.4337   2.9913   3.8260   5.9108   7.7270   8.7418  10.6962
    11.6659  12.6019  14.7096  17.1826  17.6546  18.4392

          k = 0.0358-0.0000 0.4799 (  2784 PWs)   bands (ev):

   -32.8935  -1.0280   4.5684   4.7308   5.4594   6.6240   9.0236  11.0946
    11.1778  12.6453  14.1126  15.9848  16.0439  17.9589

          k = 0.7865-0.0000-0.1920 (  2763 PWs)   bands (ev):

   -32.8921   0.6172   2.1259   4.1084   4.7211   6.7204   7.8829  11.0793
    11.6646  15.1771  15.9228  16.9027  17.5286  19.2242

          k = 0.5363 0.0000 0.0320 (  2775 PWs)   bands (ev):

   -32.8932  -0.6028   3.3447   4.6986   5.0105   6.9969  10.4231  10.5695
    11.1253  11.8364  13.5163  17.5094  18.6761  18.7985

          k = 0.0358 0.1430 0.6078 (  2776 PWs)   bands (ev):

   -32.8926  -0.1129   3.0006   4.1066   5.2892   6.9055   7.7430  10.7946
    11.6830  14.5883  15.9822  16.7570  17.4757  18.6793

          k = 0.7865 0.1430-0.0640 (  2759 PWs)   bands (ev):

   -32.8919   1.3220   2.2738   2.6517   4.6314   7.0742   7.8053  10.8882
    12.5243  14.1683  15.9977  17.0292  18.2254  20.1423

          k = 0.5363 0.1430 0.1600 (  2773 PWs)   bands (ev):

   -32.8932  -0.3620   2.5611   3.9745   6.3858   7.5744   8.5762  11.0192
    11.6723  12.5796  15.1675  16.6714  17.3104  18.0325

          k = 0.2860-0.7150-0.3839 (  2768 PWs)   bands (ev):

   -32.8930   0.0132   2.5906   2.6433   5.9987   9.0031   9.9346  10.3762
    12.4414  13.6974  14.1339  14.9231  16.8361  18.0298

          k = 0.0358-0.7150-0.1600 (  2771 PWs)   bands (ev):

   -32.8924   0.6189   1.8996   4.0862   4.8977   6.7878   8.7727  10.5445
    11.5180  14.1482  15.3511  17.7622  18.5551  19.4406

          k = 0.7865-0.7150-0.8318 (  2768 PWs)   bands (ev):

   -32.8925   0.9691   2.0295   2.7518   5.1440   7.9301   8.9518   9.6461
    11.3481  14.5251  16.3297  17.3148  18.5397  20.0051

          k = 0.5363-0.7150-0.6078 (  2764 PWs)   bands (ev):

   -32.8930   0.2172   1.9858   3.1451   5.3124   8.7609  10.3308  11.7250
    12.3807  12.9569  14.9927  15.9806  16.3917  17.0868

          k = 0.2860-0.5720-0.2559 (  2769 PWs)   bands (ev):

   -32.8930   0.3473   1.9298   2.9463   5.7325   8.1994  10.0758  11.6192
    11.9139  13.1926  15.6153  16.5226  16.8629  17.3249

          k = 0.0358-0.5720-0.0320 (  2770 PWs)   bands (ev):

   -32.8929  -0.3531   3.1421   4.3165   4.9351   6.9192  10.2978  10.8738
    11.1014  11.8293  13.7450  18.1423  19.1379  19.2537

          k = 0.7865-0.5720-0.7038 (  2771 PWs)   bands (ev):

   -32.8930   0.0632   2.1970   3.2863   6.4851   7.4543   9.0555  11.3018
    11.5370  12.9250  16.1410  17.1966  17.2761  17.7420

          k = 0.5363-0.5720-0.4799 (  2766 PWs)   bands (ev):

   -32.8930   0.7483   2.1823   2.5343   3.6953  10.8233  12.3303  12.8039
    13.1701  13.4797  13.8195  14.2100  15.1236  15.5055

          k = 0.2860-0.4290-0.1280 (  2771 PWs)   bands (ev):

   -32.8934  -0.6386   2.9173   4.1657   5.8482   7.6645   9.1575  10.6378
    13.1319  14.0256  14.7859  15.5610  16.0728  17.2952

          k = 0.0358-0.4290 0.0960 (  2784 PWs)   bands (ev):

   -32.8940  -1.1897   3.6764   5.4916   6.0670   7.5772   9.0272   9.9019
    11.3437  12.9480  13.7911  15.3257  16.7966  17.3498

          k = 0.7865-0.4290-0.5759 (  2784 PWs)   bands (ev):

   -32.8937  -0.4346   2.3073   4.3246   5.2446   9.3850   9.8884  10.7921
    12.2677  13.4024  13.6660  15.2657  15.7851  17.9671

          k = 0.5363-0.4290-0.3519 (  2763 PWs)   bands (ev):

   -32.8929   0.7565   1.8915   2.7708   3.9201  10.1711  11.6766  12.4878
    13.4239  13.8402  14.2368  14.7932  15.1588  15.8272

          k = 0.4290-0.4290 0.0000 (  2763 PWs)   bands (ev):

   -32.8930  -0.0813   1.7770   4.8264   6.0085   7.0330   7.6471  11.9986
    14.0187  14.0242  15.4654  16.4000  16.9198  17.5713

          k = 0.1788-0.4290 0.2239 (  2779 PWs)   bands (ev):

   -32.8937  -0.7790   2.8366   4.4874   6.0892   8.1997   9.3080  10.5914
    11.8759  13.6512  14.3759  15.2871  15.6418  17.1714

          k = 0.9295-0.4290-0.4479 (  2777 PWs)   bands (ev):

   -32.8934  -0.2880   1.5179   5.5550   6.4875   7.6974   8.8730  10.2432
    11.7316  12.9497  15.2863  16.0820  16.9976  18.0538

          k = 0.6793-0.4290-0.2239 (  2767 PWs)   bands (ev):

   -32.8930   0.4415   1.8421   2.9478   5.6612   7.9877  10.3412  11.1516
    12.0080  13.8084  16.1158  16.2600  17.1046  17.4578

          k = 0.1788-0.2860 0.3519 (  2785 PWs)   bands (ev):

   -32.8939  -0.9835   3.1385   4.4553   6.1735   8.9785  10.2658  10.5635
    11.0290  12.4953  13.2130  14.5882  17.0763  17.6543

          k = 0.9295-0.2860-0.3199 (  2772 PWs)   bands (ev):

   -32.8928  -0.0531   1.9436   4.3350   6.2180   7.9582   8.8058   9.5083
    10.8070  14.8449  15.6333  17.0005  17.6795  18.0247

          k = 0.6793-0.2860-0.0960 (  2769 PWs)   bands (ev):

   -32.8927   0.8771   1.6208   2.9560   5.7274   7.9427   9.2777   9.9399
    10.8653  14.8091  16.9613  17.1704  18.4577  18.9825

          k = 0.1788-0.1430 0.4799 (  2778 PWs)   bands (ev):

   -32.8933  -0.7377   3.3378   3.7832   6.9690   8.2833   8.4924   9.5191
    11.4692  13.3897  14.9037  15.2316  17.0409  18.3193

          k = 0.9295-0.1430-0.1920 (  2765 PWs)   bands (ev):

   -32.8920   0.5990   2.7075   3.4711   4.8868   6.6015   7.1926  11.2240
    12.7329  14.7745  16.2083  16.8117  17.3458  19.1194

          k = 0.6793-0.1430 0.0320 (  2769 PWs)   bands (ev):

   -32.8925   0.5643   2.6566   2.9192   4.9038   7.3115   9.2555  10.1821
    11.4136  13.6689  15.1877  18.4582  19.0880  20.1876

          k = 0.1788-0.0000 0.6078 (  2773 PWs)   bands (ev):

   -32.8926  -0.0682   2.6664   4.3266   5.2544   7.1951   7.9037  10.6274
    11.2561  15.0635  16.1643  16.5473  17.2847  18.7047

          k = 0.9295-0.0000-0.0640 (  2753 PWs)   bands (ev):

   -32.8913   1.5854   2.6831   3.5679   3.6060   5.6885   6.4442  13.6704
    13.7352  14.9657  15.6950  16.2256  16.5905  17.7218

          k = 0.6793 0.0000 0.1600 (  2777 PWs)   bands (ev):

   -32.8927   0.4210   1.9244   4.4208   4.8721   6.8465   9.2525  10.4482
    11.0717  14.0009  14.9525  18.0171  18.7660  19.2532

          k = 0.1788-0.8580-0.1600 (  2769 PWs)   bands (ev):

   -32.8922   0.9051   2.4440   2.8012   5.1759   7.1774   7.4921  10.4502
    13.3547  13.8265  16.0950  17.1232  18.2048  19.0706

          k = 0.9295-0.8580-0.8318 (  2757 PWs)   bands (ev):

   -32.8916   1.5607   2.3396   3.1217   4.0982   6.2971   6.8933  12.3239
    13.6259  14.1049  15.7591  16.7444  17.4883  18.7358

          k = 0.6793-0.8580-0.6078 (  2771 PWs)   bands (ev):

   -32.8928   0.2256   1.7635   3.6482   6.7547   7.6809   8.6467   9.9210
    11.5316  14.1918  15.4695  16.9570  17.8592  18.2752

          k = 0.1788-0.7150-0.0320 (  2768 PWs)   bands (ev):

   -32.8924   0.9087   2.3263   2.7318   4.8875   7.5765   8.8415  10.0967
    11.4198  14.3432  15.7547  17.7670  18.5417  20.5244

          k = 0.9295-0.7150-0.7038 (  2774 PWs)   bands (ev):

   -32.8925   0.5515   1.8370   3.8671   5.3990   7.0526   8.8167   9.9965
    11.6463  14.2063  15.9081  17.2356  18.2983  19.3441

          k = 0.6793-0.7150-0.4799 (  2773 PWs)   bands (ev):

   -32.8932  -0.0317   2.4734   2.8756   5.5547   9.5674  10.2407  10.9104
    12.2693  13.4009  14.1830  14.3529  16.7541  17.4835

          k = 0.4290-0.5720-0.1280 (  2759 PWs)   bands (ev):

   -32.8928   0.6734   1.1617   3.8439   5.5939   7.4682   8.9990  11.7535
    12.5479  15.3140  15.5157  16.7824  17.5544  17.6448

          k = 0.1788-0.5720 0.0960 (  2781 PWs)   bands (ev):

   -32.8932  -0.1230   2.7279   3.4095   5.8440   7.8324   8.7526  10.6562
    11.3529  13.0906  15.3308  17.7399  17.9436  18.6355

          k = 0.9295-0.5720-0.5759 (  2773 PWs)   bands (ev):

   -32.8931  -0.0843   1.4878   4.9790   6.6709   7.6412   8.6963   9.8688
    11.6348  13.8206  15.1201  16.2238  17.3485  18.3908

          k = 0.6793-0.5720-0.3519 (  2775 PWs)   bands (ev):

   -32.8933   0.0069   2.3645   3.4163   4.3047  10.2081  11.3345  11.8035
    12.0816  13.5073  13.6573  14.8444  15.4861  16.8660

     the Fermi energy is    13.1759 ev

!    total energy              =     -47.88516706 Ry
     estimated scf accuracy    <          8.3E-13 Ry
     smearing contrib. (-TS)   =      -0.00069520 Ry
     internal energy E=F+TS    =     -47.88447185 Ry

     The total energy is F=E-TS. E is the sum of the following terms:
     one-electron contribution =      14.85219148 Ry
     hartree contribution      =       3.77801907 Ry
     xc contribution           =     -16.76888331 Ry
     ewald contribution        =     -49.74579910 Ry

     convergence has been achieved in   9 iterations

     Forces acting on atoms (cartesian axes, Ry/au):

     atom    1 type  1   force =     0.00079739   -0.00079739    0.00165047
     atom    2 type  1   force =    -0.00079739   -0.00079739   -0.00165047
     atom    3 type  1   force =    -0.00079739    0.00079739    0.00165047
     atom    4 type  1   force =     0.00079739    0.00079739   -0.00165047
     atom    5 type  2   force =    -0.00000000   -0.00000000   -0.00000000
     The non-local contrib.  to forces
     atom    1 type  1   force =     0.01009939   -0.01009939    0.01275713
     atom    2 type  1   force =    -0.01009939   -0.01009939   -0.01275713
     atom    3 type  1   force =    -0.01009939    0.01009939    0.01275713
     atom    4 type  1   force =     0.01009939    0.01009939   -0.01275713
     atom    5 type  2   force =     0.00000000    0.00000000    0.00000000
     The ionic contribution  to forces
     atom    1 type  1   force =    -0.03183724    0.03183724    0.20592738
     atom    2 type  1   force =     0.03183724    0.03183724   -0.20592738
     atom    3 type  1   force =     0.03183724   -0.03183724    0.20592738
     atom    4 type  1   force =    -0.03183724   -0.03183724   -0.20592738
     atom    5 type  2   force =    -0.00000000   -0.00000000   -0.00000000
     The local contribution  to forces
     atom    1 type  1   force =     0.02275833   -0.02275833   -0.21553745
     atom    2 type  1   force =    -0.02275833   -0.02275833    0.21553745
     atom    3 type  1   force =    -0.02275833    0.02275833   -0.21553745
     atom    4 type  1   force =     0.02275833    0.02275833    0.21553745
     atom    5 type  2   force =    -0.00000000    0.00000000    0.00000000
     The core correction contribution to forces
     atom    1 type  1   force =    -0.00022318    0.00022318   -0.00149672
     atom    2 type  1   force =     0.00022318    0.00022318    0.00149672
     atom    3 type  1   force =     0.00022318   -0.00022318   -0.00149672
     atom    4 type  1   force =    -0.00022318   -0.00022318    0.00149672
     atom    5 type  2   force =     0.00000000    0.00000000    0.00000000
     The Hubbard contrib.    to forces
     atom    1 type  1   force =     0.00000000    0.00000000    0.00000000
     atom    2 type  1   force =     0.00000000    0.00000000    0.00000000
     atom    3 type  1   force =     0.00000000    0.00000000    0.00000000
     atom    4 type  1   force =     0.00000000    0.00000000    0.00000000
     atom    5 type  2   force =     0.00000000    0.00000000    0.00000000
     The SCF correction term to forces
     atom    1 type  1   force =     0.00000009   -0.00000009    0.00000014
     atom    2 type  1   force =    -0.00000009   -0.00000009   -0.00000014
     atom    3 type  1   force =    -0.00000009    0.00000009    0.00000014
     atom    4 type  1   force =     0.00000009    0.00000009   -0.00000014
     atom    5 type  2   force =     0.00000000   -0.00000000   -0.00000000

     Total force =     0.003998     Total SCF correction =     0.000000


     Computing stress (Cartesian axis) and pressure

          total   stress  (Ry/bohr**3)                   (kbar)     P=      499.94
   0.00340277   0.00000000  -0.00000000          500.57        0.00       -0.00
   0.00000000   0.00340277   0.00000000            0.00      500.57        0.00
  -0.00000000   0.00000000   0.00339009           -0.00        0.00      498.70


     Writing all to output data dir ./output/SiLi.save/

     init_run     :      1.50s CPU      2.39s WALL (       2 calls)
     electrons    :    115.88s CPU    124.94s WALL (      11 calls)
     update_pot   :      2.28s CPU      2.34s WALL (       9 calls)
     forces       :      2.88s CPU      2.98s WALL (      11 calls)
     stress       :     15.46s CPU     15.86s WALL (      11 calls)

     Called by init_run:
     wfcinit      :      0.81s CPU      0.84s WALL (       2 calls)
     potinit      :      0.25s CPU      0.91s WALL (       2 calls)
     hinit0       :      0.40s CPU      0.57s WALL (       2 calls)

     Called by electrons:
     c_bands      :    104.35s CPU    111.95s WALL (      86 calls)
     sum_band     :     10.83s CPU     11.37s WALL (      86 calls)
     v_of_rho     :      0.71s CPU      2.03s WALL (      97 calls)
     mix_rho      :      0.07s CPU      0.20s WALL (      86 calls)

     Called by c_bands:
     init_us_2    :      2.42s CPU      2.88s WALL (   17640 calls)
     init_us_2:cp :      2.39s CPU      2.86s WALL (   17640 calls)
     cegterg      :     96.93s CPU    100.54s WALL (    7740 calls)

     Called by *egterg:
     cdiaghg      :     10.14s CPU     10.59s WALL (   38604 calls)
     h_psi        :     76.41s CPU     79.23s WALL (   39594 calls)
     g_psi        :      0.38s CPU      0.39s WALL (   31674 calls)

     Called by h_psi:
     h_psi:calbec :      7.50s CPU      7.78s WALL (   39594 calls)
     vloc_psi     :     63.25s CPU     65.60s WALL (   39594 calls)
     add_vuspsi   :      5.26s CPU      5.44s WALL (   39594 calls)

     General routines
     calbec       :      8.86s CPU      9.19s WALL (   44544 calls)
     fft          :      0.89s CPU      2.63s WALL (    1243 calls)
     ffts         :      0.05s CPU      0.09s WALL (      86 calls)
     fftw         :     63.81s CPU     66.19s WALL (  844380 calls)

     Parallel routines

     PWSCF        :   2m18.57s CPU   2m29.75s WALL


   This run was terminated on:  21:16:46  22Jan2025            

=------------------------------------------------------------------------------=
   JOB DONE.
=------------------------------------------------------------------------------=
