
     Program PWSCF v.7.2 starts on 21Jan2025 at 23: 4:45 

     This program is part of the open-source Quantum ESPRESSO suite
     for quantum simulation of materials; please cite
         "P. Giannozzi et al., J. Phys.:Condens. Matter 21 395502 (2009);
         "P. Giannozzi et al., J. Phys.:Condens. Matter 29 465901 (2017);
         "P. Giannozzi et al., J. Chem. Phys. 152 154105 (2020);
          URL http://www.quantum-espresso.org", 
     in publications or presentations arising from this work. More details at
     http://www.quantum-espresso.org/quote

     Parallel version (MPI & OpenMP), running on       8 processor cores
     Number of MPI processes:                 8
     Threads/MPI process:                     1

     MPI processes distributed on     1 nodes
     481636 MiB available memory on the printing compute node when the environment starts

     Waiting for input...
     Reading input from standard input

     Current dimensions of program PWSCF are:
     Max number of different atomic species (ntypx) = 10
     Max number of k-points (npk) =  40000
     Max angular momentum in pseudopotentials (lmaxx) =  4

     R & G space division:  proc/nbgrp/npool/nimage =       8
     Subspace diagonalization in iterative solution of the eigenvalue problem:
     a serial algorithm will be used


     Parallelization info
     --------------------
     sticks:   dense  smooth     PW     G-vecs:    dense   smooth      PW
     Min         269     269     82                 5519     5519     944
     Max         270     270     83                 5520     5520     946
     Sum        2159    2159    661                44159    44159    7561

     Using Slab Decomposition



     bravais-lattice index     =            7
     lattice parameter (alat)  =       6.3094  a.u.
     unit-cell volume          =     704.2862 (a.u.)^3
     number of atoms/cell      =           10
     number of atomic types    =            2
     number of electrons       =        38.00
     number of Kohn-Sham states=           23
     kinetic-energy cutoff     =      60.0000  Ry
     charge density cutoff     =     240.0000  Ry
     scf convergence threshold =      1.0E-08
     mixing beta               =       0.8000
     number of iterations used =            8  plain     mixing
     energy convergence thresh.=      5.0E-03
     force convergence thresh. =      1.0E-02
     press convergence thresh. =      2.0E+00
     Exchange-correlation= PBE
                           (   1   4   3   4   0   0   0)
     nstep                     =           50


     celldm(1)=   6.309390  celldm(2)=   0.000000  celldm(3)=   5.608116
     celldm(4)=   0.000000  celldm(5)=   0.000000  celldm(6)=   0.000000

     crystal axes: (cart. coord. in units of alat)
               a(1) = (   0.500000  -0.500000   2.804058 )  
               a(2) = (   0.500000   0.500000   2.804058 )  
               a(3) = (  -0.500000  -0.500000   2.804058 )  

     reciprocal axes: (cart. coord. in units 2 pi/alat)
               b(1) = (  1.000000 -1.000000  0.000000 )  
               b(2) = (  0.000000  1.000000  0.178313 )  
               b(3) = ( -1.000000  0.000000  0.178313 )  


     PseudoPot. # 1 for Si read from file:
     ../pseudo/Si_ONCV_PBE_sr.upf
     MD5 check sum: e543d271109d17c80368dfa7c482276d
     Pseudo is Norm-conserving + core correction, Zval =  4.0
     Generated using ONCVPSP code by D. R. Hamann
     Using radial grid of 1510 points,  6 beta functions with: 
                l(1) =   0
                l(2) =   0
                l(3) =   1
                l(4) =   1
                l(5) =   2
                l(6) =   2

     PseudoPot. # 2 for Li read from file:
     ../pseudo/Li_ONCV_PBE_sr.upf
     MD5 check sum: 50ff420e78310ffa21704f3361e624a4
     Pseudo is Norm-conserving, Zval =  3.0
     Generated using ONCVPSP code by D. R. Hamann
     Using radial grid of 1944 points,  4 beta functions with: 
                l(1) =   0
                l(2) =   0
                l(3) =   1
                l(4) =   1

     atomic species   valence    mass     pseudopotential
        Si             4.00    28.08550     Si( 1.00)
        Li             3.00     6.94100     Li( 1.00)

     16 Sym. Ops., with inversion, found



   Cartesian axes

     site n.     atom                  positions (alat units)
         1           Si  tau(   1) = (   0.0000000   0.5000000   0.4726212  )
         2           Si  tau(   2) = (   0.0000000   0.5000000   5.1354948  )
         3           Si  tau(   3) = (   0.5000000   0.0000000   0.4726212  )
         4           Si  tau(   4) = (   0.5000000   0.0000000   5.1354948  )
         5           Si  tau(   5) = (   0.0000000   0.0000000   1.8935888  )
         6           Si  tau(   6) = (   0.0000000   0.0000000   3.7145272  )
         7           Si  tau(   7) = (   0.0000000   0.0000000   0.0000000  )
         8           Si  tau(   8) = (   0.0000000   0.0000000   2.8040580  )
         9           Li  tau(   9) = (   0.0000000   0.0000000   1.1208801  )
        10           Li  tau(  10) = (   0.0000000   0.0000000   4.4872358  )

     number of k points=    24  Marzari-Vanderbilt smearing, width (Ry)=  0.0200
                       cart. coord. in units 2pi/alat
        k(    1) = (   0.0000000   0.0000000   0.0000000), wk =   0.0185185
        k(    2) = (  -0.3333333   0.0000000   0.0594377), wk =   0.1481481
        k(    3) = (   0.0000000   0.1666667   0.0297188), wk =   0.0740741
        k(    4) = (  -0.3333333   0.1666667   0.0891565), wk =   0.1481481
        k(    5) = (   0.3333333   0.1666667  -0.0297188), wk =   0.1481481
        k(    6) = (  -0.3333333   0.3333333   0.1188753), wk =   0.1481481
        k(    7) = (   0.3333333   0.3333333  -0.0000000), wk =   0.0740741
        k(    8) = (   0.0000000  -0.5000000  -0.0891565), wk =   0.0370370
        k(    9) = (  -0.3333333  -0.5000000  -0.0297188), wk =   0.1481481
        k(   10) = (   0.1666667  -0.1666667   0.0000000), wk =   0.0370370
        k(   11) = (  -0.1666667  -0.1666667   0.0594377), wk =   0.0740741
        k(   12) = (   0.5000000  -0.1666667  -0.0594377), wk =   0.1481481
        k(   13) = (  -0.1666667   0.0000000   0.0891565), wk =   0.0740741
        k(   14) = (   0.5000000   0.0000000  -0.0297188), wk =   0.0740741
        k(   15) = (  -0.1666667   0.1666667   0.1188753), wk =   0.0740741
        k(   16) = (   0.5000000   0.1666667  -0.0000000), wk =   0.0740741
        k(   17) = (  -0.1666667  -0.6666667  -0.0297188), wk =   0.1481481
        k(   18) = (   0.5000000  -0.5000000  -0.1188753), wk =   0.0370370
        k(   19) = (   0.5000000  -0.3333333  -0.0891565), wk =   0.0740741
        k(   20) = (   0.0000000   0.0000000   0.1188753), wk =   0.0370370
        k(   21) = (   0.6666667   0.0000000  -0.0000000), wk =   0.0740741
        k(   22) = (   0.0000000  -0.8333333  -0.0297188), wk =   0.0740741
        k(   23) = (  -0.5000000   0.5000000   0.0000000), wk =   0.0185185
        k(   24) = (  -0.1666667   0.8333333  -0.0000000), wk =   0.0370370

     Dense  grid:    44159 G-vectors     FFT dimensions: (  90,  90,  90)

     Estimated max dynamical RAM per process >      27.95 MB

     Estimated total dynamical RAM >     223.60 MB

     Initial potential from superposition of free atoms

     starting charge      37.9860, renormalised to      38.0000
     Starting wfcs are   36 randomized atomic wfcs

     total cpu time spent up to now is        4.1 secs

     Self-consistent Calculation

     iteration #  1     ecut=    60.00 Ry     beta= 0.80
     Davidson diagonalization with overlap
     ethr =  1.00E-02,  avg # of iterations =  5.0

     Threshold (ethr) on eigenvalues was too large:
     Diagonalizing with lowered threshold

     Davidson diagonalization with overlap
     ethr =  5.30E-04,  avg # of iterations =  5.1

     total cpu time spent up to now is       11.7 secs

     total energy              =     -95.51944763 Ry
     estimated scf accuracy    <       0.24272512 Ry

     iteration #  2     ecut=    60.00 Ry     beta= 0.80
     Davidson diagonalization with overlap
     ethr =  6.39E-04,  avg # of iterations =  5.7

     total cpu time spent up to now is       16.1 secs

     total energy              =     -94.81239247 Ry
     estimated scf accuracy    <       8.59927006 Ry

     iteration #  3     ecut=    60.00 Ry     beta= 0.80
     Davidson diagonalization with overlap
     ethr =  6.39E-04,  avg # of iterations =  5.5

     total cpu time spent up to now is       20.4 secs

     total energy              =     -95.64244826 Ry
     estimated scf accuracy    <       0.07906942 Ry

     iteration #  4     ecut=    60.00 Ry     beta= 0.80
     Davidson diagonalization with overlap
     ethr =  2.08E-04,  avg # of iterations =  2.0

     total cpu time spent up to now is       23.4 secs

     total energy              =     -95.65135520 Ry
     estimated scf accuracy    <       0.01113327 Ry

     iteration #  5     ecut=    60.00 Ry     beta= 0.80
     Davidson diagonalization with overlap
     ethr =  2.93E-05,  avg # of iterations =  3.7

     total cpu time spent up to now is       26.6 secs

     total energy              =     -95.65302200 Ry
     estimated scf accuracy    <       0.00057483 Ry

     iteration #  6     ecut=    60.00 Ry     beta= 0.80
     Davidson diagonalization with overlap
     ethr =  1.51E-06,  avg # of iterations =  5.5

     total cpu time spent up to now is       30.5 secs

     total energy              =     -95.65318376 Ry
     estimated scf accuracy    <       0.00001386 Ry

     iteration #  7     ecut=    60.00 Ry     beta= 0.80
     Davidson diagonalization with overlap
     ethr =  3.65E-08,  avg # of iterations =  4.4

     total cpu time spent up to now is       34.3 secs

     total energy              =     -95.65319023 Ry
     estimated scf accuracy    <       0.00000548 Ry

     iteration #  8     ecut=    60.00 Ry     beta= 0.80
     Davidson diagonalization with overlap
     ethr =  1.44E-08,  avg # of iterations =  2.1

     total cpu time spent up to now is       37.1 secs

     total energy              =     -95.65319085 Ry
     estimated scf accuracy    <       0.00000003 Ry

     iteration #  9     ecut=    60.00 Ry     beta= 0.80
     Davidson diagonalization with overlap
     ethr =  8.31E-11,  avg # of iterations =  5.5

     total cpu time spent up to now is       41.7 secs

     total energy              =     -95.65319090 Ry
     estimated scf accuracy    <       0.00000006 Ry

     iteration # 10     ecut=    60.00 Ry     beta= 0.80
     Davidson diagonalization with overlap
     ethr =  8.31E-11,  avg # of iterations =  2.1

     total cpu time spent up to now is       44.7 secs

     End of self-consistent calculation

          k = 0.0000 0.0000 0.0000 (  5523 PWs)   bands (ev):

   -32.9689 -32.9542  -5.6076  -3.0797   0.1650   3.5312   5.7024   5.7024
     6.5760   7.9616   8.0117   8.0117   8.5641  10.0064  11.1648  11.1648
    11.3822  11.6776  12.8092  12.9471  13.8087  13.8087  16.3191

          k =-0.3333 0.0000 0.0594 (  5541 PWs)   bands (ev):

   -32.9633 -32.9552  -4.1927  -1.7432  -0.0689   1.5457   2.4905   4.7857
     5.8713   6.9859   7.8749   8.4992   9.2338   9.6628  10.8049  11.2956
    12.4560  12.6428  12.9608  13.2862  14.2245  15.3903  15.4730

          k = 0.0000 0.1667 0.0297 (  5524 PWs)   bands (ev):

   -32.9675 -32.9540  -5.2519  -2.7390   0.4632   3.0867   3.7340   5.6158
     6.0237   6.8822   8.2345   8.3239   9.1706  10.2429  11.4151  11.4804
    11.4970  12.2670  13.2277  13.9478  14.0760  14.0837  14.3922

          k =-0.3333 0.1667 0.0892 (  5537 PWs)   bands (ev):

   -32.9618 -32.9551  -3.8402  -1.4074   0.2719   1.8573   2.8173   4.4085
     4.9797   6.1728   6.7788   7.9819   8.7876   9.0391  10.1610  10.8955
    11.1935  12.4646  13.3885  13.7444  14.8225  15.4238  15.6319

          k = 0.3333 0.1667-0.0297 (  5540 PWs)   bands (ev):

   -32.9619 -32.9551  -3.8406  -1.4030   0.2706   1.8266   2.8169   4.4077
     5.1239   6.2128   6.7654   7.7474   8.6408   8.9172  10.2134  10.9550
    11.6858  12.5455  13.3512  13.9654  14.8260  15.3600  15.4799

          k =-0.3333 0.3333 0.1189 (  5524 PWs)   bands (ev):

   -32.9586 -32.9546  -2.7916  -0.4234   1.2508   1.3092   2.9847   3.5253
     4.1871   5.4219   5.8071   6.5490   7.6788   7.9353   9.7687   9.7769
    10.5811  11.7875  11.9433  13.4048  14.7134  14.8323  17.0033

          k = 0.3333 0.3333-0.0000 (  5521 PWs)   bands (ev):

   -32.9586 -32.9545  -2.7923  -0.4153   1.2448   1.3108   2.9324   3.5310
     4.1607   5.4071   6.0571   6.6654   7.6573   7.9328   9.0707   9.4594
    10.6069  11.7939  12.9367  14.9217  14.9418  15.0503  15.1543

          k = 0.0000-0.5000-0.0892 (  5536 PWs)   bands (ev):

   -32.9583 -32.9583  -2.6342  -2.2320  -0.5855   0.7410   2.4272   4.3467
     5.5397   7.2016   8.4006   8.6623   8.8128  10.2409  10.4327  11.1187
    11.6447  11.7294  13.1163  13.4838  13.8539  14.6200  15.0762

          k =-0.3333-0.5000-0.0297 (  5525 PWs)   bands (ev):

   -32.9559 -32.9558  -1.2535  -0.8479   0.7101   2.0795   2.6003   3.2770
     4.1772   5.1560   5.3573   5.8837   6.8814   7.9900   8.7331  10.0938
    10.4815  10.8893  12.1436  13.4058  13.6375  14.9284  15.7276

          k = 0.1667-0.1667 0.0000 (  5495 PWs)   bands (ev):

   -32.9654 -32.9536  -4.8971  -2.3977   0.7540   3.2987   3.5424   3.9966
     5.7942   6.0742   7.0797   8.5772   9.5482  10.9385  11.3329  11.3441
    11.7128  12.0983  12.4736  13.6808  14.1690  14.5258  15.0383

          k =-0.1667-0.1667 0.0594 (  5504 PWs)   bands (ev):

   -32.9655 -32.9538  -4.8969  -2.4001   0.7722   3.2981   3.5427   3.9181
     5.7766   6.0819   7.3217   8.5416   9.5314  10.5414  11.4173  11.4341
    11.7129  12.1069  12.3039  13.9530  14.2746  14.6191  15.0484

          k = 0.5000-0.1667-0.0594 (  5540 PWs)   bands (ev):

   -32.9577 -32.9575  -2.2866  -1.8839  -0.2519   1.0782   2.7232   4.6220
     5.8721   5.9179   6.2095   7.2237   7.9560   9.2466   9.6417  10.8311
    10.9459  12.2313  13.8711  13.9160  14.1653  14.9880  15.2129

          k =-0.1667 0.0000 0.0892 (  5527 PWs)   bands (ev):

   -32.9675 -32.9541  -5.2515  -2.7430   0.4952   3.0868   3.5944   5.6065
     6.0228   7.3317   8.2261   8.3323   9.1031   9.9277  10.9584  11.3612
    11.4806  12.3174  13.9426  13.9804  14.2318  14.2455  14.3289

          k = 0.5000 0.0000-0.0297 (  5543 PWs)   bands (ev):

   -32.9586 -32.9583  -2.6342  -2.2320  -0.5855   0.7410   2.4270   4.3494
     5.5305   7.2311   8.4006   8.6005   8.8128  10.2409  10.6229  10.9612
    11.6543  11.7295  13.1157  13.4622  13.7060  14.7176  15.4271

          k =-0.1667 0.1667 0.1189 (  5511 PWs)   bands (ev):

   -32.9655 -32.9540  -4.8965  -2.4049   0.8098   3.2971   3.5441   3.7711
     5.7539   6.0977   7.9305   8.4732   9.4449   9.7879  11.4973  11.5925
    11.7147  12.1252  12.1949  14.0537  14.4647  14.9123  15.0706

          k = 0.5000 0.1667-0.0000 (  5548 PWs)   bands (ev):

   -32.9579 -32.9576  -2.2866  -1.8839  -0.2519   1.0783   2.7229   4.6246
     5.8620   5.9190   6.2081   7.2450   7.9566   9.2002   9.6273  10.8287
    11.1266  12.0371  13.8444  13.8604  14.3089  15.1338  15.1459

          k =-0.1667-0.6667-0.0297 (  5523 PWs)   bands (ev):

   -32.9616 -32.9548  -3.8399  -1.4118   0.2731   1.8894   2.8173   4.4098
     4.8498   6.1347   6.7923   8.1422   9.0346   9.3314  10.0697  10.3714
    11.0511  12.3433  13.4869  13.5888  14.8015  15.4337  15.6985

          k = 0.5000-0.5000-0.1189 (  5536 PWs)   bands (ev):

   -32.9554 -32.9551   0.2658   0.6318   0.6330   1.1490   1.7281   3.4966
     3.5147   3.9700   5.4211   5.8900   5.9683   8.1965   8.9062   9.1217
     9.2905  11.1504  12.6497  12.7935  13.1045  13.4917  15.5350

          k = 0.5000-0.3333-0.0892 (  5532 PWs)   bands (ev):

   -32.9560 -32.9559  -1.2535  -0.8479   0.7101   2.0794   2.6003   3.2770
     4.1778   5.1539   5.3563   5.8864   6.8851   7.9879   8.7111  10.2524
    10.3530  10.8903  12.0656  13.4277  13.8196  14.7222  15.8644

          k = 0.0000 0.0000 0.1189 (  5508 PWs)   bands (ev):

   -32.9687 -32.9541  -5.6071  -3.0865   0.2208   3.2791   5.7008   5.7008
     7.4518   7.9606   8.0264   8.0264   8.5612   9.2990  10.2740  11.0660
    11.0660  11.7257  12.8518  14.1345  14.1345  14.8569  16.4518

          k = 0.6667 0.0000-0.0000 (  5544 PWs)   bands (ev):

   -32.9635 -32.9552  -4.1920  -1.7505  -0.0667   1.6010   2.4902   4.5544
     5.8184   6.9843   8.6213   8.8631   9.2475   9.8236   9.8242  10.8025
    12.3763  12.6231  12.6317  13.2800  14.1285  15.5658  15.8259

          k = 0.0000-0.8333-0.0297 (  5521 PWs)   bands (ev):

   -32.9674 -32.9540  -5.2512  -2.7470   0.5283   3.0872   3.4661   5.6030
     6.0219   8.0281   8.2461   8.3408   8.8659   9.3002  10.8525  11.3102
    11.4805  12.3958  13.9414  14.0835  14.2448  14.4150  14.6627

          k =-0.5000 0.5000 0.0000 (  5504 PWs)   bands (ev):

   -32.9549 -32.9547   0.2658   0.6312   0.6335   1.1490   1.7281   3.4878
     3.5240   3.9700   5.4211   5.8525   6.0093   8.1965   8.8050   9.2391
     9.2905  11.1504  12.5212  12.6471  13.1079  14.3847  14.5021

          k =-0.1667 0.8333-0.0000 (  5502 PWs)   bands (ev):

   -32.9656 -32.9537  -4.8963  -2.4073   0.8292   3.2966   3.5458   3.7009
     5.7463   6.1058   8.4404   8.6247   8.8735   9.5708  11.5124  11.6766
    11.7247  12.1260  12.1898  14.0668  14.5327  14.9722  15.0863

     the Fermi energy is    13.4398 ev

!    total energy              =     -95.65319090 Ry
     estimated scf accuracy    <          8.5E-10 Ry
     smearing contrib. (-TS)   =      -0.00272435 Ry
     internal energy E=F+TS    =     -95.65046655 Ry

     The total energy is F=E-TS. E is the sum of the following terms:
     one-electron contribution =       8.15242601 Ry
     hartree contribution      =      17.98060371 Ry
     xc contribution           =     -34.37757047 Ry
     ewald contribution        =     -87.40592580 Ry

     convergence has been achieved in  10 iterations

     Forces acting on atoms (cartesian axes, Ry/au):

     atom    1 type  1   force =    -0.00000000    0.00000000    0.06349291
     atom    2 type  1   force =     0.00000000    0.00000000   -0.06349291
     atom    3 type  1   force =     0.00000000    0.00000000    0.06349291
     atom    4 type  1   force =     0.00000000    0.00000000   -0.06349291
     atom    5 type  1   force =     0.00000000   -0.00000000   -0.18733898
     atom    6 type  1   force =     0.00000000   -0.00000000    0.18733898
     atom    7 type  1   force =     0.00000000    0.00000000    0.00000000
     atom    8 type  1   force =     0.00000000    0.00000000    0.00000000
     atom    9 type  2   force =    -0.00000000    0.00000000    0.03081981
     atom   10 type  2   force =     0.00000000    0.00000000   -0.03081981
     The non-local contrib.  to forces
     atom    1 type  1   force =     0.00000000    0.00000000    0.03120763
     atom    2 type  1   force =     0.00000000   -0.00000000   -0.03120763
     atom    3 type  1   force =     0.00000000    0.00000000    0.03120763
     atom    4 type  1   force =    -0.00000000    0.00000000   -0.03120763
     atom    5 type  1   force =    -0.00000000    0.00000000   -0.11630507
     atom    6 type  1   force =     0.00000000    0.00000000    0.11630507
     atom    7 type  1   force =     0.00000000   -0.00000000   -0.00000000
     atom    8 type  1   force =     0.00000000    0.00000000    0.00000000
     atom    9 type  2   force =     0.00000000    0.00000000   -0.01915821
     atom   10 type  2   force =     0.00000000    0.00000000    0.01915821
     The ionic contribution  to forces
     atom    1 type  1   force =    -0.00000000   -0.00000000    3.91253186
     atom    2 type  1   force =     0.00000000   -0.00000000   -3.91253186
     atom    3 type  1   force =     0.00000000    0.00000000    3.91253186
     atom    4 type  1   force =    -0.00000000   -0.00000000   -3.91253186
     atom    5 type  1   force =     0.00000000   -0.00000000   -5.32857018
     atom    6 type  1   force =     0.00000000    0.00000000    5.32857018
     atom    7 type  1   force =    -0.00000000    0.00000000    0.00000000
     atom    8 type  1   force =     0.00000000   -0.00000000    0.00000000
     atom    9 type  2   force =    -0.00000000   -0.00000000    2.53571425
     atom   10 type  2   force =    -0.00000000   -0.00000000   -2.53571425
     The local contribution  to forces
     atom    1 type  1   force =    -0.00000000   -0.00000000   -3.87598889
     atom    2 type  1   force =    -0.00000000    0.00000000    3.87598889
     atom    3 type  1   force =     0.00000000    0.00000000   -3.87598889
     atom    4 type  1   force =     0.00000000   -0.00000000    3.87598889
     atom    5 type  1   force =    -0.00000000    0.00000000    5.24254590
     atom    6 type  1   force =    -0.00000000   -0.00000000   -5.24254590
     atom    7 type  1   force =    -0.00000000   -0.00000000   -0.00000000
     atom    8 type  1   force =    -0.00000000   -0.00000000   -0.00000000
     atom    9 type  2   force =    -0.00000000    0.00000000   -2.48572546
     atom   10 type  2   force =     0.00000000    0.00000000    2.48572546
     The core correction contribution to forces
     atom    1 type  1   force =     0.00000000   -0.00000000   -0.00423022
     atom    2 type  1   force =    -0.00000000    0.00000000    0.00423022
     atom    3 type  1   force =    -0.00000000   -0.00000000   -0.00423022
     atom    4 type  1   force =     0.00000000    0.00000000    0.00423022
     atom    5 type  1   force =     0.00000000    0.00000000    0.01496002
     atom    6 type  1   force =    -0.00000000   -0.00000000   -0.01496002
     atom    7 type  1   force =     0.00000000    0.00000000   -0.00000000
     atom    8 type  1   force =     0.00000000    0.00000000   -0.00000000
     atom    9 type  2   force =     0.00000000    0.00000000    0.00000000
     atom   10 type  2   force =     0.00000000    0.00000000    0.00000000
     The Hubbard contrib.    to forces
     atom    1 type  1   force =     0.00000000    0.00000000    0.00000000
     atom    2 type  1   force =     0.00000000    0.00000000    0.00000000
     atom    3 type  1   force =     0.00000000    0.00000000    0.00000000
     atom    4 type  1   force =     0.00000000    0.00000000    0.00000000
     atom    5 type  1   force =     0.00000000    0.00000000    0.00000000
     atom    6 type  1   force =     0.00000000    0.00000000    0.00000000
     atom    7 type  1   force =     0.00000000    0.00000000    0.00000000
     atom    8 type  1   force =     0.00000000    0.00000000    0.00000000
     atom    9 type  2   force =     0.00000000    0.00000000    0.00000000
     atom   10 type  2   force =     0.00000000    0.00000000    0.00000000
     The SCF correction term to forces
     atom    1 type  1   force =     0.00000000    0.00000000   -0.00002747
     atom    2 type  1   force =    -0.00000000    0.00000000    0.00002747
     atom    3 type  1   force =     0.00000000   -0.00000000   -0.00002747
     atom    4 type  1   force =     0.00000000   -0.00000000    0.00002747
     atom    5 type  1   force =    -0.00000000   -0.00000000    0.00003035
     atom    6 type  1   force =     0.00000000    0.00000000   -0.00003035
     atom    7 type  1   force =    -0.00000000   -0.00000000   -0.00000000
     atom    8 type  1   force =     0.00000000    0.00000000   -0.00000000
     atom    9 type  2   force =     0.00000000    0.00000000   -0.00001078
     atom   10 type  2   force =     0.00000000    0.00000000    0.00001078

     Total force =     0.297013     Total SCF correction =     0.000071


     Computing stress (Cartesian axis) and pressure

          total   stress  (Ry/bohr**3)                   (kbar)     P=      727.87
   0.00490530   0.00000000   0.00000000          721.60        0.00        0.00
   0.00000000   0.00490530  -0.00000000            0.00      721.60       -0.00
   0.00000000   0.00000000   0.00503334            0.00        0.00      740.43


     BFGS Geometry Optimization
     Energy error            =      0.0E+00 Ry
     Gradient error          =      1.9E-01 Ry/Bohr
     Cell gradient error     =      2.4E+02 kbar

     number of scf cycles    =   1
     number of bfgs steps    =   0

     enthalpy           new  =     -93.2593708649 Ry

     new trust radius        =       0.2168730430 bohr
ibrav =      7
 celldm(1) =      6.54699766
 celldm(3) =      5.62541556
Input lattice vectors:
     0.51882966    -0.51882966     2.91863247
     0.51882966     0.51882966     2.91863247
    -0.51882966    -0.51882966     2.91863247
New lattice vectors in INITIAL alat:
     0.51882966    -0.51882966     2.91863247
     0.51882966     0.51882966     2.91863247
    -0.51882966    -0.51882966     2.91863247
New lattice vectors in NEW alat (for information only):
     0.50000000    -0.50000000     2.81270778
     0.50000000     0.50000000     2.81270778
    -0.50000000    -0.50000000     2.81270778
Discrepancy in bohr =     0.000000    0.000000    0.000000
     new conv_thr            =       0.0000000100 Ry

     new unit-cell volume =    789.31648 a.u.^3 (   116.96464 Ang^3 )
     density =      3.38691 g/cm^3

CELL_PARAMETERS (alat=  6.30939026)
   0.518829664  -0.518829664   2.918632469
   0.518829664   0.518829664   2.918632469
  -0.518829664  -0.518829664   2.918632469

ATOMIC_POSITIONS (crystal)
Si           -0.5000000000        0.5860689067        0.0860689067
Si           -0.5000000000        1.4139310933        0.9139310933
Si            0.5000000000        0.0860689067       -0.4139310933
Si            0.5000000000        0.9139310933        0.4139310933
Si            0.0000000000        0.3323570143        0.3323570143
Si           -0.0000000000        0.6676429857        0.6676429857
Si            0.0000000000        0.0000000000       -0.0000000000
Si           -0.0000000000        0.5000000000        0.5000000000
Li           -0.0000000000        0.2007385148        0.2007385148
Li           -0.0000000000        0.7992614852        0.7992614852



     Writing config-only to output data dir ./output/SiLi.save/
     NEW-OLD atomic charge density approx. for the potential
     extrapolated charge   42.09210, renormalised to   38.00000

     total cpu time spent up to now is       48.3 secs

     Self-consistent Calculation

     iteration #  1     ecut=    60.00 Ry     beta= 0.80
     Davidson diagonalization with overlap
     c_bands:  2 eigenvalues not converged
     c_bands:  1 eigenvalues not converged
     c_bands:  2 eigenvalues not converged
     c_bands:  2 eigenvalues not converged
     c_bands:  1 eigenvalues not converged
     c_bands:  2 eigenvalues not converged
     c_bands:  5 eigenvalues not converged
     c_bands:  2 eigenvalues not converged
     c_bands:  4 eigenvalues not converged
     c_bands:  1 eigenvalues not converged
     c_bands:  1 eigenvalues not converged
     c_bands:  1 eigenvalues not converged
     c_bands:  3 eigenvalues not converged
     c_bands:  2 eigenvalues not converged
     ethr =  1.00E-06,  avg # of iterations = 18.1

     total cpu time spent up to now is       61.5 secs

     total energy              =     -78.17787560 Ry
     estimated scf accuracy    <      17.94972636 Ry

     iteration #  2     ecut=    60.00 Ry     beta= 0.80
     Davidson diagonalization with overlap
     c_bands:  1 eigenvalues not converged
     ethr =  1.00E-02,  avg # of iterations = 15.0

     total cpu time spent up to now is       71.0 secs

     total energy              =     -75.33507506 Ry
     estimated scf accuracy    <     339.40838822 Ry

     iteration #  3     ecut=    60.00 Ry     beta= 0.80
     Davidson diagonalization with overlap
     ethr =  1.00E-02,  avg # of iterations =  7.3

     total cpu time spent up to now is       77.1 secs

     total energy              =     -97.08684060 Ry
     estimated scf accuracy    <      36.76492436 Ry

     iteration #  4     ecut=    60.00 Ry     beta= 0.80
     Davidson diagonalization with overlap
     ethr =  1.00E-02,  avg # of iterations =  3.4

     total cpu time spent up to now is       80.3 secs

     total energy              =     -96.31341297 Ry
     estimated scf accuracy    <      18.12898593 Ry

     iteration #  5     ecut=    60.00 Ry     beta= 0.80
     Davidson diagonalization with overlap
     ethr =  1.00E-02,  avg # of iterations =  2.7

     total cpu time spent up to now is       83.1 secs

     total energy              =     -95.95162250 Ry
     estimated scf accuracy    <       8.48866910 Ry

     iteration #  6     ecut=    60.00 Ry     beta= 0.80
     Davidson diagonalization with overlap
     ethr =  1.00E-02,  avg # of iterations =  2.5

     total cpu time spent up to now is       85.8 secs

     total energy              =     -96.11632899 Ry
     estimated scf accuracy    <       2.73413215 Ry

     iteration #  7     ecut=    60.00 Ry     beta= 0.80
     Davidson diagonalization with overlap
     ethr =  7.20E-03,  avg # of iterations =  1.3

     total cpu time spent up to now is       88.5 secs

     total energy              =     -96.11892142 Ry
     estimated scf accuracy    <       2.15297745 Ry

     iteration #  8     ecut=    60.00 Ry     beta= 0.80
     Davidson diagonalization with overlap
     ethr =  5.67E-03,  avg # of iterations =  1.0

     total cpu time spent up to now is       91.0 secs

     total energy              =     -96.10281049 Ry
     estimated scf accuracy    <       1.67316507 Ry

     iteration #  9     ecut=    60.00 Ry     beta= 0.80
     Davidson diagonalization with overlap
     ethr =  4.40E-03,  avg # of iterations =  1.0

     total cpu time spent up to now is       93.6 secs

     total energy              =     -96.06508595 Ry
     estimated scf accuracy    <       1.32304376 Ry

     iteration # 10     ecut=    60.00 Ry     beta= 0.80
     Davidson diagonalization with overlap
     ethr =  3.48E-03,  avg # of iterations =  1.5

     total cpu time spent up to now is       96.2 secs

     total energy              =     -95.93958420 Ry
     estimated scf accuracy    <       0.82932355 Ry

     iteration # 11     ecut=    60.00 Ry     beta= 0.80
     Davidson diagonalization with overlap
     ethr =  2.18E-03,  avg # of iterations =  2.8

     total cpu time spent up to now is       98.9 secs

     total energy              =     -96.02038559 Ry
     estimated scf accuracy    <       0.01198172 Ry

     iteration # 12     ecut=    60.00 Ry     beta= 0.80
     Davidson diagonalization with overlap
     ethr =  3.15E-05,  avg # of iterations =  7.9

     total cpu time spent up to now is      102.9 secs

     total energy              =     -96.02578984 Ry
     estimated scf accuracy    <       0.00645140 Ry

     iteration # 13     ecut=    60.00 Ry     beta= 0.80
     Davidson diagonalization with overlap
     ethr =  1.70E-05,  avg # of iterations =  1.3

     total cpu time spent up to now is      105.3 secs

     total energy              =     -96.02464178 Ry
     estimated scf accuracy    <       0.00411481 Ry

     iteration # 14     ecut=    60.00 Ry     beta= 0.80
     Davidson diagonalization with overlap
     ethr =  1.08E-05,  avg # of iterations =  4.0

     total cpu time spent up to now is      108.5 secs

     total energy              =     -96.02620036 Ry
     estimated scf accuracy    <       0.00378010 Ry

     iteration # 15     ecut=    60.00 Ry     beta= 0.80
     Davidson diagonalization with overlap
     ethr =  9.95E-06,  avg # of iterations =  3.1

     total cpu time spent up to now is      111.9 secs

     total energy              =     -96.02521903 Ry
     estimated scf accuracy    <       0.01187052 Ry

     iteration # 16     ecut=    60.00 Ry     beta= 0.80
     Davidson diagonalization with overlap
     ethr =  9.95E-06,  avg # of iterations =  2.0

     total cpu time spent up to now is      114.7 secs

     total energy              =     -96.02421641 Ry
     estimated scf accuracy    <       0.00344323 Ry

     iteration # 17     ecut=    60.00 Ry     beta= 0.80
     Davidson diagonalization with overlap
     ethr =  9.06E-06,  avg # of iterations =  2.1

     total cpu time spent up to now is      117.7 secs

     total energy              =     -96.02484064 Ry
     estimated scf accuracy    <       0.00012838 Ry

     iteration # 18     ecut=    60.00 Ry     beta= 0.80
     Davidson diagonalization with overlap
     ethr =  3.38E-07,  avg # of iterations =  3.6

     total cpu time spent up to now is      120.8 secs

     total energy              =     -96.02483555 Ry
     estimated scf accuracy    <       0.00009136 Ry

     iteration # 19     ecut=    60.00 Ry     beta= 0.80
     Davidson diagonalization with overlap
     ethr =  2.40E-07,  avg # of iterations =  2.0

     total cpu time spent up to now is      123.7 secs

     total energy              =     -96.02484724 Ry
     estimated scf accuracy    <       0.00000588 Ry

     iteration # 20     ecut=    60.00 Ry     beta= 0.80
     Davidson diagonalization with overlap
     ethr =  1.55E-08,  avg # of iterations =  3.9

     total cpu time spent up to now is      126.8 secs

     total energy              =     -96.02484781 Ry
     estimated scf accuracy    <       0.00000782 Ry

     iteration # 21     ecut=    60.00 Ry     beta= 0.80
     Davidson diagonalization with overlap
     ethr =  1.55E-08,  avg # of iterations =  2.0

     total cpu time spent up to now is      129.5 secs

     total energy              =     -96.02484838 Ry
     estimated scf accuracy    <       0.00000014 Ry

     iteration # 22     ecut=    60.00 Ry     beta= 0.80
     Davidson diagonalization with overlap
     ethr =  3.70E-10,  avg # of iterations =  4.4

     total cpu time spent up to now is      133.2 secs

     total energy              =     -96.02484846 Ry
     estimated scf accuracy    <       0.00000015 Ry

     iteration # 23     ecut=    60.00 Ry     beta= 0.80
     Davidson diagonalization with overlap
     ethr =  3.70E-10,  avg # of iterations =  1.1

     total cpu time spent up to now is      135.7 secs

     total energy              =     -96.02484846 Ry
     estimated scf accuracy    <       0.00000001 Ry

     iteration # 24     ecut=    60.00 Ry     beta= 0.80
     Davidson diagonalization with overlap
     ethr =  3.68E-11,  avg # of iterations =  3.9

     total cpu time spent up to now is      139.0 secs

     End of self-consistent calculation

          k = 0.0000 0.0000 0.0000 (  5523 PWs)   bands (ev):

   -34.5452 -34.5378  -5.7319  -3.4868  -0.5896   2.4496   4.9563   4.9563
     5.0913   6.9849   7.0182   7.0182   7.4297   9.0884   9.6671   9.8024
     9.8936   9.8936  11.1075  11.4273  12.1969  12.1969  14.2061

          k =-0.3212-0.0000 0.0571 (  5541 PWs)   bands (ev):

   -34.5432 -34.5375  -4.4091  -2.2327  -0.5618   0.7149   1.6878   3.6467
     4.8192   6.1719   6.4660   7.2296   8.1810   8.4487   9.6850   9.7624
    11.0261  11.1012  11.3675  11.9325  12.3798  13.4602  13.8228

          k = 0.0000 0.1606 0.0286 (  5524 PWs)   bands (ev):

   -34.5452 -34.5367  -5.3996  -3.1678  -0.3057   2.4268   2.6321   4.7117
     5.2606   5.3878   7.3147   7.3437   7.7715   8.8822   9.8520  10.1325
    10.3232  10.7326  11.5690  12.4391  12.4601  12.7032  12.7432

          k =-0.3212 0.1606 0.0857 (  5537 PWs)   bands (ev):

   -34.5417 -34.5376  -4.0792  -1.9178  -0.2396   1.0193   1.9990   3.6832
     3.8069   5.0718   5.7987   6.8444   7.4423   7.6697   8.8261   9.4687
     9.7202  11.0888  11.7818  11.9581  13.1582  13.7477  13.8452

          k = 0.3212 0.1606-0.0286 (  5540 PWs)   bands (ev):

   -34.5420 -34.5376  -4.0797  -1.9119  -0.2421   0.9825   2.0009   3.6844
     3.9611   5.1101   5.7893   6.4772   7.4203   7.5541   8.9089   9.6528
    10.0081  11.2691  11.7532  12.1496  13.0857  13.4577  13.7762

          k =-0.3212 0.3212 0.1142 (  5524 PWs)   bands (ev):

   -34.5394 -34.5367  -3.0962  -0.9887   0.6697   0.7681   2.0724   2.7589
     3.1625   4.5743   4.6636   5.5136   6.3474   6.7256   8.2217   8.4348
     9.0246  10.2392  10.3487  11.6551  12.8773  13.0717  15.2311

          k = 0.3212 0.3212 0.0000 (  5521 PWs)   bands (ev):

   -34.5394 -34.5365  -3.0973  -0.9778   0.6601   0.7703   2.0112   2.7718
     3.1370   4.5748   4.9218   5.6359   6.3081   6.7197   7.5511   8.1057
     9.0462  10.2667  11.2519  13.1511  13.2338  13.2751  13.3186

          k =-0.0000-0.4819-0.0857 (  5536 PWs)   bands (ev):

   -34.5396 -34.5395  -2.9305  -2.5985  -1.1260   0.0440   1.5063   3.4164
     4.2561   6.0695   7.2976   7.5284   7.8749   8.9292   9.1621   9.8159
    10.1078  10.4627  11.5372  11.6950  12.0180  12.7510  13.1530

          k =-0.3212-0.4819-0.0286 (  5525 PWs)   bands (ev):

   -34.5377 -34.5374  -1.6310  -1.2992   0.1179   1.2896   2.0075   2.5609
     3.0757   4.1735   4.3917   4.9139   5.4992   6.7185   7.4598   8.4742
     9.0516   9.3021  10.4696  11.6720  12.0909  13.0110  13.9050

          k = 0.1606-0.1606-0.0000 (  5495 PWs)   bands (ev):

   -34.5433 -34.5357  -5.0682  -2.8474  -0.0314   2.6473   2.8390   2.8858
     4.9826   5.0174   5.5725   7.4631   8.3094   9.2693   9.9052  10.2004
    10.5134  10.7756  10.9850  11.8800  12.7704  13.0439  13.1303

          k =-0.1606-0.1606 0.0571 (  5504 PWs)   bands (ev):

   -34.5435 -34.5361  -5.0679  -2.8507  -0.0087   2.6467   2.7896   2.8435
     4.9905   4.9938   5.8202   7.4231   8.2567   8.9822  10.0033  10.2469
    10.5116  10.7692  10.8094  12.2658  12.7971  13.0523  13.1645

          k = 0.4819-0.1606-0.0571 (  5540 PWs)   bands (ev):

   -34.5394 -34.5389  -2.6039  -2.2722  -0.8087   0.3587   1.8020   3.6705
     4.5617   5.0967   5.3634   6.1183   6.8823   7.6404   8.3925   9.2863
     9.4588  10.6257  12.1908  12.3737  12.7273  13.1812  13.4667

          k =-0.1606-0.0000 0.0857 (  5527 PWs)   bands (ev):

   -34.5451 -34.5370  -5.3991  -3.1733  -0.2657   2.4243   2.4739   4.7016
     5.2594   5.8363   7.3224   7.3250   7.7045   8.4370   9.5819  10.0662
    10.3270  10.7492  12.2947  12.4721  12.6416  12.6886  12.7497

          k = 0.4819 0.0000-0.0286 (  5543 PWs)   bands (ev):

   -34.5400 -34.5395  -2.9305  -2.5985  -1.1260   0.0440   1.5059   3.4215
     4.2440   6.1111   7.2136   7.5284   7.8749   9.1069   9.1620   9.6895
    10.1174  10.4629  11.3782  11.6943  12.0035  12.9956  13.3824

          k =-0.1606 0.1606 0.1142 (  5511 PWs)   bands (ev):

   -34.5435 -34.5365  -5.0672  -2.8573   0.0388   2.6239   2.6453   2.8416
     4.9734   5.0067   6.4090   7.3476   7.9459   8.5215  10.2147  10.3164
    10.5045  10.7132  10.7709  12.6190  12.8520  13.0718  13.1937

          k = 0.4819 0.1606 0.0000 (  5548 PWs)   bands (ev):

   -34.5397 -34.5391  -2.6039  -2.2722  -0.8087   0.3588   1.8016   3.6755
     4.5483   5.0980   5.3631   6.1470   6.8840   7.5789   8.3801   9.4412
     9.4668  10.4602  12.1196  12.3269  12.9191  13.3829  13.3905

          k =-0.1606-0.6425-0.0286 (  5523 PWs)   bands (ev):

   -34.5414 -34.5369  -4.0786  -1.9237  -0.2372   1.0585   1.9959   3.6659
     3.6872   5.0332   5.8116   7.2021   7.6218   7.8034   8.5976   8.9946
     9.7264  10.8817  11.8309  11.9155  13.1382  13.8352  13.9165

          k = 0.4819-0.4819-0.1142 (  5536 PWs)   bands (ev):

   -34.5379 -34.5371  -0.1772   0.1300   0.1315   0.5221   1.1770   2.5064
     2.5237   3.2285   4.0881   4.8915   4.9727   6.5878   7.5926   7.8209
     8.0029   9.3376  11.0538  11.2528  11.3312  11.7322  13.6736

          k = 0.4819-0.3212-0.0857 (  5532 PWs)   bands (ev):

   -34.5379 -34.5377  -1.6310  -1.2992   0.1179   1.2895   2.0075   2.5610
     3.0761   4.1728   4.3874   4.9193   5.5026   6.7171   7.4240   8.5976
     8.9698   9.3048  10.3809  11.8949  12.0341  12.9074  13.9563

          k = 0.0000-0.0000 0.1142 (  5508 PWs)   bands (ev):

   -34.5449 -34.5373  -5.7310  -3.4962  -0.5195   2.1608   4.9543   4.9543
     5.9662   6.9834   7.0363   7.0363   7.4279   7.7828   9.3165   9.7742
     9.7742   9.8361  11.3402  12.5792  12.5792  12.9259  14.3472

          k = 0.6425 0.0000 0.0000 (  5544 PWs)   bands (ev):

   -34.5435 -34.5374  -4.4081  -2.2427  -0.5577   0.7819   1.6825   3.3969
     4.7630   6.1699   7.3470   7.5747   8.1983   8.3038   8.4746   9.7571
    10.8204  11.0080  11.0219  11.9305  12.3330  13.9495  14.1925

          k =-0.0000-0.8031-0.0286 (  5521 PWs)   bands (ev):

   -34.5450 -34.5368  -5.3986  -3.1789  -0.2236   2.3260   2.4271   4.7007
     5.2583   6.5248   7.2279   7.3356   7.5025   7.8560   9.5707  10.0046
    10.3277  10.8404  12.4488  12.4741  12.7347  12.8105  12.8662

          k =-0.4819 0.4819 0.0000 (  5504 PWs)   bands (ev):

   -34.5367 -34.5363  -0.1772   0.1293   0.1322   0.5221   1.1770   2.4980
     2.5325   3.2285   4.0881   4.8530   5.0158   6.5878   7.4863   7.9474
     8.0029   9.3380  10.7840  11.2238  11.3618  12.6251  12.6545

          k =-0.1606 0.8031 0.0000 (  5502 PWs)   bands (ev):

   -34.5438 -34.5356  -5.0669  -2.8605   0.0636   2.5459   2.6446   2.8413
     4.9682   5.0149   7.0273   7.3116   7.3504   8.4157  10.3368  10.3391
    10.4938  10.7298  10.7567  12.7272  13.0895  13.1418  13.2499

     the Fermi energy is    11.8045 ev

!    total energy              =     -96.02484846 Ry
     estimated scf accuracy    <          1.2E-09 Ry
     smearing contrib. (-TS)   =      -0.00228261 Ry
     internal energy E=F+TS    =     -96.02256585 Ry

     The total energy is F=E-TS. E is the sum of the following terms:
     one-electron contribution =       8.90069463 Ry
     hartree contribution      =      15.46405325 Ry
     xc contribution           =     -33.44696321 Ry
     ewald contribution        =     -86.94035052 Ry

     convergence has been achieved in  24 iterations

     Forces acting on atoms (cartesian axes, Ry/au):

     atom    1 type  1   force =     0.00000000   -0.00000000    0.04569037
     atom    2 type  1   force =    -0.00000000    0.00000000   -0.04569037
     atom    3 type  1   force =    -0.00000000   -0.00000000    0.04569037
     atom    4 type  1   force =     0.00000000    0.00000000   -0.04569037
     atom    5 type  1   force =    -0.00000000   -0.00000000   -0.07397295
     atom    6 type  1   force =    -0.00000000    0.00000000    0.07397295
     atom    7 type  1   force =     0.00000000    0.00000000    0.00000000
     atom    8 type  1   force =     0.00000000    0.00000000   -0.00000000
     atom    9 type  2   force =     0.00000000   -0.00000000    0.01979001
     atom   10 type  2   force =     0.00000000   -0.00000000   -0.01979001
     The non-local contrib.  to forces
     atom    1 type  1   force =     0.00000000   -0.00000000    0.02872614
     atom    2 type  1   force =    -0.00000000    0.00000000   -0.02872614
     atom    3 type  1   force =    -0.00000000   -0.00000000    0.02872614
     atom    4 type  1   force =     0.00000000    0.00000000   -0.02872614
     atom    5 type  1   force =     0.00000000    0.00000000    0.00624843
     atom    6 type  1   force =     0.00000000   -0.00000000   -0.00624843
     atom    7 type  1   force =     0.00000000    0.00000000   -0.00000000
     atom    8 type  1   force =    -0.00000000   -0.00000000    0.00000000
     atom    9 type  2   force =    -0.00000000    0.00000000   -0.01767217
     atom   10 type  2   force =    -0.00000000    0.00000000    0.01767217
     The ionic contribution  to forces
     atom    1 type  1   force =    -0.00000000   -0.00000000    3.30744502
     atom    2 type  1   force =     0.00000000    0.00000000   -3.30744502
     atom    3 type  1   force =     0.00000000   -0.00000000    3.30744502
     atom    4 type  1   force =    -0.00000000   -0.00000000   -3.30744502
     atom    5 type  1   force =    -0.00000000    0.00000000   -4.25587054
     atom    6 type  1   force =     0.00000000   -0.00000000    4.25587054
     atom    7 type  1   force =     0.00000000   -0.00000000    0.00000000
     atom    8 type  1   force =    -0.00000000   -0.00000000    0.00000000
     atom    9 type  2   force =    -0.00000000   -0.00000000    2.04150945
     atom   10 type  2   force =    -0.00000000   -0.00000000   -2.04150945
     The local contribution  to forces
     atom    1 type  1   force =     0.00000000    0.00000000   -3.28714876
     atom    2 type  1   force =    -0.00000000   -0.00000000    3.28714876
     atom    3 type  1   force =     0.00000000    0.00000000   -3.28714876
     atom    4 type  1   force =     0.00000000   -0.00000000    3.28714876
     atom    5 type  1   force =    -0.00000000   -0.00000000    4.17030555
     atom    6 type  1   force =    -0.00000000   -0.00000000   -4.17030555
     atom    7 type  1   force =     0.00000000    0.00000000   -0.00000000
     atom    8 type  1   force =    -0.00000000   -0.00000000    0.00000000
     atom    9 type  2   force =     0.00000000    0.00000000   -2.00406408
     atom   10 type  2   force =     0.00000000    0.00000000    2.00406408
     The core correction contribution to forces
     atom    1 type  1   force =    -0.00000000   -0.00000000   -0.00337014
     atom    2 type  1   force =    -0.00000000   -0.00000000    0.00337014
     atom    3 type  1   force =     0.00000000    0.00000000   -0.00337014
     atom    4 type  1   force =     0.00000000    0.00000000    0.00337014
     atom    5 type  1   force =    -0.00000000   -0.00000000    0.00537594
     atom    6 type  1   force =     0.00000000   -0.00000000   -0.00537594
     atom    7 type  1   force =     0.00000000    0.00000000   -0.00000000
     atom    8 type  1   force =     0.00000000    0.00000000   -0.00000000
     atom    9 type  2   force =     0.00000000    0.00000000    0.00000000
     atom   10 type  2   force =     0.00000000    0.00000000    0.00000000
     The Hubbard contrib.    to forces
     atom    1 type  1   force =     0.00000000    0.00000000    0.00000000
     atom    2 type  1   force =     0.00000000    0.00000000    0.00000000
     atom    3 type  1   force =     0.00000000    0.00000000    0.00000000
     atom    4 type  1   force =     0.00000000    0.00000000    0.00000000
     atom    5 type  1   force =     0.00000000    0.00000000    0.00000000
     atom    6 type  1   force =     0.00000000    0.00000000    0.00000000
     atom    7 type  1   force =     0.00000000    0.00000000    0.00000000
     atom    8 type  1   force =     0.00000000    0.00000000    0.00000000
     atom    9 type  2   force =     0.00000000    0.00000000    0.00000000
     atom   10 type  2   force =     0.00000000    0.00000000    0.00000000
     The SCF correction term to forces
     atom    1 type  1   force =     0.00000000    0.00000000    0.00003811
     atom    2 type  1   force =    -0.00000000    0.00000000   -0.00003811
     atom    3 type  1   force =    -0.00000000   -0.00000000    0.00003811
     atom    4 type  1   force =     0.00000000    0.00000000   -0.00003811
     atom    5 type  1   force =    -0.00000000    0.00000000   -0.00003233
     atom    6 type  1   force =    -0.00000000   -0.00000000    0.00003233
     atom    7 type  1   force =     0.00000000    0.00000000   -0.00000000
     atom    8 type  1   force =     0.00000000   -0.00000000   -0.00000000
     atom    9 type  2   force =     0.00000000   -0.00000000    0.00001681
     atom   10 type  2   force =     0.00000000   -0.00000000   -0.00001681

     Total force =     0.141696     Total SCF correction =     0.000092


     Computing stress (Cartesian axis) and pressure

          total   stress  (Ry/bohr**3)                   (kbar)     P=      369.60
   0.00252767  -0.00000000   0.00000000          371.83       -0.00        0.00
  -0.00000000   0.00252767  -0.00000000           -0.00      371.83       -0.00
   0.00000000  -0.00000000   0.00248202            0.00       -0.00      365.12

     Energy error            =      8.3E-02 Ry
     Gradient error          =      7.4E-02 Ry/Bohr
     Cell gradient error     =      1.3E+02 kbar

     number of scf cycles    =   2
     number of bfgs steps    =   1

     enthalpy           old  =     -93.2593708649 Ry
     enthalpy           new  =     -93.3420162582 Ry

     CASE: enthalpy          _new < enthalpy          _old

     new trust radius        =       0.1111591459 bohr
ibrav =      7
 celldm(1) =      6.47174676
 celldm(3) =      5.62402129
Input lattice vectors:
     0.51286626    -0.51286626     2.88437076
     0.51286626     0.51286626     2.88437076
    -0.51286626    -0.51286626     2.88437076
New lattice vectors in INITIAL alat:
     0.51286626    -0.51286626     2.88437076
     0.51286626     0.51286626     2.88437076
    -0.51286626    -0.51286626     2.88437076
New lattice vectors in NEW alat (for information only):
     0.50000000    -0.50000000     2.81201064
     0.50000000     0.50000000     2.81201064
    -0.50000000    -0.50000000     2.81201064
Discrepancy in bohr =     0.000000    0.000000    0.000000
     new conv_thr            =       0.0000000007 Ry

     new unit-cell volume =    762.22204 a.u.^3 (   112.94965 Ang^3 )
     density =      3.50730 g/cm^3

CELL_PARAMETERS (alat=  6.30939026)
   0.512866259  -0.512866259   2.884370757
   0.512866259   0.512866259   2.884370757
  -0.512866259  -0.512866259   2.884370757

ATOMIC_POSITIONS (crystal)
Si           -0.5000000000        0.5876111724        0.0876111724
Si           -0.5000000000        1.4123888276        0.9123888276
Si            0.5000000000        0.0876111724       -0.4123888276
Si            0.5000000000        0.9123888276        0.4123888276
Si            0.0000000000        0.3293388116        0.3293388116
Si           -0.0000000000        0.6706611884        0.6706611884
Si            0.0000000000        0.0000000000       -0.0000000000
Si           -0.0000000000        0.5000000000        0.5000000000
Li           -0.0000000000        0.2014269843        0.2014269843
Li           -0.0000000000        0.7985730157        0.7985730157



     Writing config-only to output data dir ./output/SiLi.save/
     NEW-OLD atomic charge density approx. for the potential
     extrapolated charge   36.64973, renormalised to   38.00000

     total cpu time spent up to now is      142.6 secs

     Self-consistent Calculation

     iteration #  1     ecut=    60.00 Ry     beta= 0.80
     Davidson diagonalization with overlap
     c_bands:  2 eigenvalues not converged
     ethr =  1.00E-06,  avg # of iterations = 12.1

     total cpu time spent up to now is      151.0 secs

     total energy              =     -95.02068683 Ry
     estimated scf accuracy    <       0.93539216 Ry

     iteration #  2     ecut=    60.00 Ry     beta= 0.80
     Davidson diagonalization with overlap
     ethr =  2.46E-03,  avg # of iterations =  7.7

     total cpu time spent up to now is      156.6 secs

     total energy              =     -90.73800495 Ry
     estimated scf accuracy    <      87.34432570 Ry

     iteration #  3     ecut=    60.00 Ry     beta= 0.80
     Davidson diagonalization with overlap
     ethr =  2.46E-03,  avg # of iterations =  6.8

     total cpu time spent up to now is      161.5 secs

     total energy              =     -95.99511701 Ry
     estimated scf accuracy    <       0.72479239 Ry

     iteration #  4     ecut=    60.00 Ry     beta= 0.80
     Davidson diagonalization with overlap
     ethr =  1.91E-03,  avg # of iterations =  1.2

     total cpu time spent up to now is      164.0 secs

     total energy              =     -95.97882060 Ry
     estimated scf accuracy    <       0.42648851 Ry

     iteration #  5     ecut=    60.00 Ry     beta= 0.80
     Davidson diagonalization with overlap
     ethr =  1.12E-03,  avg # of iterations =  1.3

     total cpu time spent up to now is      166.5 secs

     total energy              =     -95.96420367 Ry
     estimated scf accuracy    <       0.19231385 Ry

     iteration #  6     ecut=    60.00 Ry     beta= 0.80
     Davidson diagonalization with overlap
     ethr =  5.06E-04,  avg # of iterations =  3.2

     total cpu time spent up to now is      169.2 secs

     total energy              =     -95.97591321 Ry
     estimated scf accuracy    <       0.01897718 Ry

     iteration #  7     ecut=    60.00 Ry     beta= 0.80
     Davidson diagonalization with overlap
     ethr =  4.99E-05,  avg # of iterations =  6.3

     total cpu time spent up to now is      172.7 secs

     total energy              =     -95.97909884 Ry
     estimated scf accuracy    <       0.00108867 Ry

     iteration #  8     ecut=    60.00 Ry     beta= 0.80
     Davidson diagonalization with overlap
     ethr =  2.86E-06,  avg # of iterations =  5.1

     total cpu time spent up to now is      175.9 secs

     total energy              =     -95.97921112 Ry
     estimated scf accuracy    <       0.00067900 Ry

     iteration #  9     ecut=    60.00 Ry     beta= 0.80
     Davidson diagonalization with overlap
     ethr =  1.79E-06,  avg # of iterations =  1.1

     total cpu time spent up to now is      178.3 secs

     total energy              =     -95.97921254 Ry
     estimated scf accuracy    <       0.00075791 Ry

     iteration # 10     ecut=    60.00 Ry     beta= 0.80
     Davidson diagonalization with overlap
     ethr =  1.79E-06,  avg # of iterations =  2.8

     total cpu time spent up to now is      181.4 secs

     total energy              =     -95.97927523 Ry
     estimated scf accuracy    <       0.00426821 Ry

     iteration # 11     ecut=    60.00 Ry     beta= 0.80
     Davidson diagonalization with overlap
     ethr =  1.79E-06,  avg # of iterations =  1.0

     total cpu time spent up to now is      183.8 secs

     total energy              =     -95.97916091 Ry
     estimated scf accuracy    <       0.00253535 Ry

     iteration # 12     ecut=    60.00 Ry     beta= 0.80
     Davidson diagonalization with overlap
     ethr =  1.79E-06,  avg # of iterations =  1.0

     total cpu time spent up to now is      186.2 secs

     total energy              =     -95.97921347 Ry
     estimated scf accuracy    <       0.00128526 Ry

     iteration # 13     ecut=    60.00 Ry     beta= 0.80
     Davidson diagonalization with overlap
     ethr =  1.79E-06,  avg # of iterations =  1.0

     total cpu time spent up to now is      188.5 secs

     total energy              =     -95.97931591 Ry
     estimated scf accuracy    <       0.00148367 Ry

     iteration # 14     ecut=    60.00 Ry     beta= 0.80
     Davidson diagonalization with overlap
     ethr =  1.79E-06,  avg # of iterations =  1.0

     total cpu time spent up to now is      190.8 secs

     total energy              =     -95.97926737 Ry
     estimated scf accuracy    <       0.00261460 Ry

     iteration # 15     ecut=    60.00 Ry     beta= 0.80
     Davidson diagonalization with overlap
     ethr =  1.79E-06,  avg # of iterations =  1.0

     total cpu time spent up to now is      193.2 secs

     total energy              =     -95.97909879 Ry
     estimated scf accuracy    <       0.00212090 Ry

     iteration # 16     ecut=    60.00 Ry     beta= 0.80
     Davidson diagonalization with overlap
     ethr =  1.79E-06,  avg # of iterations =  1.8

     total cpu time spent up to now is      195.6 secs

     total energy              =     -95.97895755 Ry
     estimated scf accuracy    <       0.00063487 Ry

     iteration # 17     ecut=    60.00 Ry     beta= 0.80
     Davidson diagonalization with overlap
     ethr =  1.67E-06,  avg # of iterations =  2.5

     total cpu time spent up to now is      198.3 secs

     total energy              =     -95.97909658 Ry
     estimated scf accuracy    <       0.00030473 Ry

     iteration # 18     ecut=    60.00 Ry     beta= 0.80
     Davidson diagonalization with overlap
     ethr =  8.02E-07,  avg # of iterations =  1.0

     total cpu time spent up to now is      200.7 secs

     total energy              =     -95.97907550 Ry
     estimated scf accuracy    <       0.00015990 Ry

     iteration # 19     ecut=    60.00 Ry     beta= 0.80
     Davidson diagonalization with overlap
     ethr =  4.21E-07,  avg # of iterations =  2.0

     total cpu time spent up to now is      203.1 secs

     total energy              =     -95.97908671 Ry
     estimated scf accuracy    <       0.00000397 Ry

     iteration # 20     ecut=    60.00 Ry     beta= 0.80
     Davidson diagonalization with overlap
     ethr =  1.04E-08,  avg # of iterations =  4.1

     total cpu time spent up to now is      206.1 secs

     total energy              =     -95.97908769 Ry
     estimated scf accuracy    <       0.00000011 Ry

     iteration # 21     ecut=    60.00 Ry     beta= 0.80
     Davidson diagonalization with overlap
     ethr =  2.97E-10,  avg # of iterations =  4.8

     total cpu time spent up to now is      209.4 secs

     total energy              =     -95.97908779 Ry
     estimated scf accuracy    <       0.00000057 Ry

     iteration # 22     ecut=    60.00 Ry     beta= 0.80
     Davidson diagonalization with overlap
     ethr =  2.97E-10,  avg # of iterations =  1.0

     total cpu time spent up to now is      211.8 secs

     total energy              =     -95.97908758 Ry
     estimated scf accuracy    <       0.00000054 Ry

     iteration # 23     ecut=    60.00 Ry     beta= 0.80
     Davidson diagonalization with overlap
     ethr =  2.97E-10,  avg # of iterations =  3.9

     total cpu time spent up to now is      215.0 secs

     total energy              =     -95.97908772 Ry
     estimated scf accuracy    <       0.00000075 Ry

     iteration # 24     ecut=    60.00 Ry     beta= 0.80
     Davidson diagonalization with overlap
     ethr =  2.97E-10,  avg # of iterations =  2.0

     total cpu time spent up to now is      217.7 secs

     total energy              =     -95.97908773 Ry
     estimated scf accuracy    <       0.00000015 Ry

     iteration # 25     ecut=    60.00 Ry     beta= 0.80
     Davidson diagonalization with overlap
     ethr =  2.97E-10,  avg # of iterations =  1.2

     total cpu time spent up to now is      220.0 secs

     total energy              =     -95.97908772 Ry
     estimated scf accuracy    <       0.00000005 Ry

     iteration # 26     ecut=    60.00 Ry     beta= 0.80
     Davidson diagonalization with overlap
     ethr =  1.41E-10,  avg # of iterations =  3.2

     total cpu time spent up to now is      222.8 secs

     total energy              =     -95.97908773 Ry
     estimated scf accuracy    <          5.9E-09 Ry

     iteration # 27     ecut=    60.00 Ry     beta= 0.80
     Davidson diagonalization with overlap
     ethr =  1.56E-11,  avg # of iterations =  2.5

     total cpu time spent up to now is      225.3 secs

     total energy              =     -95.97908773 Ry
     estimated scf accuracy    <          2.0E-09 Ry

     iteration # 28     ecut=    60.00 Ry     beta= 0.80
     Davidson diagonalization with overlap
     ethr =  5.31E-12,  avg # of iterations =  2.0

     total cpu time spent up to now is      227.8 secs

     End of self-consistent calculation

          k = 0.0000 0.0000 0.0000 (  5523 PWs)   bands (ev):

   -33.9702 -33.9588  -5.4555  -3.2156  -0.3233   2.7485   5.2965   5.4452
     5.4452   7.4883   7.4883   7.5606   8.0052   9.5850  10.1164  10.3685
    10.3685  10.4525  11.4020  12.0002  12.6022  12.6022  14.7179

          k =-0.3250-0.0000 0.0578 (  5541 PWs)   bands (ev):

   -33.9666 -33.9592  -4.1024  -1.9314  -0.1767   1.0169   2.0544   3.9573
     5.1778   6.6850   6.7346   7.5708   8.6819   9.0386  10.0839  10.3434
    11.6005  11.6255  11.7672  12.4894  13.0036  13.9393  14.2409

          k = 0.0000 0.1625 0.0289 (  5524 PWs)   bands (ev):

   -33.9697 -33.9581  -5.1156  -2.8891  -0.0299   2.8738   2.9369   5.1361
     5.6097   5.7555   7.7921   7.8100   8.3247   9.3133  10.3288  10.6171
    10.9362  11.2153  11.9097  12.8914  13.0547  13.2829  13.3694

          k =-0.3250 0.1625 0.0867 (  5537 PWs)   bands (ev):

   -33.9650 -33.9594  -3.7649  -1.6097   0.1526   1.3339   2.3715   4.1101
     4.1597   5.4427   6.2475   7.1616   7.9494   8.0730   9.2539   9.8679
    10.2189  11.5229  12.2492  12.5135  13.6244  14.1768  14.4765

          k = 0.3250 0.1625-0.0289 (  5540 PWs)   bands (ev):

   -33.9653 -33.9593  -3.7656  -1.6025   0.1490   1.2911   2.3746   4.1544
     4.2946   5.4871   6.2312   6.7497   7.9116   7.9714   9.3640  10.1499
    10.4264  11.7901  12.1770  12.6460  13.5060  13.9099  14.2774

          k =-0.3250 0.3250 0.1156 (  5524 PWs)   bands (ev):

   -33.9624 -33.9588  -2.7597  -0.6588   1.0774   1.1860   2.4151   3.1299
     3.5997   4.9475   5.0961   5.8831   6.7488   7.2005   8.5598   8.8026
     9.4152  10.6408  10.7524  11.9865  13.2688  13.4683  15.7425

          k = 0.3250 0.3250 0.0000 (  5521 PWs)   bands (ev):

   -33.9623 -33.9587  -2.7610  -0.6456   1.0642   1.1887   2.3444   3.1467
     3.5669   5.0709   5.2668   6.0343   6.6911   7.1932   7.8565   8.4213
     9.4398  10.6811  11.6751  13.6169  13.6379  13.6509  13.7379

          k =-0.0000-0.4875-0.0867 (  5536 PWs)   bands (ev):

   -33.9622 -33.9621  -2.5858  -2.2570  -0.7875   0.3679   1.8314   3.7403
     4.5676   6.3876   7.6248   8.0752   8.4144   9.2093   9.7066  10.3304
    10.7561  10.9687  12.1048  12.2268  12.6743  13.1469  13.7755

          k =-0.3250-0.4875-0.0289 (  5525 PWs)   bands (ev):

   -33.9601 -33.9599  -1.2578  -0.9288   0.4844   1.6449   2.4251   3.0148
     3.4725   4.6314   4.7367   5.3125   5.8425   7.1546   7.8057   8.8030
     9.4254   9.7076  10.7957  12.0676  12.4810  13.4222  14.3457

          k = 0.1625-0.1625-0.0000 (  5495 PWs)   bands (ev):

   -33.9676 -33.9575  -4.7766  -2.5609   0.2517   3.1038   3.2039   3.2898
     5.4208   5.4464   5.7953   7.8997   8.7660   9.7069  10.2639  10.7471
    11.1497  11.4115  11.4604  12.2396  13.3484  13.6784  13.7335

          k =-0.1625-0.1625 0.0578 (  5504 PWs)   bands (ev):

   -33.9678 -33.9577  -4.7763  -2.5649   0.2783   3.0943   3.1030   3.2913
     5.3931   5.4564   6.0676   7.8501   8.6987   9.4021  10.3783  10.7972
    11.1460  11.2822  11.4088  12.6604  13.3682  13.7065  13.7430

          k = 0.4875-0.1625-0.0578 (  5540 PWs)   bands (ev):

   -33.9618 -33.9614  -2.2520  -1.9234  -0.4630   0.6902   2.1355   4.0044
     4.8812   5.6001   5.8606   6.4630   7.3890   7.9847   8.8435   9.5823
     9.9414  11.0202  12.6517  12.8443  13.1964  13.7909  14.1602

          k =-0.1625-0.0000 0.0867 (  5527 PWs)   bands (ev):

   -33.9697 -33.9583  -5.1150  -2.8957   0.0170   2.7491   2.8749   5.1273
     5.7540   6.0926   7.7652   7.8050   8.2521   8.8397  10.0553  10.5359
    10.9442  11.2424  12.7014  13.0685  13.1125  13.2534  13.3712

          k = 0.4875 0.0000-0.0289 (  5543 PWs)   bands (ev):

   -33.9625 -33.9621  -2.5858  -2.2570  -0.7875   0.3680   1.8309   3.7473
     4.5514   6.4412   7.5190   8.0752   8.4144   9.4054   9.7065  10.1727
    10.7710  10.9690  11.9531  12.2256  12.6539  13.4732  13.9577

          k =-0.1625 0.1625 0.1156 (  5511 PWs)   bands (ev):

   -33.9679 -33.9579  -4.7755  -2.5727   0.3343   2.8993   3.1013   3.2916
     5.3756   5.4771   6.6977   7.7573   8.3083   8.9609  10.6260  10.8908
    11.1332  11.2080  11.3950  13.0700  13.3780  13.7222  13.7546

          k = 0.4875 0.1625 0.0000 (  5548 PWs)   bands (ev):

   -33.9620 -33.9616  -2.2520  -1.9234  -0.4630   0.6903   2.1350   4.0115
     4.8632   5.6024   5.8600   6.5004   7.3912   7.9031   8.8332   9.7815
     9.9226  10.8389  12.5700  12.8027  13.5365  13.8361  14.0827

          k =-0.1625-0.6499-0.0289 (  5523 PWs)   bands (ev):

   -33.9648 -33.9589  -3.7643  -1.6168   0.1560   1.3799   2.3664   3.9594
     4.1552   5.3970   6.2675   7.6558   8.0244   8.2436   8.9344   9.4119
    10.2324  11.2659  12.3765  12.4648  13.6079  14.3165  14.4767

          k = 0.4875-0.4875-0.1156 (  5536 PWs)   bands (ev):

   -33.9600 -33.9595   0.2307   0.5344   0.5363   0.9283   1.5666   2.9254
     2.9477   3.5643   4.5087   5.2468   5.3466   6.9902   7.9103   8.1745
     8.3461   9.7285  11.3738  11.6134  11.7052  12.0937  14.1230

          k = 0.4875-0.3250-0.0867 (  5532 PWs)   bands (ev):

   -33.9602 -33.9602  -1.2578  -0.9288   0.4844   1.6448   2.4252   3.0150
     3.4732   4.6285   4.7326   5.3219   5.8448   7.1522   7.7624   8.9580
     9.3165   9.7102  10.7132  12.2499  12.4674  13.3190  14.3953

          k = 0.0000-0.0000 0.1156 (  5508 PWs)   bands (ev):

   -33.9701 -33.9583  -5.4545  -3.2268  -0.2413   2.4170   5.4425   5.4425
     6.2266   7.5109   7.5109   7.5587   7.9896   8.1562   9.7857  10.2236
    10.2236  10.4982  11.8887  13.0465  13.0465  13.3261  14.8825

          k = 0.6499 0.0000 0.0000 (  5544 PWs)   bands (ev):

   -33.9668 -33.9592  -4.1013  -1.9433  -0.1710   1.0951   2.0459   3.6757
     5.1136   6.6824   7.6891   7.9715   8.6006   8.7036   9.0518  10.3357
    11.1665  11.4890  11.6225  12.4876  13.0390  14.5486  14.7138

          k =-0.0000-0.8124-0.0289 (  5521 PWs)   bands (ev):

   -33.9695 -33.9582  -5.1144  -2.9023   0.0667   2.5838   2.8737   5.1297
     5.7525   6.8313   7.5689   7.8181   7.9970   8.3391  10.0754  10.4617
    10.9459  11.3399  12.8798  13.0822  13.3335  13.3494  13.3880

          k =-0.4875 0.4875 0.0000 (  5504 PWs)   bands (ev):

   -33.9591 -33.9588   0.2307   0.5335   0.5372   0.9283   1.5666   2.9146
     2.9592   3.5643   4.5087   5.1998   5.4003   6.9902   7.7873   8.3223
     8.3461   9.7288  11.0822  11.5877  11.7324  13.0044  13.0856

          k =-0.1625 0.8124 0.0000 (  5502 PWs)   bands (ev):

   -33.9681 -33.9573  -4.7751  -2.5766   0.3638   2.8094   3.1004   3.2916
     5.3722   5.4877   7.4228   7.5875   7.7136   8.8667  10.7689  10.9259
    11.1188  11.2276  11.3802  13.2358  13.2982  13.6170  13.6835

     the Fermi energy is    12.2615 ev

!    total energy              =     -95.97908773 Ry
     estimated scf accuracy    <          2.2E-10 Ry
     smearing contrib. (-TS)   =      -0.00071450 Ry
     internal energy E=F+TS    =     -95.97837323 Ry

     The total energy is F=E-TS. E is the sum of the following terms:
     one-electron contribution =      13.45328559 Ry
     hartree contribution      =      13.87420509 Ry
     xc contribution           =     -33.60439459 Ry
     ewald contribution        =     -89.70146932 Ry

     convergence has been achieved in  28 iterations

     Forces acting on atoms (cartesian axes, Ry/au):

     atom    1 type  1   force =     0.00000000    0.00000000    0.04626183
     atom    2 type  1   force =     0.00000000   -0.00000000   -0.04626183
     atom    3 type  1   force =     0.00000000    0.00000000    0.04626183
     atom    4 type  1   force =    -0.00000000   -0.00000000   -0.04626183
     atom    5 type  1   force =     0.00000000    0.00000000   -0.07023019
     atom    6 type  1   force =     0.00000000   -0.00000000    0.07023019
     atom    7 type  1   force =     0.00000000    0.00000000   -0.00000000
     atom    8 type  1   force =     0.00000000   -0.00000000   -0.00000000
     atom    9 type  2   force =     0.00000000   -0.00000000    0.01639641
     atom   10 type  2   force =    -0.00000000   -0.00000000   -0.01639641
     The non-local contrib.  to forces
     atom    1 type  1   force =     0.00000000   -0.00000000    0.02459786
     atom    2 type  1   force =     0.00000000    0.00000000   -0.02459786
     atom    3 type  1   force =    -0.00000000    0.00000000    0.02459786
     atom    4 type  1   force =     0.00000000    0.00000000   -0.02459786
     atom    5 type  1   force =     0.00000000   -0.00000000    0.01094875
     atom    6 type  1   force =    -0.00000000    0.00000000   -0.01094875
     atom    7 type  1   force =     0.00000000    0.00000000    0.00000000
     atom    8 type  1   force =     0.00000000    0.00000000   -0.00000000
     atom    9 type  2   force =    -0.00000000   -0.00000000   -0.02245396
     atom   10 type  2   force =     0.00000000    0.00000000    0.02245396
     The ionic contribution  to forces
     atom    1 type  1   force =     0.00000000    0.00000000    3.11642312
     atom    2 type  1   force =     0.00000000    0.00000000   -3.11642312
     atom    3 type  1   force =    -0.00000000   -0.00000000    3.11642312
     atom    4 type  1   force =    -0.00000000    0.00000000   -3.11642312
     atom    5 type  1   force =    -0.00000000    0.00000000   -3.92631702
     atom    6 type  1   force =     0.00000000    0.00000000    3.92631702
     atom    7 type  1   force =     0.00000000   -0.00000000   -0.00000000
     atom    8 type  1   force =    -0.00000000   -0.00000000   -0.00000000
     atom    9 type  2   force =    -0.00000000   -0.00000000    1.87674953
     atom   10 type  2   force =    -0.00000000   -0.00000000   -1.87674953
     The local contribution  to forces
     atom    1 type  1   force =     0.00000000   -0.00000000   -3.09158789
     atom    2 type  1   force =    -0.00000000   -0.00000000    3.09158789
     atom    3 type  1   force =    -0.00000000   -0.00000000   -3.09158789
     atom    4 type  1   force =    -0.00000000   -0.00000000    3.09158789
     atom    5 type  1   force =    -0.00000000   -0.00000000    3.83989309
     atom    6 type  1   force =    -0.00000000    0.00000000   -3.83989309
     atom    7 type  1   force =    -0.00000000    0.00000000   -0.00000000
     atom    8 type  1   force =     0.00000000    0.00000000    0.00000000
     atom    9 type  2   force =     0.00000000    0.00000000   -1.83789399
     atom   10 type  2   force =     0.00000000    0.00000000    1.83789399
     The core correction contribution to forces
     atom    1 type  1   force =    -0.00000000    0.00000000   -0.00315361
     atom    2 type  1   force =    -0.00000000   -0.00000000    0.00315361
     atom    3 type  1   force =     0.00000000   -0.00000000   -0.00315361
     atom    4 type  1   force =    -0.00000000    0.00000000    0.00315361
     atom    5 type  1   force =     0.00000000   -0.00000000    0.00523343
     atom    6 type  1   force =    -0.00000000    0.00000000   -0.00523343
     atom    7 type  1   force =    -0.00000000   -0.00000000    0.00000000
     atom    8 type  1   force =     0.00000000    0.00000000   -0.00000000
     atom    9 type  2   force =     0.00000000    0.00000000    0.00000000
     atom   10 type  2   force =     0.00000000    0.00000000    0.00000000
     The Hubbard contrib.    to forces
     atom    1 type  1   force =     0.00000000    0.00000000    0.00000000
     atom    2 type  1   force =     0.00000000    0.00000000    0.00000000
     atom    3 type  1   force =     0.00000000    0.00000000    0.00000000
     atom    4 type  1   force =     0.00000000    0.00000000    0.00000000
     atom    5 type  1   force =     0.00000000    0.00000000    0.00000000
     atom    6 type  1   force =     0.00000000    0.00000000    0.00000000
     atom    7 type  1   force =     0.00000000    0.00000000    0.00000000
     atom    8 type  1   force =     0.00000000    0.00000000    0.00000000
     atom    9 type  2   force =     0.00000000    0.00000000    0.00000000
     atom   10 type  2   force =     0.00000000    0.00000000    0.00000000
     The SCF correction term to forces
     atom    1 type  1   force =     0.00000000   -0.00000000   -0.00001765
     atom    2 type  1   force =    -0.00000000   -0.00000000    0.00001765
     atom    3 type  1   force =    -0.00000000    0.00000000   -0.00001765
     atom    4 type  1   force =     0.00000000    0.00000000    0.00001765
     atom    5 type  1   force =     0.00000000    0.00000000    0.00001156
     atom    6 type  1   force =     0.00000000   -0.00000000   -0.00001156
     atom    7 type  1   force =     0.00000000   -0.00000000   -0.00000000
     atom    8 type  1   force =    -0.00000000   -0.00000000   -0.00000000
     atom    9 type  2   force =    -0.00000000    0.00000000   -0.00000516
     atom   10 type  2   force =     0.00000000   -0.00000000    0.00000516

     Total force =     0.137706     Total SCF correction =     0.000040


     Computing stress (Cartesian axis) and pressure

          total   stress  (Ry/bohr**3)                   (kbar)     P=      425.98
   0.00291232  -0.00000000  -0.00000000          428.42       -0.00       -0.00
  -0.00000000   0.00291232  -0.00000000           -0.00      428.42       -0.00
  -0.00000000   0.00000000   0.00286253           -0.00        0.00      421.09

     Energy error            =      4.6E-02 Ry
     Gradient error          =      7.0E-02 Ry/Bohr
     Cell gradient error     =      7.9E+01 kbar

     number of scf cycles    =   3
     number of bfgs steps    =   2

     enthalpy           old  =     -93.3420162582 Ry
     enthalpy           new  =     -93.3883476565 Ry

     CASE: enthalpy          _new < enthalpy          _old

     new trust radius        =       0.1647813796 bohr
ibrav =      7
 celldm(1) =      6.40684216
 celldm(3) =      5.61920578
Input lattice vectors:
     0.50772277    -0.50772277     2.85299871
     0.50772277     0.50772277     2.85299871
    -0.50772277    -0.50772277     2.85299871
New lattice vectors in INITIAL alat:
     0.50772277    -0.50772277     2.85299871
     0.50772277     0.50772277     2.85299871
    -0.50772277    -0.50772277     2.85299871
New lattice vectors in NEW alat (for information only):
     0.50000000    -0.50000000     2.80960289
     0.50000000     0.50000000     2.80960289
    -0.50000000    -0.50000000     2.80960289
Discrepancy in bohr =     0.000000    0.000000    0.000000
     new conv_thr            =       0.0000000007 Ry

     new unit-cell volume =    738.88528 a.u.^3 (   109.49150 Ang^3 )
     density =      3.61807 g/cm^3

CELL_PARAMETERS (alat=  6.30939026)
   0.507722767  -0.507722767   2.852998706
   0.507722767   0.507722767   2.852998706
  -0.507722767  -0.507722767   2.852998706

ATOMIC_POSITIONS (crystal)
Si           -0.5000000000        0.5900842703        0.0900842703
Si           -0.5000000000        1.4099157297        0.9099157297
Si            0.5000000000        0.0900842703       -0.4099157297
Si            0.5000000000        0.9099157297        0.4099157297
Si            0.0000000000        0.3248115076        0.3248115076
Si            0.0000000000        0.6751884924        0.6751884924
Si            0.0000000000       -0.0000000000       -0.0000000000
Si            0.0000000000        0.5000000000        0.5000000000
Li            0.0000000000        0.2023958799        0.2023958799
Li            0.0000000000        0.7976041201        0.7976041201



     Writing config-only to output data dir ./output/SiLi.save/
     NEW-OLD atomic charge density approx. for the potential
     extrapolated charge   36.80026, renormalised to   38.00000

     total cpu time spent up to now is      231.0 secs

     Self-consistent Calculation

     iteration #  1     ecut=    60.00 Ry     beta= 0.80
     Davidson diagonalization with overlap
     ethr =  1.00E-06,  avg # of iterations = 11.8

     total cpu time spent up to now is      238.4 secs

     total energy              =     -95.38803666 Ry
     estimated scf accuracy    <       0.54176123 Ry

     iteration #  2     ecut=    60.00 Ry     beta= 0.80
     Davidson diagonalization with overlap
     ethr =  1.43E-03,  avg # of iterations =  7.6

     total cpu time spent up to now is      243.5 secs

     total energy              =     -92.92016364 Ry
     estimated scf accuracy    <      50.20476475 Ry

     iteration #  3     ecut=    60.00 Ry     beta= 0.80
     Davidson diagonalization with overlap
     ethr =  1.43E-03,  avg # of iterations =  6.2

     total cpu time spent up to now is      247.9 secs

     total energy              =     -95.94982431 Ry
     estimated scf accuracy    <       0.43290687 Ry

     iteration #  4     ecut=    60.00 Ry     beta= 0.80
     Davidson diagonalization with overlap
     ethr =  1.14E-03,  avg # of iterations =  1.2

     total cpu time spent up to now is      250.3 secs

     total energy              =     -95.93809902 Ry
     estimated scf accuracy    <       0.23045803 Ry

     iteration #  5     ecut=    60.00 Ry     beta= 0.80
     Davidson diagonalization with overlap
     ethr =  6.06E-04,  avg # of iterations =  2.1

     total cpu time spent up to now is      252.7 secs

     total energy              =     -95.93634548 Ry
     estimated scf accuracy    <       0.06850971 Ry

     iteration #  6     ecut=    60.00 Ry     beta= 0.80
     Davidson diagonalization with overlap
     ethr =  1.80E-04,  avg # of iterations =  4.1

     total cpu time spent up to now is      255.5 secs

     total energy              =     -95.94310755 Ry
     estimated scf accuracy    <       0.00230401 Ry

     iteration #  7     ecut=    60.00 Ry     beta= 0.80
     Davidson diagonalization with overlap
     ethr =  6.06E-06,  avg # of iterations =  7.6

     total cpu time spent up to now is      259.3 secs

     total energy              =     -95.94422847 Ry
     estimated scf accuracy    <       0.00140629 Ry

     iteration #  8     ecut=    60.00 Ry     beta= 0.80
     Davidson diagonalization with overlap
     ethr =  3.70E-06,  avg # of iterations =  1.3

     total cpu time spent up to now is      261.7 secs

     total energy              =     -95.94421493 Ry
     estimated scf accuracy    <       0.00026163 Ry

     iteration #  9     ecut=    60.00 Ry     beta= 0.80
     Davidson diagonalization with overlap
     ethr =  6.88E-07,  avg # of iterations =  3.1

     total cpu time spent up to now is      264.5 secs

     total energy              =     -95.94426388 Ry
     estimated scf accuracy    <       0.00002641 Ry

     iteration # 10     ecut=    60.00 Ry     beta= 0.80
     Davidson diagonalization with overlap
     ethr =  6.95E-08,  avg # of iterations =  2.1

     total cpu time spent up to now is      267.0 secs

     total energy              =     -95.94426680 Ry
     estimated scf accuracy    <       0.00000214 Ry

     iteration # 11     ecut=    60.00 Ry     beta= 0.80
     Davidson diagonalization with overlap
     ethr =  5.62E-09,  avg # of iterations =  4.0

     total cpu time spent up to now is      270.0 secs

     total energy              =     -95.94426731 Ry
     estimated scf accuracy    <       0.00000006 Ry

     iteration # 12     ecut=    60.00 Ry     beta= 0.80
     Davidson diagonalization with overlap
     ethr =  1.64E-10,  avg # of iterations =  5.0

     total cpu time spent up to now is      273.2 secs

     total energy              =     -95.94426733 Ry
     estimated scf accuracy    <       0.00000002 Ry

     iteration # 13     ecut=    60.00 Ry     beta= 0.80
     Davidson diagonalization with overlap
     ethr =  4.74E-11,  avg # of iterations =  2.2

     total cpu time spent up to now is      275.7 secs

     total energy              =     -95.94426734 Ry
     estimated scf accuracy    <          9.6E-10 Ry

     iteration # 14     ecut=    60.00 Ry     beta= 0.80
     Davidson diagonalization with overlap
     ethr =  2.53E-12,  avg # of iterations =  4.6

     total cpu time spent up to now is      278.8 secs

     End of self-consistent calculation

          k = 0.0000 0.0000 0.0000 (  5523 PWs)   bands (ev):

   -33.4742 -33.4576  -5.0526  -2.8818  -0.0614   3.0422   5.3632   6.0486
     6.0486   8.0010   8.0010   8.2422   8.6596  10.1437  10.5539  10.8366
    10.8366  11.0673  11.5871  12.5655  12.9225  12.9225  15.1573

          k =-0.3283 0.0000 0.0584 (  5541 PWs)   bands (ev):

   -33.4688 -33.4591  -3.6722  -1.5717   0.3082   1.3296   2.4597   4.2510
     5.5156   6.9064   7.3100   7.8634   9.2252   9.6974  10.4430  11.0133
    12.0562  12.1002  12.2530  13.0743  13.6028  14.3410  14.6243

[...]
     c_bands:  2 eigenvalues not converged
     c_bands:  1 eigenvalues not converged
     c_bands:  3 eigenvalues not converged
     c_bands:  1 eigenvalues not converged
     c_bands:  3 eigenvalues not converged
     c_bands:  1 eigenvalues not converged
     c_bands:  1 eigenvalues not converged
     c_bands:  2 eigenvalues not converged
     c_bands:  1 eigenvalues not converged
     c_bands:  1 eigenvalues not converged
     ethr =  1.00E-06,  avg # of iterations = 18.8

     total cpu time spent up to now is      599.8 secs

     total energy              =     -95.76726016 Ry
     estimated scf accuracy    <       0.19367578 Ry

     iteration #  2     ecut=    60.00 Ry     beta= 0.80
     Davidson diagonalization with overlap
     ethr =  5.10E-04,  avg # of iterations =  5.8

     total cpu time spent up to now is      603.4 secs

     total energy              =     -95.19597303 Ry
     estimated scf accuracy    <       7.78331478 Ry

     iteration #  3     ecut=    60.00 Ry     beta= 0.80
     Davidson diagonalization with overlap
     ethr =  5.10E-04,  avg # of iterations =  5.6

     total cpu time spent up to now is      606.8 secs

     total energy              =     -95.87587371 Ry
     estimated scf accuracy    <       0.02856616 Ry

     iteration #  4     ecut=    60.00 Ry     beta= 0.80
     Davidson diagonalization with overlap
     ethr =  7.52E-05,  avg # of iterations =  3.8

     total cpu time spent up to now is      609.7 secs

     total energy              =     -95.88265979 Ry
     estimated scf accuracy    <       0.01138514 Ry

     iteration #  5     ecut=    60.00 Ry     beta= 0.80
     Davidson diagonalization with overlap
     ethr =  3.00E-05,  avg # of iterations =  2.1

     total cpu time spent up to now is      612.2 secs

     total energy              =     -95.88428235 Ry
     estimated scf accuracy    <       0.00072160 Ry

     iteration #  6     ecut=    60.00 Ry     beta= 0.80
     Davidson diagonalization with overlap
     ethr =  1.90E-06,  avg # of iterations =  6.9

     total cpu time spent up to now is      615.2 secs

     total energy              =     -95.88441364 Ry
     estimated scf accuracy    <       0.00003971 Ry

     iteration #  7     ecut=    60.00 Ry     beta= 0.80
     Davidson diagonalization with overlap
     ethr =  1.04E-07,  avg # of iterations =  3.9

     total cpu time spent up to now is      618.0 secs

     total energy              =     -95.88442327 Ry
     estimated scf accuracy    <       0.00000104 Ry

     iteration #  8     ecut=    60.00 Ry     beta= 0.80
     Davidson diagonalization with overlap
     ethr =  2.74E-09,  avg # of iterations =  4.6

     total cpu time spent up to now is      621.1 secs

     total energy              =     -95.88442379 Ry
     estimated scf accuracy    <       0.00000065 Ry

     iteration #  9     ecut=    60.00 Ry     beta= 0.80
     Davidson diagonalization with overlap
     ethr =  1.71E-09,  avg # of iterations =  1.7

     total cpu time spent up to now is      623.3 secs

     total energy              =     -95.88442381 Ry
     estimated scf accuracy    <       0.00000008 Ry

     iteration # 10     ecut=    60.00 Ry     beta= 0.80
     Davidson diagonalization with overlap
     ethr =  2.00E-10,  avg # of iterations =  3.7

     total cpu time spent up to now is      625.9 secs

     total energy              =     -95.88442383 Ry
     estimated scf accuracy    <          2.8E-09 Ry

     iteration # 11     ecut=    60.00 Ry     beta= 0.80
     Davidson diagonalization with overlap
     ethr =  7.34E-12,  avg # of iterations =  4.1

     total cpu time spent up to now is      628.7 secs

     total energy              =     -95.88442383 Ry
     estimated scf accuracy    <          2.9E-09 Ry

     iteration # 12     ecut=    60.00 Ry     beta= 0.80
     Davidson diagonalization with overlap
     ethr =  7.34E-12,  avg # of iterations =  1.9

     total cpu time spent up to now is      631.0 secs

     total energy              =     -95.88442383 Ry
     estimated scf accuracy    <          1.6E-10 Ry

     iteration # 13     ecut=    60.00 Ry     beta= 0.80
     Davidson diagonalization with overlap
     ethr =  4.29E-13,  avg # of iterations =  4.2

     total cpu time spent up to now is      633.8 secs

     End of self-consistent calculation

          k = 0.0000 0.0000 0.0000 (  5465 PWs)   bands (ev):

   -32.6945 -32.6822  -3.8848  -1.8485   0.6412   4.2152   5.1077   7.1685
     7.1685   8.7494   8.7494   9.4050   9.7150  11.3219  11.5712  11.5712
    11.6626  12.5160  12.6121  13.1338  13.1338  13.3997  15.6363

          k =-0.3275-0.0000 0.0618 (  5493 PWs)   bands (ev):

   -32.6886 -32.6834  -2.5134  -0.5860   1.3409   2.1348   3.2753   5.0821
     6.2223   7.2658   8.3819   8.4275  10.0350  10.7367  11.7547  12.1049
    12.6989  12.7654  13.1320  13.8898  14.6663  14.9298  15.0141

          k =-0.0000 0.1638 0.0309 (  5492 PWs)   bands (ev):

   -32.6924 -32.6832  -3.5404  -1.5275   0.9452   4.2122   4.5572   5.6039
     6.5184   7.4832   9.0737   9.1607   9.9191  10.4643  11.8147  11.8942
    12.5288  12.8853  13.5338  13.7256  14.3426  14.7005  15.1436

          k =-0.3275 0.1638 0.0927 (  5508 PWs)   bands (ev):

   -32.6875 -32.6831  -2.1690  -0.2811   1.7007   2.5042   3.5866   5.0556
     5.8476   6.4279   7.5062   7.9293   9.0992   9.6162  10.2929  11.3170
    11.5314  12.5330  13.2657  14.0716  14.5057  15.4561  15.9213

          k = 0.3275 0.1638-0.0309 (  5508 PWs)   bands (ev):

   -32.6875 -32.6831  -2.1740  -0.2405   1.6466   2.3880   3.6086   5.6019
     5.8555   6.5199   7.1470   7.4470   8.7848   9.6432  10.6012  11.4097
    11.8383  13.0094  13.4173  13.9517  14.3881  15.3217  15.7939

          k =-0.3275 0.3275 0.1235 (  5542 PWs)   bands (ev):

   -32.6853 -32.6828  -1.1472   0.6587   2.6336   2.8460   3.6544   4.3818
     4.8393   5.8084   6.6989   6.7786   7.7955   8.4682   9.4806   9.8705
    10.5790  11.4094  12.1263  12.7686  13.9846  14.2785  17.3263

          k = 0.3275 0.3275-0.0000 (  5511 PWs)   bands (ev):

   -32.6849 -32.6823  -1.1567   0.7319   2.5038   2.8656   3.4724   4.4891
     4.6911   6.6760   6.7015   7.1924   7.4820   8.4055   8.6240   9.0018
    10.3237  11.4127  13.3070  14.7080  14.9254  14.9387  15.3201

          k = 0.0000-0.4913-0.0927 (  5506 PWs)   bands (ev):

   -32.6853 -32.6852  -0.9627  -0.6646   0.5411   1.6526   2.8448   4.7937
     5.5362   7.1604   8.9127   9.5203   9.8915  10.1244  11.2843  12.1069
    12.1214  12.3941  13.5388  13.9028  13.9978  14.0693  14.8676

          k =-0.3275-0.4913-0.0309 (  5530 PWs)   bands (ev):

   -32.6831 -32.6829   0.3925   0.6786   1.8639   2.9055   3.9326   4.5997
     4.7162   5.7917   5.9949   6.2997   6.8514   8.2088   8.8695   9.4713
    10.3624  10.5370  11.6757  13.1795  13.7801  14.4213  15.7407

          k = 0.1638-0.1638 0.0000 (  5503 PWs)   bands (ev):

   -32.6910 -32.6830  -3.1980  -1.1941   1.2023   4.5778   4.8131   4.9556
     5.7413   6.6190   6.9179   9.1027  10.0905  10.8885  10.9344  12.3905
    13.0229  13.1180  13.4152  13.6466  14.6227  15.0333  15.5303

          k =-0.1638-0.1638 0.0618 (  5509 PWs)   bands (ev):

   -32.6911 -32.6830  -3.1953  -1.2169   1.3023   4.1356   4.8067   4.9547
     6.2445   6.6633   6.9725   8.9218   9.8294  11.1111  11.1692  12.0854
    12.8794  13.0106  13.1687  14.1579  14.6807  15.0681  15.3068

          k = 0.4913-0.1638-0.0618 (  5514 PWs)   bands (ev):

   -32.6846 -32.6844  -0.6223  -0.3273   0.8760   1.9699   3.1678   5.0599
     5.7923   7.1820   7.4993   7.5363   8.8195   8.9099  10.0020  10.2455
    11.1088  12.1452  13.6742  14.0105  14.6425  15.1566  15.8436

          k =-0.1638 0.0000 0.0927 (  5483 PWs)   bands (ev):

   -32.6922 -32.6831  -3.5359  -1.5652   1.1298   3.5639   4.5512   6.3059
     6.7287   7.4717   8.8509   9.1391   9.8649  10.6652  11.1406  11.5204
    12.4876  12.8196  14.0821  14.1285  14.3511  14.7093  15.1524

          k = 0.4913 0.0000-0.0309 (  5520 PWs)   bands (ev):

   -32.6856 -32.6854  -0.9627  -0.6645   0.5406   1.6552   2.8367   4.9005
     5.3569   7.4964   8.2721   9.8911  10.1125  10.1251  11.2811  11.7172
    12.1307  12.4807  13.5077  13.5496  14.0485  14.6213  14.9821

          k =-0.1638 0.1638 0.1235 (  5503 PWs)   bands (ev):

   -32.6909 -32.6831  -3.1898  -1.2604   1.5390   3.5343   4.7942   4.9522
     6.7444   6.7614   7.4265   8.6219   9.2951  10.8428  11.7472  12.1498
    12.7875  12.9661  13.0654  13.9866  14.5832  14.6487  15.1906

          k = 0.4913 0.1638-0.0000 (  5518 PWs)   bands (ev):

   -32.6847 -32.6845  -0.6224  -0.3272   0.8754   1.9727   3.1587   5.1799
     5.5940   7.3045   7.5135   7.7089   8.4325   8.8541  10.1107  10.5876
    11.0232  11.9683  13.4831  13.9109  15.0933  15.4116  15.8838

          k =-0.1638-0.6551-0.0309 (  5518 PWs)   bands (ev):

   -32.6877 -32.6831  -2.1639  -0.3193   1.7432   2.6799   3.5112   4.7023
     5.8370   6.2782   7.6464   8.7793   9.5202   9.5903   9.8560  10.6214
    11.5501  12.0137  13.6480  14.1069  14.6146  15.0211  15.9145

          k = 0.4913-0.4913-0.1235 (  5516 PWs)   bands (ev):

   -32.6819 -32.6819   1.9440   2.1823   2.1954   2.5110   3.1001   4.0706
     4.1732   4.8239   5.6666   6.0469   6.3566   7.9194   8.6408   9.2264
     9.3887  10.3783  12.1518  12.2384  13.1565  13.3329  15.8361

          k = 0.4913-0.3275-0.0927 (  5528 PWs)   bands (ev):

   -32.6830 -32.6829   0.3926   0.6784   1.8647   2.9021   3.9395   4.6289
     4.6893   5.7049   6.0067   6.4418   6.8016   8.2052   8.6547  10.0183
    10.0616  10.5360  11.5357  13.1263  14.0886  14.4685  15.5614

          k = 0.0000-0.0000 0.1235 (  5486 PWs)   bands (ev):

   -32.6940 -32.6832  -3.8772  -1.9115   0.9793   3.0282   6.7566   7.1487
     7.1487   8.8655   8.8655   9.3916   9.4504  10.1034  11.0719  11.0719
    11.3505  11.8443  13.0108  14.1613  14.1613  15.2408  16.0700

          k = 0.6551 0.0000 0.0000 (  5500 PWs)   bands (ev):

   -32.6885 -32.6836  -2.5049  -0.6514   1.4148   2.4215   3.1608   4.3962
     6.0094   8.4084   8.7030   9.5168   9.6941  10.1526  10.5241  11.6951
    11.9774  12.5019  13.0969  13.8391  14.7042  15.7602  16.1360

          k = 0.0000-0.8188-0.0309 (  5464 PWs)   bands (ev):

   -32.6920 -32.6827  -3.5313  -1.6010   1.3644   3.0672   4.5452   6.5037
     7.4607   7.5152   8.4545   9.2103   9.7489  10.0008  11.2869  11.4072
    12.6837  12.8207  13.5236  14.4088  14.6164  14.7780  15.1596

          k =-0.4913 0.4913-0.0000 (  5524 PWs)   bands (ev):

   -32.6821 -32.6819   1.9440   2.1759   2.2022   2.5111   3.1001   4.0245
     4.2314   4.8239   5.6666   5.9062   6.5436   7.9195   8.3531   9.3862
     9.5866  10.3861  11.6633  12.2126  13.3660  14.0801  14.7915

          k =-0.1638 0.8188 0.0000 (  5484 PWs)   bands (ev):

   -32.6908 -32.6826  -3.1871  -1.2812   1.6912   3.2552   4.7882   4.9509
     6.8127   6.8170   8.0938   8.4858   8.7298  10.5824  12.1189  12.6163
    12.6928  12.8523  12.9020  13.7861  14.2270  14.5342  15.2403

     the Fermi energy is    13.4803 ev

!    total energy              =     -95.88442383 Ry
     estimated scf accuracy    <          7.5E-11 Ry
     smearing contrib. (-TS)   =       0.00105461 Ry
     internal energy E=F+TS    =     -95.88547844 Ry

     The total energy is F=E-TS. E is the sum of the following terms:
     one-electron contribution =      29.27971483 Ry
     hartree contribution      =       7.81761820 Ry
     xc contribution           =     -33.74942739 Ry
     ewald contribution        =     -99.23338407 Ry

     convergence has been achieved in  13 iterations

     Forces acting on atoms (cartesian axes, Ry/au):

     atom    1 type  1   force =     0.00000000   -0.00000000    0.00014723
     atom    2 type  1   force =    -0.00000000    0.00000000   -0.00014723
     atom    3 type  1   force =    -0.00000000    0.00000000    0.00014723
     atom    4 type  1   force =     0.00000000    0.00000000   -0.00014723
     atom    5 type  1   force =     0.00000000    0.00000000   -0.00165427
     atom    6 type  1   force =    -0.00000000   -0.00000000    0.00165427
     atom    7 type  1   force =     0.00000000   -0.00000000    0.00000000
     atom    8 type  1   force =     0.00000000   -0.00000000   -0.00000000
     atom    9 type  2   force =    -0.00000000   -0.00000000    0.00077509
     atom   10 type  2   force =     0.00000000   -0.00000000   -0.00077509
     The non-local contrib.  to forces
     atom    1 type  1   force =     0.00000000    0.00000000   -0.02346566
     atom    2 type  1   force =     0.00000000   -0.00000000    0.02346566
     atom    3 type  1   force =     0.00000000   -0.00000000   -0.02346566
     atom    4 type  1   force =    -0.00000000   -0.00000000    0.02346566
     atom    5 type  1   force =    -0.00000000    0.00000000    0.06574028
     atom    6 type  1   force =     0.00000000   -0.00000000   -0.06574028
     atom    7 type  1   force =    -0.00000000    0.00000000    0.00000000
     atom    8 type  1   force =    -0.00000000    0.00000000    0.00000000
     atom    9 type  2   force =    -0.00000000   -0.00000000   -0.00997685
     atom   10 type  2   force =     0.00000000    0.00000000    0.00997685
     The ionic contribution  to forces
     atom    1 type  1   force =     0.00000000   -0.00000000    1.27968058
     atom    2 type  1   force =     0.00000000    0.00000000   -1.27968058
     atom    3 type  1   force =     0.00000000   -0.00000000    1.27968058
     atom    4 type  1   force =     0.00000000   -0.00000000   -1.27968058
     atom    5 type  1   force =    -0.00000000    0.00000000   -1.83419052
     atom    6 type  1   force =     0.00000000    0.00000000    1.83419052
     atom    7 type  1   force =     0.00000000   -0.00000000    0.00000000
     atom    8 type  1   force =     0.00000000    0.00000000    0.00000000
     atom    9 type  2   force =     0.00000000   -0.00000000    1.32913146
     atom   10 type  2   force =     0.00000000   -0.00000000   -1.32913146
     The local contribution  to forces
     atom    1 type  1   force =    -0.00000000    0.00000000   -1.25656916
     atom    2 type  1   force =     0.00000000   -0.00000000    1.25656916
     atom    3 type  1   force =     0.00000000    0.00000000   -1.25656916
     atom    4 type  1   force =    -0.00000000    0.00000000    1.25656916
     atom    5 type  1   force =     0.00000000   -0.00000000    1.76597982
     atom    6 type  1   force =    -0.00000000    0.00000000   -1.76597982
     atom    7 type  1   force =     0.00000000    0.00000000   -0.00000000
     atom    8 type  1   force =    -0.00000000   -0.00000000    0.00000000
     atom    9 type  2   force =    -0.00000000    0.00000000   -1.31838499
     atom   10 type  2   force =    -0.00000000    0.00000000    1.31838499
     The core correction contribution to forces
     atom    1 type  1   force =     0.00000000    0.00000000    0.00049107
     atom    2 type  1   force =    -0.00000000   -0.00000000   -0.00049107
     atom    3 type  1   force =    -0.00000000    0.00000000    0.00049107
     atom    4 type  1   force =     0.00000000    0.00000000   -0.00049107
     atom    5 type  1   force =    -0.00000000   -0.00000000    0.00082257
     atom    6 type  1   force =    -0.00000000   -0.00000000   -0.00082257
     atom    7 type  1   force =     0.00000000   -0.00000000   -0.00000000
     atom    8 type  1   force =    -0.00000000   -0.00000000    0.00000000
     atom    9 type  2   force =     0.00000000    0.00000000    0.00000000
     atom   10 type  2   force =     0.00000000    0.00000000    0.00000000
     The Hubbard contrib.    to forces
     atom    1 type  1   force =     0.00000000    0.00000000    0.00000000
     atom    2 type  1   force =     0.00000000    0.00000000    0.00000000
     atom    3 type  1   force =     0.00000000    0.00000000    0.00000000
     atom    4 type  1   force =     0.00000000    0.00000000    0.00000000
     atom    5 type  1   force =     0.00000000    0.00000000    0.00000000
     atom    6 type  1   force =     0.00000000    0.00000000    0.00000000
     atom    7 type  1   force =     0.00000000    0.00000000    0.00000000
     atom    8 type  1   force =     0.00000000    0.00000000    0.00000000
     atom    9 type  2   force =     0.00000000    0.00000000    0.00000000
     atom   10 type  2   force =     0.00000000    0.00000000    0.00000000
     The SCF correction term to forces
     atom    1 type  1   force =     0.00000000    0.00000000    0.00001041
     atom    2 type  1   force =    -0.00000000    0.00000000   -0.00001041
     atom    3 type  1   force =    -0.00000000   -0.00000000    0.00001041
     atom    4 type  1   force =    -0.00000000   -0.00000000   -0.00001041
     atom    5 type  1   force =     0.00000000    0.00000000   -0.00000642
     atom    6 type  1   force =     0.00000000    0.00000000    0.00000642
     atom    7 type  1   force =    -0.00000000    0.00000000    0.00000000
     atom    8 type  1   force =     0.00000000   -0.00000000    0.00000000
     atom    9 type  2   force =    -0.00000000    0.00000000    0.00000547
     atom   10 type  2   force =     0.00000000   -0.00000000   -0.00000547

     Total force =     0.002600     Total SCF correction =     0.000024


     Computing stress (Cartesian axis) and pressure

          total   stress  (Ry/bohr**3)                   (kbar)     P=      499.36
   0.00339552  -0.00000000  -0.00000000          499.50       -0.00       -0.00
  -0.00000000   0.00339552   0.00000000           -0.00      499.50        0.00
  -0.00000000   0.00000000   0.00339277           -0.00        0.00      499.09


     Writing all to output data dir ./output/SiLi.save/

     init_run     :      3.90s CPU      5.62s WALL (       2 calls)
     electrons    :    551.44s CPU    589.57s WALL (      13 calls)
     update_pot   :      5.53s CPU      5.63s WALL (      11 calls)
     forces       :      5.25s CPU      5.33s WALL (      13 calls)
     stress       :     28.65s CPU     29.48s WALL (      13 calls)

     Called by init_run:
     wfcinit      :      2.86s CPU      3.76s WALL (       2 calls)
     potinit      :      0.51s CPU      0.92s WALL (       2 calls)
     hinit0       :      0.47s CPU      0.80s WALL (       2 calls)

     Called by electrons:
     c_bands      :    473.60s CPU    506.16s WALL (     176 calls)
     sum_band     :     69.52s CPU     74.16s WALL (     176 calls)
     v_of_rho     :      8.43s CPU      9.44s WALL (     188 calls)
     mix_rho      :      0.42s CPU      0.60s WALL (     176 calls)

     Called by c_bands:
     init_us_2    :      2.76s CPU      3.11s WALL (    9120 calls)
     init_us_2:cp :      2.74s CPU      3.10s WALL (    9120 calls)
     cegterg      :    462.20s CPU    493.08s WALL (    4224 calls)

     Called by *egterg:
     cdiaghg      :     12.32s CPU     12.80s WALL (   21599 calls)
     h_psi        :    434.25s CPU    465.20s WALL (   21935 calls)
     g_psi        :      0.48s CPU      0.49s WALL (   17663 calls)

     Called by h_psi:
     h_psi:calbec :     15.30s CPU     16.01s WALL (   21935 calls)
     vloc_psi     :    404.64s CPU    434.43s WALL (   21935 calls)
     add_vuspsi   :     13.93s CPU     14.33s WALL (   21935 calls)

     General routines
     calbec       :     17.55s CPU     18.30s WALL (   23495 calls)
     fft          :      2.67s CPU      4.15s WALL (    2204 calls)
     ffts         :      0.15s CPU      0.19s WALL (     176 calls)
     fftw         :    411.85s CPU    441.29s WALL (  695342 calls)

     Parallel routines

     PWSCF        :   9m55.17s CPU  10m36.47s WALL


   This run was terminated on:  23:15:22  21Jan2025            

=------------------------------------------------------------------------------=
   JOB DONE.
=------------------------------------------------------------------------------=
