
     Program PWSCF v.7.2 starts on 22Jan2025 at  0:17:11 

     This program is part of the open-source Quantum ESPRESSO suite
     for quantum simulation of materials; please cite
         "P. Giannozzi et al., J. Phys.:Condens. Matter 21 395502 (2009);
         "P. Giannozzi et al., J. Phys.:Condens. Matter 29 465901 (2017);
         "P. Giannozzi et al., J. Chem. Phys. 152 154105 (2020);
          URL http://www.quantum-espresso.org", 
     in publications or presentations arising from this work. More details at
     http://www.quantum-espresso.org/quote

     Parallel version (MPI & OpenMP), running on       8 processor cores
     Number of MPI processes:                 8
     Threads/MPI process:                     1

     MPI processes distributed on     1 nodes
     482257 MiB available memory on the printing compute node when the environment starts

     Waiting for input...
     Reading input from standard input

     Current dimensions of program PWSCF are:
     Max number of different atomic species (ntypx) = 10
     Max number of k-points (npk) =  40000
     Max angular momentum in pseudopotentials (lmaxx) =  4

     R & G space division:  proc/nbgrp/npool/nimage =       8
     Subspace diagonalization in iterative solution of the eigenvalue problem:
     a serial algorithm will be used


     Parallelization info
     --------------------
     sticks:   dense  smooth     PW     G-vecs:    dense   smooth      PW
     Min         135     135     40                 4601     4601     732
     Max         136     136     41                 4604     4604     734
     Sum        1085    1085    325                36823    36823    5863

     Using Slab Decomposition



     bravais-lattice index     =            6
     lattice parameter (alat)  =       5.8156  a.u.
     unit-cell volume          =     271.9078 (a.u.)^3
     number of atoms/cell      =            5
     number of atomic types    =            2
     number of electrons       =        16.00
     number of Kohn-Sham states=           12
     kinetic-energy cutoff     =     100.0000  Ry
     charge density cutoff     =     400.0000  Ry
     scf convergence threshold =      1.0E-08
     mixing beta               =       0.7000
     number of iterations used =            8  plain     mixing
     energy convergence thresh.=      5.0E-05
     force convergence thresh. =      5.0E-04
     press convergence thresh. =      5.0E-01
     Exchange-correlation= PBE
                           (   1   4   3   4   0   0   0)
     nstep                     =           50


     celldm(1)=   5.815571  celldm(2)=   0.000000  celldm(3)=   1.382435
     celldm(4)=   0.000000  celldm(5)=   0.000000  celldm(6)=   0.000000

     crystal axes: (cart. coord. in units of alat)
               a(1) = (   1.000000   0.000000   0.000000 )  
               a(2) = (   0.000000   1.000000   0.000000 )  
               a(3) = (   0.000000   0.000000   1.382435 )  

     reciprocal axes: (cart. coord. in units 2 pi/alat)
               b(1) = (  1.000000  0.000000  0.000000 )  
               b(2) = (  0.000000  1.000000  0.000000 )  
               b(3) = (  0.000000  0.000000  0.723361 )  


     PseudoPot. # 1 for Si read from file:
     ../pseudo/Si_ONCV_PBE_sr.upf
     MD5 check sum: e543d271109d17c80368dfa7c482276d
     Pseudo is Norm-conserving + core correction, Zval =  4.0
     Generated using ONCVPSP code by D. R. Hamann
     Using radial grid of 1510 points,  6 beta functions with: 
                l(1) =   0
                l(2) =   0
                l(3) =   1
                l(4) =   1
                l(5) =   2
                l(6) =   2

     PseudoPot. # 2 for Li read from file:
     ../pseudo/Li_ONCV_PBE_sr.upf
     MD5 check sum: 50ff420e78310ffa21704f3361e624a4
     Pseudo is Norm-conserving, Zval =  3.0
     Generated using ONCVPSP code by D. R. Hamann
     Using radial grid of 1944 points,  4 beta functions with: 
                l(1) =   0
                l(2) =   0
                l(3) =   1
                l(4) =   1

     atomic species   valence    mass     pseudopotential
        Si             4.00    28.08550     Si( 1.00)
        Li             3.00     6.94100     Li( 1.00)

     16 Sym. Ops., with inversion, found



   Cartesian axes

     site n.     atom                  positions (alat units)
         1           Si  tau(   1) = (   0.5000000   0.5000000   0.6912174  )
         2           Li  tau(   2) = (   0.0000000   0.5000000   0.1989849  )
         3           Li  tau(   3) = (   0.0000000   0.5000000   1.1834498  )
         4           Li  tau(   4) = (   0.5000000   0.0000000   0.1989849  )
         5           Li  tau(   5) = (   0.5000000   0.0000000   1.1834498  )

     number of k points=   252  Marzari-Vanderbilt smearing, width (Ry)=  0.0200

     Number of k-points >= 100: set verbosity='high' to print them.

     Dense  grid:    36823 G-vectors     FFT dimensions: (  40,  40,  54)

     Estimated max dynamical RAM per process >      43.15 MB

     Estimated total dynamical RAM >     345.20 MB

     Initial potential from superposition of free atoms

     starting charge      15.9811, renormalised to      16.0000
     Starting wfcs are   12 randomized atomic wfcs

     total cpu time spent up to now is        2.3 secs

     Self-consistent Calculation

     iteration #  1     ecut=   100.00 Ry     beta= 0.70
     Davidson diagonalization with overlap
     ethr =  1.00E-02,  avg # of iterations =  5.9

     total cpu time spent up to now is        7.0 secs

     total energy              =     -65.30282280 Ry
     estimated scf accuracy    <       0.20233783 Ry

     iteration #  2     ecut=   100.00 Ry     beta= 0.70
     Davidson diagonalization with overlap
     ethr =  1.26E-03,  avg # of iterations =  2.4

     total cpu time spent up to now is       10.1 secs

     total energy              =     -65.33883722 Ry
     estimated scf accuracy    <       0.18878052 Ry

     iteration #  3     ecut=   100.00 Ry     beta= 0.70
     Davidson diagonalization with overlap
     ethr =  1.18E-03,  avg # of iterations =  1.9

     total cpu time spent up to now is       12.8 secs

     total energy              =     -65.38001581 Ry
     estimated scf accuracy    <       0.00250609 Ry

     iteration #  4     ecut=   100.00 Ry     beta= 0.70
     Davidson diagonalization with overlap
     ethr =  1.57E-05,  avg # of iterations =  4.0

     total cpu time spent up to now is       16.1 secs

     total energy              =     -65.38048723 Ry
     estimated scf accuracy    <       0.00004666 Ry

     iteration #  5     ecut=   100.00 Ry     beta= 0.70
     Davidson diagonalization with overlap
     c_bands:  1 eigenvalues not converged
     ethr =  2.92E-07,  avg # of iterations =  2.8

     total cpu time spent up to now is       19.0 secs

     total energy              =     -65.38049582 Ry
     estimated scf accuracy    <       0.00000214 Ry

     iteration #  6     ecut=   100.00 Ry     beta= 0.70
     Davidson diagonalization with overlap
     ethr =  1.34E-08,  avg # of iterations =  2.2

     total cpu time spent up to now is       21.8 secs

     End of self-consistent calculation

     Number of k-points >= 100: set verbosity='high' to print the bands.

     the Fermi energy is     8.0780 ev

!    total energy              =     -65.38049628 Ry
     estimated scf accuracy    <          9.0E-09 Ry
     smearing contrib. (-TS)   =      -0.00030504 Ry
     internal energy E=F+TS    =     -65.38019124 Ry

     The total energy is F=E-TS. E is the sum of the following terms:
     one-electron contribution =     -26.08015710 Ry
     hartree contribution      =      13.48922535 Ry
     xc contribution           =     -17.40773881 Ry
     ewald contribution        =     -35.38152069 Ry

     convergence has been achieved in   6 iterations

     Forces acting on atoms (cartesian axes, Ry/au):

     atom    1 type  1   force =     0.00000000    0.00000000    0.00000000
     atom    2 type  2   force =     0.00000000    0.00000000    0.19538654
     atom    3 type  2   force =     0.00000000    0.00000000   -0.19538654
     atom    4 type  2   force =     0.00000000    0.00000000    0.19538654
     atom    5 type  2   force =     0.00000000    0.00000000   -0.19538654
     The non-local contrib.  to forces
     atom    1 type  1   force =     0.00000000    0.00000000    0.00000000
     atom    2 type  2   force =     0.00000000    0.00000000   -0.37852577
     atom    3 type  2   force =     0.00000000    0.00000000    0.37852577
     atom    4 type  2   force =     0.00000000    0.00000000   -0.37852577
     atom    5 type  2   force =     0.00000000    0.00000000    0.37852577
     The ionic contribution  to forces
     atom    1 type  1   force =     0.00000000    0.00000000    0.00000000
     atom    2 type  2   force =    -0.00000000    0.00000000    2.73468595
     atom    3 type  2   force =    -0.00000000   -0.00000000   -2.73468595
     atom    4 type  2   force =     0.00000000   -0.00000000    2.73468595
     atom    5 type  2   force =     0.00000000   -0.00000000   -2.73468595
     The local contribution  to forces
     atom    1 type  1   force =    -0.00000000   -0.00000000   -0.00000000
     atom    2 type  2   force =    -0.00000000    0.00000000   -2.16080429
     atom    3 type  2   force =    -0.00000000    0.00000000    2.16080429
     atom    4 type  2   force =     0.00000000    0.00000000   -2.16080429
     atom    5 type  2   force =     0.00000000    0.00000000    2.16080429
     The core correction contribution to forces
     atom    1 type  1   force =    -0.00000000   -0.00000000   -0.00000000
     atom    2 type  2   force =     0.00000000    0.00000000    0.00000000
     atom    3 type  2   force =     0.00000000    0.00000000    0.00000000
     atom    4 type  2   force =     0.00000000    0.00000000    0.00000000
     atom    5 type  2   force =     0.00000000    0.00000000    0.00000000
     The Hubbard contrib.    to forces
     atom    1 type  1   force =     0.00000000    0.00000000    0.00000000
     atom    2 type  2   force =     0.00000000    0.00000000    0.00000000
     atom    3 type  2   force =     0.00000000    0.00000000    0.00000000
     atom    4 type  2   force =     0.00000000    0.00000000    0.00000000
     atom    5 type  2   force =     0.00000000    0.00000000    0.00000000
     The SCF correction term to forces
     atom    1 type  1   force =     0.00000000    0.00000000    0.00000000
     atom    2 type  2   force =     0.00000000   -0.00000000    0.00003066
     atom    3 type  2   force =     0.00000000    0.00000000   -0.00003066
     atom    4 type  2   force =    -0.00000000   -0.00000000    0.00003066
     atom    5 type  2   force =     0.00000000   -0.00000000   -0.00003066

     Total force =     0.390773     Total SCF correction =     0.000061


     Computing stress (Cartesian axis) and pressure

          total   stress  (Ry/bohr**3)                   (kbar)     P=      730.78
   0.00342093   0.00000000   0.00000000          503.24        0.00        0.00
   0.00000000   0.00342093   0.00000000            0.00      503.24        0.00
   0.00000000   0.00000000   0.00806128            0.00        0.00     1185.86


     BFGS Geometry Optimization
     Energy error            =      0.0E+00 Ry
     Gradient error          =      2.0E-01 Ry/Bohr
     Cell gradient error     =      6.9E+02 kbar

     number of scf cycles    =   1
     number of bfgs steps    =   0

     enthalpy           new  =     -64.4563005138 Ry

     new trust radius        =       0.3844021177 bohr
ibrav =      6
 celldm(1) =      5.81876884
 celldm(3) =      1.54272121
Input lattice vectors:
     1.00054994     0.00000000     0.00000000
     0.00000000     1.00054994     0.00000000
     0.00000000     0.00000000     1.54356961
New lattice vectors in INITIAL alat:
     1.00054994     0.00000000     0.00000000
     0.00000000     1.00054994     0.00000000
     0.00000000     0.00000000     1.54356961
New lattice vectors in NEW alat (for information only):
     1.00000000     0.00000000     0.00000000
     0.00000000     1.00000000     0.00000000
     0.00000000     0.00000000     1.54272121
Discrepancy in bohr =     0.000000    0.000000    0.000000
     new conv_thr            =       0.0000000100 Ry

     new unit-cell volume =    303.93503 a.u.^3 (    45.03853 Ang^3 )
     density =      2.05913 g/cm^3

CELL_PARAMETERS (alat=  5.81557063)
   1.000549939   0.000000000   0.000000000
   0.000000000   1.000549939   0.000000000
   0.000000000   0.000000000   1.543569611

ATOMIC_POSITIONS (crystal)
Si            0.5000000000        0.5000000000        0.5000000000
Li            0.0000000000        0.5000000000        0.1682408767
Li            0.0000000000        0.5000000000        0.8317591233
Li            0.5000000000        0.0000000000        0.1682408767
Li            0.5000000000        0.0000000000        0.8317591233



     Writing config-only to output data dir ./output/SiLi.save/
     NEW-OLD atomic charge density approx. for the potential
     extrapolated charge   17.68402, renormalised to   16.00000

     total cpu time spent up to now is       26.3 secs

     Self-consistent Calculation

     iteration #  1     ecut=   100.00 Ry     beta= 0.70
     Davidson diagonalization with overlap
     c_bands:  1 eigenvalues not converged
     c_bands:  1 eigenvalues not converged
     c_bands:  1 eigenvalues not converged
     ethr =  1.00E-06,  avg # of iterations = 11.1

     total cpu time spent up to now is       34.5 secs

     total energy              =     -65.35692492 Ry
     estimated scf accuracy    <       0.37940035 Ry

     iteration #  2     ecut=   100.00 Ry     beta= 0.70
     Davidson diagonalization with overlap
     ethr =  2.37E-03,  avg # of iterations =  3.5

     total cpu time spent up to now is       38.3 secs

     total energy              =     -65.58629458 Ry
     estimated scf accuracy    <       1.05352391 Ry

     iteration #  3     ecut=   100.00 Ry     beta= 0.70
     Davidson diagonalization with overlap
     ethr =  2.37E-03,  avg # of iterations =  2.0

     total cpu time spent up to now is       41.1 secs

     total energy              =     -65.65822054 Ry
     estimated scf accuracy    <       0.07884475 Ry

     iteration #  4     ecut=   100.00 Ry     beta= 0.70
     Davidson diagonalization with overlap
     ethr =  4.93E-04,  avg # of iterations =  2.4

     total cpu time spent up to now is       44.0 secs

     total energy              =     -65.67101023 Ry
     estimated scf accuracy    <       0.00051859 Ry

     iteration #  5     ecut=   100.00 Ry     beta= 0.70
     Davidson diagonalization with overlap
     ethr =  3.24E-06,  avg # of iterations =  6.0

     total cpu time spent up to now is       48.1 secs

     total energy              =     -65.67122369 Ry
     estimated scf accuracy    <       0.00022753 Ry

     iteration #  6     ecut=   100.00 Ry     beta= 0.70
     Davidson diagonalization with overlap
     ethr =  1.42E-06,  avg # of iterations =  2.1

     total cpu time spent up to now is       50.9 secs

     total energy              =     -65.67127792 Ry
     estimated scf accuracy    <       0.00003165 Ry

     iteration #  7     ecut=   100.00 Ry     beta= 0.70
     Davidson diagonalization with overlap
     ethr =  1.98E-07,  avg # of iterations =  1.9

     total cpu time spent up to now is       53.5 secs

     total energy              =     -65.67128606 Ry
     estimated scf accuracy    <       0.00000471 Ry

     iteration #  8     ecut=   100.00 Ry     beta= 0.70
     Davidson diagonalization with overlap
     ethr =  2.94E-08,  avg # of iterations =  1.0

     total cpu time spent up to now is       56.0 secs

     total energy              =     -65.67128662 Ry
     estimated scf accuracy    <       0.00000008 Ry

     iteration #  9     ecut=   100.00 Ry     beta= 0.70
     Davidson diagonalization with overlap
     ethr =  4.96E-10,  avg # of iterations =  2.9

     total cpu time spent up to now is       58.9 secs

     total energy              =     -65.67128665 Ry
     estimated scf accuracy    <       0.00000003 Ry

     iteration # 10     ecut=   100.00 Ry     beta= 0.70
     Davidson diagonalization with overlap
     ethr =  1.58E-10,  avg # of iterations =  1.0

     total cpu time spent up to now is       61.3 secs

     End of self-consistent calculation

     Number of k-points >= 100: set verbosity='high' to print the bands.

     the Fermi energy is     6.8264 ev

!    total energy              =     -65.67128666 Ry
     estimated scf accuracy    <          1.3E-09 Ry
     smearing contrib. (-TS)   =       0.00039612 Ry
     internal energy E=F+TS    =     -65.67168278 Ry

     The total energy is F=E-TS. E is the sum of the following terms:
     one-electron contribution =     -25.09968081 Ry
     hartree contribution      =      12.73109522 Ry
     xc contribution           =     -17.24417942 Ry
     ewald contribution        =     -36.05891777 Ry

     convergence has been achieved in  10 iterations

     Forces acting on atoms (cartesian axes, Ry/au):

     atom    1 type  1   force =     0.00000000    0.00000000    0.00000000
     atom    2 type  2   force =     0.00000000    0.00000000    0.05114493
     atom    3 type  2   force =     0.00000000    0.00000000   -0.05114493
     atom    4 type  2   force =     0.00000000    0.00000000    0.05114493
     atom    5 type  2   force =     0.00000000    0.00000000   -0.05114493
     The non-local contrib.  to forces
     atom    1 type  1   force =     0.00000000    0.00000000    0.00000000
     atom    2 type  2   force =     0.00000000    0.00000000   -0.14067627
     atom    3 type  2   force =     0.00000000    0.00000000    0.14067627
     atom    4 type  2   force =     0.00000000    0.00000000   -0.14067627
     atom    5 type  2   force =     0.00000000    0.00000000    0.14067627
     The ionic contribution  to forces
     atom    1 type  1   force =    -0.00000000   -0.00000000   -0.00000000
     atom    2 type  2   force =    -0.00000000    0.00000000    1.14964740
     atom    3 type  2   force =    -0.00000000    0.00000000   -1.14964740
     atom    4 type  2   force =     0.00000000   -0.00000000    1.14964740
     atom    5 type  2   force =     0.00000000   -0.00000000   -1.14964740
     The local contribution  to forces
     atom    1 type  1   force =     0.00000000    0.00000000   -0.00000000
     atom    2 type  2   force =    -0.00000000    0.00000000   -0.95786020
     atom    3 type  2   force =    -0.00000000    0.00000000    0.95786020
     atom    4 type  2   force =     0.00000000    0.00000000   -0.95786020
     atom    5 type  2   force =     0.00000000    0.00000000    0.95786020
     The core correction contribution to forces
     atom    1 type  1   force =    -0.00000000   -0.00000000   -0.00000000
     atom    2 type  2   force =     0.00000000    0.00000000    0.00000000
     atom    3 type  2   force =     0.00000000    0.00000000    0.00000000
     atom    4 type  2   force =     0.00000000    0.00000000    0.00000000
     atom    5 type  2   force =     0.00000000    0.00000000    0.00000000
     The Hubbard contrib.    to forces
     atom    1 type  1   force =     0.00000000    0.00000000    0.00000000
     atom    2 type  2   force =     0.00000000    0.00000000    0.00000000
     atom    3 type  2   force =     0.00000000    0.00000000    0.00000000
     atom    4 type  2   force =     0.00000000    0.00000000    0.00000000
     atom    5 type  2   force =     0.00000000    0.00000000    0.00000000
     The SCF correction term to forces
     atom    1 type  1   force =     0.00000000    0.00000000    0.00000000
     atom    2 type  2   force =     0.00000000    0.00000000    0.00003400
     atom    3 type  2   force =     0.00000000    0.00000000   -0.00003400
     atom    4 type  2   force =     0.00000000   -0.00000000    0.00003400
     atom    5 type  2   force =     0.00000000   -0.00000000   -0.00003400

     Total force =     0.102290     Total SCF correction =     0.000068


     Computing stress (Cartesian axis) and pressure

          total   stress  (Ry/bohr**3)                   (kbar)     P=      514.10
   0.00267952   0.00000000   0.00000000          394.17        0.00        0.00
   0.00000000   0.00267952   0.00000000            0.00      394.17        0.00
   0.00000000   0.00000000   0.00512535            0.00        0.00      753.96

     Energy error            =      1.8E-01 Ry
     Gradient error          =      5.1E-02 Ry/Bohr
     Cell gradient error     =      2.5E+02 kbar

     number of scf cycles    =   2
     number of bfgs steps    =   1

     enthalpy           old  =     -64.4563005138 Ry
     enthalpy           new  =     -64.6382324707 Ry

     CASE: enthalpy          _new < enthalpy          _old

     new trust radius        =       0.2267727141 bohr
ibrav =      6
 celldm(1) =      5.64457884
 celldm(3) =      1.69376172
Input lattice vectors:
     0.97059759     0.00000000     0.00000000
     0.00000000     0.97059759     0.00000000
     0.00000000     0.00000000     1.64396104
New lattice vectors in INITIAL alat:
     0.97059759     0.00000000     0.00000000
     0.00000000     0.97059759     0.00000000
     0.00000000     0.00000000     1.64396104
New lattice vectors in NEW alat (for information only):
     1.00000000     0.00000000     0.00000000
     0.00000000     1.00000000     0.00000000
     0.00000000     0.00000000     1.69376172
Discrepancy in bohr =     0.000000    0.000000    0.000000
     new conv_thr            =       0.0000000100 Ry

     new unit-cell volume =    304.61195 a.u.^3 (    45.13883 Ang^3 )
     density =      2.05456 g/cm^3

CELL_PARAMETERS (alat=  5.81557063)
   0.970597590   0.000000000   0.000000000
   0.000000000   0.970597590   0.000000000
   0.000000000   0.000000000   1.643961041

ATOMIC_POSITIONS (crystal)
Si            0.5000000000        0.5000000000        0.5000000000
Li            0.0000000000        0.5000000000        0.1805374675
Li            0.0000000000        0.5000000000        0.8194625325
Li            0.5000000000        0.0000000000        0.1805374675
Li            0.5000000000        0.0000000000        0.8194625325



     Writing config-only to output data dir ./output/SiLi.save/
     NEW-OLD atomic charge density approx. for the potential
     extrapolated charge   16.03551, renormalised to   16.00000

     total cpu time spent up to now is       65.8 secs

     Self-consistent Calculation

     iteration #  1     ecut=   100.00 Ry     beta= 0.70
     Davidson diagonalization with overlap
     ethr =  1.00E-06,  avg # of iterations =  9.7

     total cpu time spent up to now is       72.9 secs

     total energy              =     -65.72299679 Ry
     estimated scf accuracy    <       0.01137173 Ry

     iteration #  2     ecut=   100.00 Ry     beta= 0.70
     Davidson diagonalization with overlap
     ethr =  7.11E-05,  avg # of iterations =  3.0

     total cpu time spent up to now is       76.2 secs

     total energy              =     -65.72418387 Ry
     estimated scf accuracy    <       0.03292704 Ry

     iteration #  3     ecut=   100.00 Ry     beta= 0.70
     Davidson diagonalization with overlap
     ethr =  7.11E-05,  avg # of iterations =  2.1

     total cpu time spent up to now is       79.1 secs

     total energy              =     -65.72917384 Ry
     estimated scf accuracy    <       0.00010444 Ry

     iteration #  4     ecut=   100.00 Ry     beta= 0.70
     Davidson diagonalization with overlap
     ethr =  6.53E-07,  avg # of iterations =  4.2

     total cpu time spent up to now is       82.5 secs

     total energy              =     -65.72920547 Ry
     estimated scf accuracy    <       0.00002306 Ry

     iteration #  5     ecut=   100.00 Ry     beta= 0.70
     Davidson diagonalization with overlap
     ethr =  1.44E-07,  avg # of iterations =  1.3

     total cpu time spent up to now is       85.0 secs

     total energy              =     -65.72920903 Ry
     estimated scf accuracy    <       0.00000019 Ry

     iteration #  6     ecut=   100.00 Ry     beta= 0.70
     Davidson diagonalization with overlap
     ethr =  1.16E-09,  avg # of iterations =  3.6

     total cpu time spent up to now is       88.1 secs

     total energy              =     -65.72920912 Ry
     estimated scf accuracy    <       0.00000002 Ry

     iteration #  7     ecut=   100.00 Ry     beta= 0.70
     Davidson diagonalization with overlap
     ethr =  1.15E-10,  avg # of iterations =  1.7

     total cpu time spent up to now is       90.6 secs

     End of self-consistent calculation

     Number of k-points >= 100: set verbosity='high' to print the bands.

     the Fermi energy is     6.6948 ev

!    total energy              =     -65.72920912 Ry
     estimated scf accuracy    <          2.4E-10 Ry
     smearing contrib. (-TS)   =       0.00045749 Ry
     internal energy E=F+TS    =     -65.72966661 Ry

     The total energy is F=E-TS. E is the sum of the following terms:
     one-electron contribution =     -24.26091857 Ry
     hartree contribution      =      12.42469950 Ry
     xc contribution           =     -17.25226917 Ry
     ewald contribution        =     -36.64117836 Ry

     convergence has been achieved in   7 iterations

     Forces acting on atoms (cartesian axes, Ry/au):

     atom    1 type  1   force =     0.00000000    0.00000000    0.00000000
     atom    2 type  2   force =     0.00000000    0.00000000    0.00193529
     atom    3 type  2   force =     0.00000000    0.00000000   -0.00193529
     atom    4 type  2   force =     0.00000000    0.00000000    0.00193529
     atom    5 type  2   force =     0.00000000    0.00000000   -0.00193529
     The non-local contrib.  to forces
     atom    1 type  1   force =     0.00000000    0.00000000    0.00000000
     atom    2 type  2   force =     0.00000000    0.00000000   -0.05719285
     atom    3 type  2   force =     0.00000000    0.00000000    0.05719285
     atom    4 type  2   force =     0.00000000    0.00000000   -0.05719285
     atom    5 type  2   force =     0.00000000    0.00000000    0.05719285
     The ionic contribution  to forces
     atom    1 type  1   force =    -0.00000000   -0.00000000   -0.00000000
     atom    2 type  2   force =    -0.00000000   -0.00000000    0.53185565
     atom    3 type  2   force =    -0.00000000   -0.00000000   -0.53185565
     atom    4 type  2   force =    -0.00000000   -0.00000000    0.53185565
     atom    5 type  2   force =    -0.00000000   -0.00000000   -0.53185565
     The local contribution  to forces
     atom    1 type  1   force =     0.00000000    0.00000000   -0.00000000
     atom    2 type  2   force =    -0.00000000    0.00000000   -0.47274150
     atom    3 type  2   force =    -0.00000000    0.00000000    0.47274150
     atom    4 type  2   force =     0.00000000    0.00000000   -0.47274150
     atom    5 type  2   force =     0.00000000    0.00000000    0.47274150
     The core correction contribution to forces
     atom    1 type  1   force =     0.00000000    0.00000000   -0.00000000
     atom    2 type  2   force =     0.00000000    0.00000000    0.00000000
     atom    3 type  2   force =     0.00000000    0.00000000    0.00000000
     atom    4 type  2   force =     0.00000000    0.00000000    0.00000000
     atom    5 type  2   force =     0.00000000    0.00000000    0.00000000
     The Hubbard contrib.    to forces
     atom    1 type  1   force =     0.00000000    0.00000000    0.00000000
     atom    2 type  2   force =     0.00000000    0.00000000    0.00000000
     atom    3 type  2   force =     0.00000000    0.00000000    0.00000000
     atom    4 type  2   force =     0.00000000    0.00000000    0.00000000
     atom    5 type  2   force =     0.00000000    0.00000000    0.00000000
     The SCF correction term to forces
     atom    1 type  1   force =    -0.00000000   -0.00000000   -0.00000000
     atom    2 type  2   force =    -0.00000000   -0.00000000    0.00001399
     atom    3 type  2   force =    -0.00000000   -0.00000000   -0.00001399
     atom    4 type  2   force =     0.00000000    0.00000000    0.00001399
     atom    5 type  2   force =    -0.00000000    0.00000000   -0.00001399

     Total force =     0.003871     Total SCF correction =     0.000028


     Computing stress (Cartesian axis) and pressure

          total   stress  (Ry/bohr**3)                   (kbar)     P=      513.40
   0.00275767   0.00000000   0.00000000          405.67        0.00        0.00
   0.00000000   0.00275767   0.00000000            0.00      405.67        0.00
   0.00000000   0.00000000   0.00495478            0.00        0.00      728.87

     Energy error            =      5.6E-02 Ry
     Gradient error          =      1.9E-03 Ry/Bohr
     Cell gradient error     =      2.3E+02 kbar

     number of scf cycles    =   3
     number of bfgs steps    =   2

     enthalpy           old  =     -64.6382324707 Ry
     enthalpy           new  =     -64.6938541309 Ry

     CASE: enthalpy          _new < enthalpy          _old

     new trust radius        =       0.3197421164 bohr
ibrav =      6
 celldm(1) =      5.37438424
 celldm(3) =      1.94186371
Input lattice vectors:
     0.92413704     0.00000000     0.00000000
     0.00000000     0.92413704     0.00000000
     0.00000000     0.00000000     1.79454819
New lattice vectors in INITIAL alat:
     0.92413704     0.00000000     0.00000000
     0.00000000     0.92413704     0.00000000
     0.00000000     0.00000000     1.79454819
New lattice vectors in NEW alat (for information only):
     1.00000000     0.00000000     0.00000000
     0.00000000     1.00000000     0.00000000
     0.00000000     0.00000000     1.94186371
Discrepancy in bohr =     0.000000    0.000000    0.000000
     new conv_thr            =       0.0000000004 Ry

     new unit-cell volume =    301.44278 a.u.^3 (    44.66921 Ang^3 )
     density =      2.07616 g/cm^3

CELL_PARAMETERS (alat=  5.81557063)
   0.924137042   0.000000000   0.000000000
   0.000000000   0.924137042   0.000000000
   0.000000000   0.000000000   1.794548186

ATOMIC_POSITIONS (crystal)
Si            0.5000000000        0.5000000000        0.5000000000
Li            0.0000000000        0.5000000000        0.1900777768
Li            0.0000000000        0.5000000000        0.8099222232
Li            0.5000000000        0.0000000000        0.1900777768
Li            0.5000000000        0.0000000000        0.8099222232



     Writing config-only to output data dir ./output/SiLi.save/
     NEW-OLD atomic charge density approx. for the potential
     extrapolated charge   15.83198, renormalised to   16.00000

     total cpu time spent up to now is       95.1 secs

     Self-consistent Calculation

     iteration #  1     ecut=   100.00 Ry     beta= 0.70
     Davidson diagonalization with overlap
     c_bands:  1 eigenvalues not converged
     c_bands:  1 eigenvalues not converged
     c_bands:  1 eigenvalues not converged
     ethr =  1.00E-06,  avg # of iterations = 11.0

     total cpu time spent up to now is      102.7 secs

     total energy              =     -65.75318811 Ry
     estimated scf accuracy    <       0.00947952 Ry

     iteration #  2     ecut=   100.00 Ry     beta= 0.70
     Davidson diagonalization with overlap
     ethr =  5.92E-05,  avg # of iterations =  3.1

     total cpu time spent up to now is      105.8 secs

     total energy              =     -65.75237951 Ry
     estimated scf accuracy    <       0.03415607 Ry

     iteration #  3     ecut=   100.00 Ry     beta= 0.70
     Davidson diagonalization with overlap
     ethr =  5.92E-05,  avg # of iterations =  2.5

     total cpu time spent up to now is      108.8 secs

     total energy              =     -65.75798531 Ry
     estimated scf accuracy    <       0.00030342 Ry

     iteration #  4     ecut=   100.00 Ry     beta= 0.70
     Davidson diagonalization with overlap
     ethr =  1.90E-06,  avg # of iterations =  2.7

     total cpu time spent up to now is      111.5 secs

     total energy              =     -65.75803143 Ry
     estimated scf accuracy    <       0.00000587 Ry

     iteration #  5     ecut=   100.00 Ry     beta= 0.70
     Davidson diagonalization with overlap
     ethr =  3.67E-08,  avg # of iterations =  2.2

     total cpu time spent up to now is      114.2 secs

     total energy              =     -65.75803216 Ry
     estimated scf accuracy    <       0.00000021 Ry

     iteration #  6     ecut=   100.00 Ry     beta= 0.70
     Davidson diagonalization with overlap
     ethr =  1.29E-09,  avg # of iterations =  2.5

     total cpu time spent up to now is      116.9 secs

     total energy              =     -65.75803219 Ry
     estimated scf accuracy    <       0.00000002 Ry

     iteration #  7     ecut=   100.00 Ry     beta= 0.70
     Davidson diagonalization with overlap
     ethr =  1.03E-10,  avg # of iterations =  2.3

     total cpu time spent up to now is      119.7 secs

     End of self-consistent calculation

     Number of k-points >= 100: set verbosity='high' to print the bands.

     the Fermi energy is     6.8405 ev

!    total energy              =     -65.75803219 Ry
     estimated scf accuracy    <          2.0E-10 Ry
     smearing contrib. (-TS)   =       0.00110122 Ry
     internal energy E=F+TS    =     -65.75913341 Ry

     The total energy is F=E-TS. E is the sum of the following terms:
     one-electron contribution =     -23.75522350 Ry
     hartree contribution      =      12.25372912 Ry
     xc contribution           =     -17.26950065 Ry
     ewald contribution        =     -36.98813838 Ry

     convergence has been achieved in   7 iterations

     Forces acting on atoms (cartesian axes, Ry/au):

     atom    1 type  1   force =     0.00000000    0.00000000    0.00000000
     atom    2 type  2   force =     0.00000000    0.00000000   -0.03431692
     atom    3 type  2   force =     0.00000000    0.00000000    0.03431692
     atom    4 type  2   force =     0.00000000    0.00000000   -0.03431692
     atom    5 type  2   force =     0.00000000    0.00000000    0.03431692
     The non-local contrib.  to forces
     atom    1 type  1   force =     0.00000000    0.00000000    0.00000000
     atom    2 type  2   force =     0.00000000    0.00000000   -0.01608189
     atom    3 type  2   force =     0.00000000    0.00000000    0.01608189
     atom    4 type  2   force =     0.00000000    0.00000000   -0.01608189
     atom    5 type  2   force =     0.00000000    0.00000000    0.01608189
     The ionic contribution  to forces
     atom    1 type  1   force =    -0.00000000   -0.00000000   -0.00000000
     atom    2 type  2   force =    -0.00000000   -0.00000000    0.02719889
     atom    3 type  2   force =    -0.00000000   -0.00000000   -0.02719889
     atom    4 type  2   force =    -0.00000000   -0.00000000    0.02719889
     atom    5 type  2   force =    -0.00000000   -0.00000000   -0.02719889
     The local contribution  to forces
     atom    1 type  1   force =    -0.00000000    0.00000000   -0.00000000
     atom    2 type  2   force =    -0.00000000    0.00000000   -0.04542526
     atom    3 type  2   force =    -0.00000000    0.00000000    0.04542526
     atom    4 type  2   force =     0.00000000    0.00000000   -0.04542526
     atom    5 type  2   force =     0.00000000    0.00000000    0.04542526
     The core correction contribution to forces
     atom    1 type  1   force =     0.00000000    0.00000000   -0.00000000
     atom    2 type  2   force =     0.00000000    0.00000000    0.00000000
     atom    3 type  2   force =     0.00000000    0.00000000    0.00000000
     atom    4 type  2   force =     0.00000000    0.00000000    0.00000000
     atom    5 type  2   force =     0.00000000    0.00000000    0.00000000
     The Hubbard contrib.    to forces
     atom    1 type  1   force =     0.00000000    0.00000000    0.00000000
     atom    2 type  2   force =     0.00000000    0.00000000    0.00000000
     atom    3 type  2   force =     0.00000000    0.00000000    0.00000000
     atom    4 type  2   force =     0.00000000    0.00000000    0.00000000
     atom    5 type  2   force =     0.00000000    0.00000000    0.00000000
     The SCF correction term to forces
     atom    1 type  1   force =    -0.00000000   -0.00000000    0.00000000
     atom    2 type  2   force =     0.00000000   -0.00000000   -0.00000865
     atom    3 type  2   force =     0.00000000   -0.00000000    0.00000865
     atom    4 type  2   force =     0.00000000    0.00000000   -0.00000865
     atom    5 type  2   force =     0.00000000    0.00000000    0.00000865

     Total force =     0.068634     Total SCF correction =     0.000017


     Computing stress (Cartesian axis) and pressure

          total   stress  (Ry/bohr**3)                   (kbar)     P=      507.16
   0.00312424   0.00000000   0.00000000          459.59        0.00        0.00
   0.00000000   0.00312424   0.00000000            0.00      459.59        0.00
   0.00000000   0.00000000   0.00409430            0.00        0.00      602.29

     Energy error            =      4.0E-02 Ry
     Gradient error          =      3.4E-02 Ry/Bohr
     Cell gradient error     =      1.0E+02 kbar

     number of scf cycles    =   4
     number of bfgs steps    =   3

     enthalpy           old  =     -64.6938541309 Ry
     enthalpy           new  =     -64.7334490116 Ry

     CASE: enthalpy          _new < enthalpy          _old

     new trust radius        =       0.1241428651 bohr
ibrav =      6
 celldm(1) =      5.25759509
 celldm(3) =      2.05596503
Input lattice vectors:
     0.90405489     0.00000000     0.00000000
     0.00000000     0.90405489     0.00000000
     0.00000000     0.00000000     1.85870525
New lattice vectors in INITIAL alat:
     0.90405489     0.00000000     0.00000000
     0.00000000     0.90405489     0.00000000
     0.00000000     0.00000000     1.85870525
New lattice vectors in NEW alat (for information only):
     1.00000000     0.00000000     0.00000000
     0.00000000     1.00000000     0.00000000
     0.00000000     0.00000000     2.05596503
Discrepancy in bohr =     0.000000    0.000000    0.000000
     new conv_thr            =       0.0000000069 Ry

     new unit-cell volume =    298.79762 a.u.^3 (    44.27724 Ang^3 )
     density =      2.09454 g/cm^3

CELL_PARAMETERS (alat=  5.81557063)
   0.904054894   0.000000000   0.000000000
   0.000000000   0.904054894   0.000000000
   0.000000000   0.000000000   1.858705246

ATOMIC_POSITIONS (crystal)
Si            0.5000000000        0.5000000000        0.5000000000
Li            0.0000000000        0.5000000000        0.1879285216
Li            0.0000000000        0.5000000000        0.8120714784
Li            0.5000000000        0.0000000000        0.1879285216
Li            0.5000000000        0.0000000000        0.8120714784



     Writing config-only to output data dir ./output/SiLi.save/
     NEW-OLD atomic charge density approx. for the potential
     extrapolated charge   15.85852, renormalised to   16.00000

     total cpu time spent up to now is      124.1 secs

     Self-consistent Calculation

     iteration #  1     ecut=   100.00 Ry     beta= 0.70
     Davidson diagonalization with overlap
     ethr =  1.00E-06,  avg # of iterations =  8.1

     total cpu time spent up to now is      130.3 secs

     total energy              =     -65.75479832 Ry
     estimated scf accuracy    <       0.00532997 Ry

     iteration #  2     ecut=   100.00 Ry     beta= 0.70
     Davidson diagonalization with overlap
     ethr =  3.33E-05,  avg # of iterations =  3.5

     total cpu time spent up to now is      133.7 secs

     total energy              =     -65.75330826 Ry
     estimated scf accuracy    <       0.04125886 Ry

     iteration #  3     ecut=   100.00 Ry     beta= 0.70
     Davidson diagonalization with overlap
     ethr =  3.33E-05,  avg # of iterations =  2.5

     total cpu time spent up to now is      136.7 secs

     total energy              =     -65.75865521 Ry
     estimated scf accuracy    <       0.00007627 Ry

     iteration #  4     ecut=   100.00 Ry     beta= 0.70
     Davidson diagonalization with overlap
     ethr =  4.77E-07,  avg # of iterations =  3.5

     total cpu time spent up to now is      139.7 secs

     total energy              =     -65.75866656 Ry
     estimated scf accuracy    <       0.00000526 Ry

     iteration #  5     ecut=   100.00 Ry     beta= 0.70
     Davidson diagonalization with overlap
     ethr =  3.29E-08,  avg # of iterations =  1.7

     total cpu time spent up to now is      142.3 secs

     total energy              =     -65.75866704 Ry
     estimated scf accuracy    <       0.00000016 Ry

     iteration #  6     ecut=   100.00 Ry     beta= 0.70
     Davidson diagonalization with overlap
     ethr =  1.02E-09,  avg # of iterations =  2.7

     total cpu time spent up to now is      145.1 secs

     total energy              =     -65.75866709 Ry
     estimated scf accuracy    <       0.00000001 Ry

     iteration #  7     ecut=   100.00 Ry     beta= 0.70
     Davidson diagonalization with overlap
     ethr =  6.57E-11,  avg # of iterations =  1.8

     total cpu time spent up to now is      147.7 secs

     End of self-consistent calculation

     Number of k-points >= 100: set verbosity='high' to print the bands.

     the Fermi energy is     7.0757 ev

!    total energy              =     -65.75866709 Ry
     estimated scf accuracy    <          1.6E-09 Ry
     smearing contrib. (-TS)   =       0.00127702 Ry
     internal energy E=F+TS    =     -65.75994411 Ry

     The total energy is F=E-TS. E is the sum of the following terms:
     one-electron contribution =     -23.68007899 Ry
     hartree contribution      =      12.25002459 Ry
     xc contribution           =     -17.26870276 Ry
     ewald contribution        =     -37.06118696 Ry

     convergence has been achieved in   7 iterations

     Forces acting on atoms (cartesian axes, Ry/au):

     atom    1 type  1   force =     0.00000000    0.00000000    0.00000000
     atom    2 type  2   force =     0.00000000    0.00000000   -0.02989862
     atom    3 type  2   force =     0.00000000    0.00000000    0.02989862
     atom    4 type  2   force =     0.00000000    0.00000000   -0.02989862
     atom    5 type  2   force =     0.00000000    0.00000000    0.02989862
     The non-local contrib.  to forces
     atom    1 type  1   force =     0.00000000    0.00000000    0.00000000
     atom    2 type  2   force =     0.00000000    0.00000000   -0.00154946
     atom    3 type  2   force =     0.00000000    0.00000000    0.00154946
     atom    4 type  2   force =     0.00000000    0.00000000   -0.00154946
     atom    5 type  2   force =     0.00000000    0.00000000    0.00154946
     The ionic contribution  to forces
     atom    1 type  1   force =    -0.00000000   -0.00000000   -0.00000000
     atom    2 type  2   force =    -0.00000000   -0.00000000    0.08293230
     atom    3 type  2   force =    -0.00000000   -0.00000000   -0.08293230
     atom    4 type  2   force =    -0.00000000   -0.00000000    0.08293230
     atom    5 type  2   force =    -0.00000000   -0.00000000   -0.08293230
     The local contribution  to forces
     atom    1 type  1   force =    -0.00000000    0.00000000   -0.00000000
     atom    2 type  2   force =     0.00000000    0.00000000   -0.11131961
     atom    3 type  2   force =    -0.00000000    0.00000000    0.11131961
     atom    4 type  2   force =     0.00000000    0.00000000   -0.11131961
     atom    5 type  2   force =     0.00000000    0.00000000    0.11131961
     The core correction contribution to forces
     atom    1 type  1   force =     0.00000000    0.00000000   -0.00000000
     atom    2 type  2   force =     0.00000000    0.00000000    0.00000000
     atom    3 type  2   force =     0.00000000    0.00000000    0.00000000
     atom    4 type  2   force =     0.00000000    0.00000000    0.00000000
     atom    5 type  2   force =     0.00000000    0.00000000    0.00000000
     The Hubbard contrib.    to forces
     atom    1 type  1   force =     0.00000000    0.00000000    0.00000000
     atom    2 type  2   force =     0.00000000    0.00000000    0.00000000
     atom    3 type  2   force =     0.00000000    0.00000000    0.00000000
     atom    4 type  2   force =     0.00000000    0.00000000    0.00000000
     atom    5 type  2   force =     0.00000000    0.00000000    0.00000000
     The SCF correction term to forces
     atom    1 type  1   force =    -0.00000000   -0.00000000    0.00000000
     atom    2 type  2   force =    -0.00000000   -0.00000000    0.00003814
     atom    3 type  2   force =    -0.00000000   -0.00000000   -0.00003814
     atom    4 type  2   force =    -0.00000000   -0.00000000    0.00003814
     atom    5 type  2   force =    -0.00000000    0.00000000   -0.00003814

     Total force =     0.059797     Total SCF correction =     0.000076


     Computing stress (Cartesian axis) and pressure

          total   stress  (Ry/bohr**3)                   (kbar)     P=      492.92
   0.00330214   0.00000000   0.00000000          485.76        0.00        0.00
   0.00000000   0.00330214   0.00000000            0.00      485.76        0.00
   0.00000000   0.00000000   0.00344818            0.00        0.00      507.24

     Energy error            =      9.6E-03 Ry
     Gradient error          =      3.0E-02 Ry/Bohr
     Cell gradient error     =      1.4E+01 kbar

     number of scf cycles    =   5
     number of bfgs steps    =   4

     enthalpy           old  =     -64.7334490116 Ry
     enthalpy           new  =     -64.7430746262 Ry

     CASE: enthalpy          _new < enthalpy          _old

     new trust radius        =       0.0792650175 bohr
ibrav =      6
 celldm(1) =      5.20155374
 celldm(3) =      2.10312353
Input lattice vectors:
     0.89441846     0.00000000     0.00000000
     0.00000000     0.89441846     0.00000000
     0.00000000     0.00000000     1.88107251
New lattice vectors in INITIAL alat:
     0.89441846     0.00000000     0.00000000
     0.00000000     0.89441846     0.00000000
     0.00000000     0.00000000     1.88107251
New lattice vectors in NEW alat (for information only):
     1.00000000     0.00000000     0.00000000
     0.00000000     1.00000000     0.00000000
     0.00000000     0.00000000     2.10312353
Discrepancy in bohr =     0.000000    0.000000    0.000000
     new conv_thr            =       0.0000000060 Ry

     new unit-cell volume =    295.98115 a.u.^3 (    43.85988 Ang^3 )
     density =      2.11447 g/cm^3

CELL_PARAMETERS (alat=  5.81557063)
   0.894418461   0.000000000   0.000000000
   0.000000000   0.894418461   0.000000000
   0.000000000   0.000000000   1.881072511

ATOMIC_POSITIONS (crystal)
Si            0.5000000000        0.5000000000        0.5000000000
Li            0.0000000000        0.5000000000        0.1805955720
Li            0.0000000000        0.5000000000        0.8194044280
Li            0.5000000000        0.0000000000        0.1805955720
Li            0.5000000000        0.0000000000        0.8194044280



     Writing config-only to output data dir ./output/SiLi.save/
     NEW-OLD atomic charge density approx. for the potential
     extrapolated charge   15.84793, renormalised to   16.00000

     total cpu time spent up to now is      152.1 secs

     Self-consistent Calculation

     iteration #  1     ecut=   100.00 Ry     beta= 0.70
     Davidson diagonalization with overlap
     ethr =  1.00E-06,  avg # of iterations =  7.4

     total cpu time spent up to now is      158.3 secs

     total energy              =     -65.74698721 Ry
     estimated scf accuracy    <       0.01313226 Ry

     iteration #  2     ecut=   100.00 Ry     beta= 0.70
     Davidson diagonalization with overlap
     ethr =  8.21E-05,  avg # of iterations =  3.4

     total cpu time spent up to now is      161.5 secs

     total energy              =     -65.74259207 Ry
     estimated scf accuracy    <       0.08119200 Ry

     iteration #  3     ecut=   100.00 Ry     beta= 0.70
     Davidson diagonalization with overlap
     ethr =  8.21E-05,  avg # of iterations =  2.3

     total cpu time spent up to now is      164.4 secs

     total energy              =     -65.75557348 Ry
     estimated scf accuracy    <       0.00021917 Ry

     iteration #  4     ecut=   100.00 Ry     beta= 0.70
     Davidson diagonalization with overlap
     ethr =  1.37E-06,  avg # of iterations =  3.9

     total cpu time spent up to now is      167.3 secs

     total energy              =     -65.75556757 Ry
     estimated scf accuracy    <       0.00006711 Ry

     iteration #  5     ecut=   100.00 Ry     beta= 0.70
     Davidson diagonalization with overlap
     ethr =  4.19E-07,  avg # of iterations =  1.2

     total cpu time spent up to now is      169.7 secs

     total energy              =     -65.75557471 Ry
     estimated scf accuracy    <       0.00000116 Ry

     iteration #  6     ecut=   100.00 Ry     beta= 0.70
     Davidson diagonalization with overlap
     ethr =  7.23E-09,  avg # of iterations =  2.3

     total cpu time spent up to now is      172.4 secs

     total energy              =     -65.75557494 Ry
     estimated scf accuracy    <       0.00000007 Ry

     iteration #  7     ecut=   100.00 Ry     beta= 0.70
     Davidson diagonalization with overlap
     ethr =  4.08E-10,  avg # of iterations =  2.1

     total cpu time spent up to now is      175.0 secs

     End of self-consistent calculation

     Number of k-points >= 100: set verbosity='high' to print the bands.

     the Fermi energy is     7.2701 ev

!    total energy              =     -65.75557495 Ry
     estimated scf accuracy    <          2.7E-09 Ry
     smearing contrib. (-TS)   =       0.00134756 Ry
     internal energy E=F+TS    =     -65.75692251 Ry

     The total energy is F=E-TS. E is the sum of the following terms:
     one-electron contribution =     -23.74971497 Ry
     hartree contribution      =      12.33626786 Ry
     xc contribution           =     -17.26608160 Ry
     ewald contribution        =     -37.07739380 Ry

     convergence has been achieved in   7 iterations

     Forces acting on atoms (cartesian axes, Ry/au):

     atom    1 type  1   force =     0.00000000    0.00000000    0.00000000
     atom    2 type  2   force =     0.00000000    0.00000000   -0.01022064
     atom    3 type  2   force =     0.00000000    0.00000000    0.01022064
     atom    4 type  2   force =     0.00000000    0.00000000   -0.01022064
     atom    5 type  2   force =     0.00000000    0.00000000    0.01022064
     The non-local contrib.  to forces
     atom    1 type  1   force =     0.00000000    0.00000000    0.00000000
     atom    2 type  2   force =     0.00000000    0.00000000    0.01122104
     atom    3 type  2   force =     0.00000000    0.00000000   -0.01122104
     atom    4 type  2   force =     0.00000000    0.00000000    0.01122104
     atom    5 type  2   force =     0.00000000    0.00000000   -0.01122104
     The ionic contribution  to forces
     atom    1 type  1   force =    -0.00000000   -0.00000000   -0.00000000
     atom    2 type  2   force =    -0.00000000   -0.00000000    0.40129752
     atom    3 type  2   force =    -0.00000000   -0.00000000   -0.40129752
     atom    4 type  2   force =    -0.00000000   -0.00000000    0.40129752
     atom    5 type  2   force =    -0.00000000   -0.00000000   -0.40129752
     The local contribution  to forces
     atom    1 type  1   force =    -0.00000000   -0.00000000   -0.00000000
     atom    2 type  2   force =    -0.00000000    0.00000000   -0.42277988
     atom    3 type  2   force =    -0.00000000    0.00000000    0.42277988
     atom    4 type  2   force =     0.00000000    0.00000000   -0.42277988
     atom    5 type  2   force =     0.00000000    0.00000000    0.42277988
     The core correction contribution to forces
     atom    1 type  1   force =     0.00000000    0.00000000   -0.00000000
     atom    2 type  2   force =     0.00000000    0.00000000    0.00000000
     atom    3 type  2   force =     0.00000000    0.00000000    0.00000000
     atom    4 type  2   force =     0.00000000    0.00000000    0.00000000
     atom    5 type  2   force =     0.00000000    0.00000000    0.00000000
     The Hubbard contrib.    to forces
     atom    1 type  1   force =     0.00000000    0.00000000    0.00000000
     atom    2 type  2   force =     0.00000000    0.00000000    0.00000000
     atom    3 type  2   force =     0.00000000    0.00000000    0.00000000
     atom    4 type  2   force =     0.00000000    0.00000000    0.00000000
     atom    5 type  2   force =     0.00000000    0.00000000    0.00000000
     The SCF correction term to forces
     atom    1 type  1   force =     0.00000000   -0.00000000    0.00000000
     atom    2 type  2   force =    -0.00000000    0.00000000    0.00004068
     atom    3 type  2   force =     0.00000000    0.00000000   -0.00004068
     atom    4 type  2   force =    -0.00000000   -0.00000000    0.00004068
     atom    5 type  2   force =    -0.00000000    0.00000000   -0.00004068

     Total force =     0.020441     Total SCF correction =     0.000081


     Computing stress (Cartesian axis) and pressure

          total   stress  (Ry/bohr**3)                   (kbar)     P=      483.27
   0.00336735   0.00000000   0.00000000          495.35        0.00        0.00
   0.00000000   0.00336735   0.00000000            0.00      495.35        0.00
   0.00000000   0.00000000   0.00312098            0.00        0.00      459.11

     Energy error            =      6.5E-03 Ry
     Gradient error          =      1.0E-02 Ry/Bohr
     Cell gradient error     =      4.1E+01 kbar

     number of scf cycles    =   6
     number of bfgs steps    =   5

     enthalpy           old  =     -64.7430746262 Ry
     enthalpy           new  =     -64.7495554757 Ry

     CASE: enthalpy          _new < enthalpy          _old

     new trust radius        =       0.0428527910 bohr
ibrav =      6
 celldm(1) =      5.20376234
 celldm(3) =      2.08507266
Input lattice vectors:
     0.89479824     0.00000000     0.00000000
     0.00000000     0.89479824     0.00000000
     0.00000000     0.00000000     1.86571933
New lattice vectors in INITIAL alat:
     0.89479824     0.00000000     0.00000000
     0.00000000     0.89479824     0.00000000
     0.00000000     0.00000000     1.86571933
New lattice vectors in NEW alat (for information only):
     1.00000000     0.00000000     0.00000000
     0.00000000     1.00000000     0.00000000
     0.00000000     0.00000000     2.08507266
Discrepancy in bohr =     0.000000    0.000000    0.000000
     new conv_thr            =       0.0000000020 Ry

     new unit-cell volume =    293.81472 a.u.^3 (    43.53885 Ang^3 )
     density =      2.13006 g/cm^3

CELL_PARAMETERS (alat=  5.81557063)
   0.894798236   0.000000000   0.000000000
   0.000000000   0.894798236   0.000000000
   0.000000000   0.000000000   1.865719335

ATOMIC_POSITIONS (crystal)
Si            0.5000000000        0.5000000000        0.5000000000
Li            0.0000000000        0.5000000000        0.1766783224
Li            0.0000000000        0.5000000000        0.8233216776
Li            0.5000000000        0.0000000000        0.1766783224
Li            0.5000000000        0.0000000000        0.8233216776



     Writing config-only to output data dir ./output/SiLi.save/
     NEW-OLD atomic charge density approx. for the potential
     extrapolated charge   15.88216, renormalised to   16.00000

     total cpu time spent up to now is      179.4 secs

     Self-consistent Calculation

     iteration #  1     ecut=   100.00 Ry     beta= 0.70
     Davidson diagonalization with overlap
     ethr =  1.00E-06,  avg # of iterations =  5.9

     total cpu time spent up to now is      184.6 secs

     total energy              =     -65.74625882 Ry
     estimated scf accuracy    <       0.00439508 Ry

     iteration #  2     ecut=   100.00 Ry     beta= 0.70
     Davidson diagonalization with overlap
     ethr =  2.75E-05,  avg # of iterations =  3.4

     total cpu time spent up to now is      188.0 secs

     total energy              =     -65.74551651 Ry
     estimated scf accuracy    <       0.02570145 Ry

     iteration #  3     ecut=   100.00 Ry     beta= 0.70
     Davidson diagonalization with overlap
     ethr =  2.75E-05,  avg # of iterations =  2.3

     total cpu time spent up to now is      191.0 secs

     total energy              =     -65.74943277 Ry
     estimated scf accuracy    <       0.00004621 Ry

     iteration #  4     ecut=   100.00 Ry     beta= 0.70
     Davidson diagonalization with overlap
     ethr =  2.89E-07,  avg # of iterations =  3.2

     total cpu time spent up to now is      193.8 secs

     total energy              =     -65.74943720 Ry
     estimated scf accuracy    <       0.00000781 Ry

     iteration #  5     ecut=   100.00 Ry     beta= 0.70
     Davidson diagonalization with overlap
     ethr =  4.88E-08,  avg # of iterations =  1.6

     total cpu time spent up to now is      196.3 secs

     total energy              =     -65.74943763 Ry
     estimated scf accuracy    <       0.00000049 Ry

     iteration #  6     ecut=   100.00 Ry     beta= 0.70
     Davidson diagonalization with overlap
     ethr =  3.05E-09,  avg # of iterations =  2.4

     total cpu time spent up to now is      199.0 secs

     total energy              =     -65.74943772 Ry
     estimated scf accuracy    <          8.9E-09 Ry

     iteration #  7     ecut=   100.00 Ry     beta= 0.70
     Davidson diagonalization with overlap
     ethr =  5.58E-11,  avg # of iterations =  2.9

     total cpu time spent up to now is      201.9 secs

     End of self-consistent calculation

     Number of k-points >= 100: set verbosity='high' to print the bands.

     the Fermi energy is     7.3295 ev

!    total energy              =     -65.74943772 Ry
     estimated scf accuracy    <          6.4E-10 Ry
     smearing contrib. (-TS)   =       0.00136645 Ry
     internal energy E=F+TS    =     -65.75080417 Ry

     The total energy is F=E-TS. E is the sum of the following terms:
     one-electron contribution =     -23.78915053 Ry
     hartree contribution      =      12.40579681 Ry
     xc contribution           =     -17.27345230 Ry
     ewald contribution        =     -37.09399815 Ry

     convergence has been achieved in   7 iterations

     Forces acting on atoms (cartesian axes, Ry/au):

     atom    1 type  1   force =     0.00000000    0.00000000    0.00000000
     atom    2 type  2   force =     0.00000000    0.00000000    0.00093535
     atom    3 type  2   force =     0.00000000    0.00000000   -0.00093535
     atom    4 type  2   force =     0.00000000    0.00000000    0.00093535
     atom    5 type  2   force =     0.00000000    0.00000000   -0.00093535
     The non-local contrib.  to forces
     atom    1 type  1   force =     0.00000000    0.00000000    0.00000000
     atom    2 type  2   force =     0.00000000    0.00000000    0.01276251
     atom    3 type  2   force =     0.00000000    0.00000000   -0.01276251
     atom    4 type  2   force =     0.00000000    0.00000000    0.01276251
     atom    5 type  2   force =     0.00000000    0.00000000   -0.01276251
     The ionic contribution  to forces
     atom    1 type  1   force =    -0.00000000   -0.00000000   -0.00000000
     atom    2 type  2   force =    -0.00000000   -0.00000000    0.58404785
     atom    3 type  2   force =    -0.00000000   -0.00000000   -0.58404785
     atom    4 type  2   force =    -0.00000000    0.00000000    0.58404785
     atom    5 type  2   force =    -0.00000000   -0.00000000   -0.58404785
     The local contribution  to forces
     atom    1 type  1   force =    -0.00000000    0.00000000   -0.00000000
     atom    2 type  2   force =    -0.00000000    0.00000000   -0.59589110
     atom    3 type  2   force =    -0.00000000    0.00000000    0.59589110
     atom    4 type  2   force =     0.00000000    0.00000000   -0.59589110
     atom    5 type  2   force =     0.00000000    0.00000000    0.59589110
     The core correction contribution to forces
     atom    1 type  1   force =     0.00000000    0.00000000   -0.00000000
     atom    2 type  2   force =     0.00000000    0.00000000    0.00000000
     atom    3 type  2   force =     0.00000000    0.00000000    0.00000000
     atom    4 type  2   force =     0.00000000    0.00000000    0.00000000
     atom    5 type  2   force =     0.00000000    0.00000000    0.00000000
     The Hubbard contrib.    to forces
     atom    1 type  1   force =     0.00000000    0.00000000    0.00000000
     atom    2 type  2   force =     0.00000000    0.00000000    0.00000000
     atom    3 type  2   force =     0.00000000    0.00000000    0.00000000
     atom    4 type  2   force =     0.00000000    0.00000000    0.00000000
     atom    5 type  2   force =     0.00000000    0.00000000    0.00000000
     The SCF correction term to forces
     atom    1 type  1   force =     0.00000000    0.00000000   -0.00000000
     atom    2 type  2   force =    -0.00000000   -0.00000000    0.00001609
     atom    3 type  2   force =     0.00000000   -0.00000000   -0.00001609
     atom    4 type  2   force =     0.00000000    0.00000000    0.00001609
     atom    5 type  2   force =     0.00000000    0.00000000   -0.00001609

     Total force =     0.001871     Total SCF correction =     0.000032


     Computing stress (Cartesian axis) and pressure

          total   stress  (Ry/bohr**3)                   (kbar)     P=      492.57
   0.00335983   0.00000000   0.00000000          494.25        0.00        0.00
   0.00000000   0.00335983   0.00000000            0.00      494.25        0.00
   0.00000000   0.00000000   0.00332564            0.00        0.00      489.22

     Energy error            =      1.2E-03 Ry
     Gradient error          =      9.4E-04 Ry/Bohr
     Cell gradient error     =      1.1E+01 kbar

     number of scf cycles    =   7
     number of bfgs steps    =   6

     enthalpy           old  =     -64.7495554757 Ry
     enthalpy           new  =     -64.7507817721 Ry

     CASE: enthalpy          _new < enthalpy          _old

     new trust radius        =       0.0051910602 bohr
ibrav =      6
 celldm(1) =      5.19907281
 celldm(3) =      2.08379327
Input lattice vectors:
     0.89399186     0.00000000     0.00000000
     0.00000000     0.89399186     0.00000000
     0.00000000     0.00000000     1.86289422
New lattice vectors in INITIAL alat:
     0.89399186     0.00000000     0.00000000
     0.00000000     0.89399186     0.00000000
     0.00000000     0.00000000     1.86289422
New lattice vectors in NEW alat (for information only):
     1.00000000     0.00000000     0.00000000
     0.00000000     1.00000000     0.00000000
     0.00000000     0.00000000     2.08379327
Discrepancy in bohr =     0.000000    0.000000    0.000000
     new conv_thr            =       0.0000000002 Ry

     new unit-cell volume =    292.84130 a.u.^3 (    43.39460 Ang^3 )
     density =      2.13714 g/cm^3

CELL_PARAMETERS (alat=  5.81557063)
   0.893991861   0.000000000   0.000000000
   0.000000000   0.893991861   0.000000000
   0.000000000   0.000000000   1.862894223

ATOMIC_POSITIONS (crystal)
Si            0.5000000000        0.5000000000        0.5000000000
Li            0.0000000000        0.5000000000        0.1768395431
Li            0.0000000000        0.5000000000        0.8231604569
Li            0.5000000000        0.0000000000        0.1768395431
Li            0.5000000000        0.0000000000        0.8231604569



     Writing config-only to output data dir ./output/SiLi.save/
     NEW-OLD atomic charge density approx. for the potential
     extrapolated charge   15.94688, renormalised to   16.00000

     total cpu time spent up to now is      206.3 secs

     Self-consistent Calculation

     iteration #  1     ecut=   100.00 Ry     beta= 0.70
     Davidson diagonalization with overlap
     ethr =  1.00E-06,  avg # of iterations =  2.1

     total cpu time spent up to now is      209.4 secs

     total energy              =     -65.74608361 Ry
     estimated scf accuracy    <       0.00004260 Ry

     iteration #  2     ecut=   100.00 Ry     beta= 0.70
     Davidson diagonalization with overlap
     ethr =  2.66E-07,  avg # of iterations =  2.7

     total cpu time spent up to now is      212.7 secs

     total energy              =     -65.74614148 Ry
     estimated scf accuracy    <       0.00043082 Ry

     iteration #  3     ecut=   100.00 Ry     beta= 0.70
     Davidson diagonalization with overlap
     ethr =  2.66E-07,  avg # of iterations =  2.0

     total cpu time spent up to now is      215.3 secs

     total energy              =     -65.74616467 Ry
     estimated scf accuracy    <       0.00004612 Ry

     iteration #  4     ecut=   100.00 Ry     beta= 0.70
     Davidson diagonalization with overlap
     ethr =  2.66E-07,  avg # of iterations =  1.1

     total cpu time spent up to now is      217.7 secs

     total energy              =     -65.74616352 Ry
     estimated scf accuracy    <       0.00001289 Ry

     iteration #  5     ecut=   100.00 Ry     beta= 0.70
     Davidson diagonalization with overlap
     ethr =  8.06E-08,  avg # of iterations =  1.1

     total cpu time spent up to now is      220.0 secs

     total energy              =     -65.74616294 Ry
     estimated scf accuracy    <       0.00000304 Ry

     iteration #  6     ecut=   100.00 Ry     beta= 0.70
     Davidson diagonalization with overlap
     ethr =  1.90E-08,  avg # of iterations =  1.9

     total cpu time spent up to now is      222.5 secs

     total energy              =     -65.74616351 Ry
     estimated scf accuracy    <          5.4E-10 Ry

     iteration #  7     ecut=   100.00 Ry     beta= 0.70
     Davidson diagonalization with overlap
     ethr =  3.35E-12,  avg # of iterations =  5.0

     total cpu time spent up to now is      226.5 secs

     total energy              =     -65.74616352 Ry
     estimated scf accuracy    <          7.3E-10 Ry

     iteration #  8     ecut=   100.00 Ry     beta= 0.70
     Davidson diagonalization with overlap
     ethr =  3.35E-12,  avg # of iterations =  2.0

     total cpu time spent up to now is      229.1 secs

     total energy              =     -65.74616352 Ry
     estimated scf accuracy    <          2.6E-10 Ry

     iteration #  9     ecut=   100.00 Ry     beta= 0.70
     Davidson diagonalization with overlap
     ethr =  1.63E-12,  avg # of iterations =  1.1

     total cpu time spent up to now is      231.4 secs

     End of self-consistent calculation

     Number of k-points >= 100: set verbosity='high' to print the bands.

     the Fermi energy is     7.3579 ev

!    total energy              =     -65.74616352 Ry
     estimated scf accuracy    <          4.9E-12 Ry
     smearing contrib. (-TS)   =       0.00136977 Ry
     internal energy E=F+TS    =     -65.74753329 Ry

     The total energy is F=E-TS. E is the sum of the following terms:
     one-electron contribution =     -23.72032439 Ry
     hartree contribution      =      12.39161798 Ry
     xc contribution           =     -17.27904938 Ry
     ewald contribution        =     -37.13977750 Ry

     convergence has been achieved in   9 iterations

     Forces acting on atoms (cartesian axes, Ry/au):

     atom    1 type  1   force =     0.00000000    0.00000000    0.00000000
     atom    2 type  2   force =     0.00000000    0.00000000    0.00017607
     atom    3 type  2   force =     0.00000000    0.00000000   -0.00017607
     atom    4 type  2   force =     0.00000000    0.00000000    0.00017607
     atom    5 type  2   force =     0.00000000    0.00000000   -0.00017607
     The non-local contrib.  to forces
     atom    1 type  1   force =     0.00000000    0.00000000    0.00000000
     atom    2 type  2   force =     0.00000000    0.00000000    0.01252990
     atom    3 type  2   force =     0.00000000    0.00000000   -0.01252990
     atom    4 type  2   force =     0.00000000    0.00000000    0.01252990
     atom    5 type  2   force =     0.00000000    0.00000000   -0.01252990
     The ionic contribution  to forces
     atom    1 type  1   force =    -0.00000000   -0.00000000   -0.00000000
     atom    2 type  2   force =    -0.00000000   -0.00000000    0.57812867
     atom    3 type  2   force =    -0.00000000   -0.00000000   -0.57812867
     atom    4 type  2   force =    -0.00000000   -0.00000000    0.57812867
     atom    5 type  2   force =    -0.00000000   -0.00000000   -0.57812867
     The local contribution  to forces
     atom    1 type  1   force =     0.00000000    0.00000000   -0.00000000
     atom    2 type  2   force =    -0.00000000    0.00000000   -0.59048108
     atom    3 type  2   force =     0.00000000    0.00000000    0.59048108
     atom    4 type  2   force =     0.00000000    0.00000000   -0.59048108
     atom    5 type  2   force =     0.00000000    0.00000000    0.59048108
     The core correction contribution to forces
     atom    1 type  1   force =    -0.00000000    0.00000000   -0.00000000
     atom    2 type  2   force =     0.00000000    0.00000000    0.00000000
     atom    3 type  2   force =     0.00000000    0.00000000    0.00000000
     atom    4 type  2   force =     0.00000000    0.00000000    0.00000000
     atom    5 type  2   force =     0.00000000    0.00000000    0.00000000
     The Hubbard contrib.    to forces
     atom    1 type  1   force =     0.00000000    0.00000000    0.00000000
     atom    2 type  2   force =     0.00000000    0.00000000    0.00000000
     atom    3 type  2   force =     0.00000000    0.00000000    0.00000000
     atom    4 type  2   force =     0.00000000    0.00000000    0.00000000
     atom    5 type  2   force =     0.00000000    0.00000000    0.00000000
     The SCF correction term to forces
     atom    1 type  1   force =    -0.00000000    0.00000000    0.00000000
     atom    2 type  2   force =    -0.00000000   -0.00000000   -0.00000142
     atom    3 type  2   force =    -0.00000000   -0.00000000    0.00000142
     atom    4 type  2   force =    -0.00000000    0.00000000   -0.00000142
     atom    5 type  2   force =     0.00000000    0.00000000    0.00000142

     Total force =     0.000352     Total SCF correction =     0.000003


     Computing stress (Cartesian axis) and pressure

          total   stress  (Ry/bohr**3)                   (kbar)     P=      498.99
   0.00339483   0.00000000   0.00000000          499.40        0.00        0.00
   0.00000000   0.00339483   0.00000000            0.00      499.40        0.00
   0.00000000   0.00000000   0.00338656            0.00        0.00      498.18

     Energy error            =      3.4E-05 Ry
     Gradient error          =      1.8E-04 Ry/Bohr
     Cell gradient error     =      1.8E+00 kbar

     number of scf cycles    =   8
     number of bfgs steps    =   7

     enthalpy           old  =     -64.7507817721 Ry
     enthalpy           new  =     -64.7508161622 Ry

     CASE: enthalpy          _new < enthalpy          _old

     new trust radius        =       0.0012914540 bohr
ibrav =      6
 celldm(1) =      5.19893558
 celldm(3) =      2.08306196
Input lattice vectors:
     0.89396826     0.00000000     0.00000000
     0.00000000     0.89396826     0.00000000
     0.00000000     0.00000000     1.86219128
New lattice vectors in INITIAL alat:
     0.89396826     0.00000000     0.00000000
     0.00000000     0.89396826     0.00000000
     0.00000000     0.00000000     1.86219128
New lattice vectors in NEW alat (for information only):
     1.00000000     0.00000000     0.00000000
     0.00000000     1.00000000     0.00000000
     0.00000000     0.00000000     2.08306196
Discrepancy in bohr =     0.000000    0.000000    0.000000
     new conv_thr            =            1.0E-10 Ry

     new unit-cell volume =    292.71535 a.u.^3 (    43.37594 Ang^3 )
     density =      2.13806 g/cm^3

CELL_PARAMETERS (alat=  5.81557063)
   0.893968263   0.000000000   0.000000000
   0.000000000   0.893968263   0.000000000
   0.000000000   0.000000000   1.862191279

ATOMIC_POSITIONS (crystal)
Si            0.5000000000        0.5000000000        0.5000000000
Li            0.0000000000        0.5000000000        0.1768881685
Li            0.0000000000        0.5000000000        0.8231118315
Li            0.5000000000        0.0000000000        0.1768881685
Li            0.5000000000        0.0000000000        0.8231118315



     Writing config-only to output data dir ./output/SiLi.save/
     NEW-OLD atomic charge density approx. for the potential
     extrapolated charge   15.99312, renormalised to   16.00000

     total cpu time spent up to now is      235.8 secs

     Self-consistent Calculation

     iteration #  1     ecut=   100.00 Ry     beta= 0.70
     Davidson diagonalization with overlap
     ethr =  1.00E-06,  avg # of iterations =  2.0

     Threshold (ethr) on eigenvalues was too large:
     Diagonalizing with lowered threshold

     Davidson diagonalization with overlap
     ethr =  2.10E-09,  avg # of iterations =  2.5

     total cpu time spent up to now is      241.2 secs

     total energy              =     -65.74573529 Ry
     estimated scf accuracy    <       0.00000040 Ry

     iteration #  2     ecut=   100.00 Ry     beta= 0.70
     Davidson diagonalization with overlap
     ethr =  2.50E-09,  avg # of iterations =  2.9

     total cpu time spent up to now is      244.4 secs

     total energy              =     -65.74573621 Ry
     estimated scf accuracy    <       0.00000448 Ry

     iteration #  3     ecut=   100.00 Ry     beta= 0.70
     Davidson diagonalization with overlap
     ethr =  2.50E-09,  avg # of iterations =  2.0

     total cpu time spent up to now is      247.1 secs

     total energy              =     -65.74573629 Ry
     estimated scf accuracy    <       0.00000077 Ry

     iteration #  4     ecut=   100.00 Ry     beta= 0.70
     Davidson diagonalization with overlap
     ethr =  2.50E-09,  avg # of iterations =  1.3

     total cpu time spent up to now is      249.5 secs

     total energy              =     -65.74573628 Ry
     estimated scf accuracy    <       0.00000018 Ry

     iteration #  5     ecut=   100.00 Ry     beta= 0.70
     Davidson diagonalization with overlap
     ethr =  1.15E-09,  avg # of iterations =  1.2

     total cpu time spent up to now is      251.9 secs

     total energy              =     -65.74573628 Ry
     estimated scf accuracy    <       0.00000002 Ry

     iteration #  6     ecut=   100.00 Ry     beta= 0.70
     Davidson diagonalization with overlap
     ethr =  1.42E-10,  avg # of iterations =  2.1

     total cpu time spent up to now is      254.4 secs

     End of self-consistent calculation

     Number of k-points >= 100: set verbosity='high' to print the bands.

     the Fermi energy is     7.3603 ev

!    total energy              =     -65.74573628 Ry
     estimated scf accuracy    <          5.3E-12 Ry
     smearing contrib. (-TS)   =       0.00137294 Ry
     internal energy E=F+TS    =     -65.74710923 Ry

     The total energy is F=E-TS. E is the sum of the following terms:
     one-electron contribution =     -23.70947576 Ry
     hartree contribution      =      12.38892377 Ry
     xc contribution           =     -17.27986367 Ry
     ewald contribution        =     -37.14669356 Ry

     convergence has been achieved in   6 iterations

     Forces acting on atoms (cartesian axes, Ry/au):

     atom    1 type  1   force =     0.00000000    0.00000000    0.00000000
     atom    2 type  2   force =     0.00000000    0.00000000   -0.00000539
     atom    3 type  2   force =     0.00000000    0.00000000    0.00000539
     atom    4 type  2   force =     0.00000000    0.00000000   -0.00000539
     atom    5 type  2   force =     0.00000000    0.00000000    0.00000539
     The non-local contrib.  to forces
     atom    1 type  1   force =     0.00000000    0.00000000    0.00000000
     atom    2 type  2   force =     0.00000000    0.00000000    0.01241791
     atom    3 type  2   force =     0.00000000    0.00000000   -0.01241791
     atom    4 type  2   force =     0.00000000    0.00000000    0.01241791
     atom    5 type  2   force =     0.00000000    0.00000000   -0.01241791
     The ionic contribution  to forces
     atom    1 type  1   force =    -0.00000000   -0.00000000   -0.00000000
     atom    2 type  2   force =    -0.00000000   -0.00000000    0.57616206
     atom    3 type  2   force =    -0.00000000   -0.00000000   -0.57616206
     atom    4 type  2   force =    -0.00000000   -0.00000000    0.57616206
     atom    5 type  2   force =    -0.00000000   -0.00000000   -0.57616206
     The local contribution  to forces
     atom    1 type  1   force =     0.00000000    0.00000000   -0.00000000
     atom    2 type  2   force =    -0.00000000    0.00000000   -0.58858356
     atom    3 type  2   force =    -0.00000000    0.00000000    0.58858356
     atom    4 type  2   force =     0.00000000    0.00000000   -0.58858356
     atom    5 type  2   force =     0.00000000    0.00000000    0.58858356
     The core correction contribution to forces
     atom    1 type  1   force =     0.00000000    0.00000000   -0.00000000
     atom    2 type  2   force =     0.00000000    0.00000000    0.00000000
     atom    3 type  2   force =     0.00000000    0.00000000    0.00000000
     atom    4 type  2   force =     0.00000000    0.00000000    0.00000000
     atom    5 type  2   force =     0.00000000    0.00000000    0.00000000
     The Hubbard contrib.    to forces
     atom    1 type  1   force =     0.00000000    0.00000000    0.00000000
     atom    2 type  2   force =     0.00000000    0.00000000    0.00000000
     atom    3 type  2   force =     0.00000000    0.00000000    0.00000000
     atom    4 type  2   force =     0.00000000    0.00000000    0.00000000
     atom    5 type  2   force =     0.00000000    0.00000000    0.00000000
     The SCF correction term to forces
     atom    1 type  1   force =    -0.00000000   -0.00000000   -0.00000000
     atom    2 type  2   force =     0.00000000   -0.00000000   -0.00000181
     atom    3 type  2   force =    -0.00000000    0.00000000    0.00000181
     atom    4 type  2   force =     0.00000000   -0.00000000   -0.00000181
     atom    5 type  2   force =    -0.00000000   -0.00000000    0.00000181

     Total force =     0.000011     Total SCF correction =     0.000004
     SCF correction compared to forces is large: reduce conv_thr to get better values


     Computing stress (Cartesian axis) and pressure

          total   stress  (Ry/bohr**3)                   (kbar)     P=      499.99
   0.00339861   0.00000000   0.00000000          499.95        0.00        0.00
   0.00000000   0.00339861   0.00000000            0.00      499.95        0.00
   0.00000000   0.00000000   0.00339930            0.00        0.00      500.05

     Energy error            =      8.8E-07 Ry
     Gradient error          =      5.4E-06 Ry/Bohr
     Cell gradient error     =      5.4E-02 kbar
ibrav =      6
 celldm(1) =      5.19893558
 celldm(3) =      2.08306196
Input lattice vectors:
     0.89396826     0.00000000     0.00000000
     0.00000000     0.89396826     0.00000000
     0.00000000     0.00000000     1.86219128
New lattice vectors in INITIAL alat:
     0.89396826     0.00000000     0.00000000
     0.00000000     0.89396826     0.00000000
     0.00000000     0.00000000     1.86219128
New lattice vectors in NEW alat (for information only):
     1.00000000     0.00000000     0.00000000
     0.00000000     1.00000000     0.00000000
     0.00000000     0.00000000     2.08306196
Discrepancy in bohr =     0.000000    0.000000    0.000000

     bfgs converged in   9 scf cycles and   8 bfgs steps
     (criteria: energy <  5.0E-05 Ry, force <  5.0E-04 Ry/Bohr, cell <  5.0E-01 kbar)

     End of BFGS Geometry Optimization

     Final enthalpy           =     -64.7508170373 Ry

     File ./output/SiLi.bfgs deleted, as requested
Begin final coordinates
     new unit-cell volume =    292.71535 a.u.^3 (    43.37594 Ang^3 )
     density =      2.13806 g/cm^3

CELL_PARAMETERS (alat=  5.81557063)
   0.893968263   0.000000000   0.000000000
   0.000000000   0.893968263   0.000000000
   0.000000000   0.000000000   1.862191279

ATOMIC_POSITIONS (crystal)
Si            0.5000000000        0.5000000000        0.5000000000
Li            0.0000000000        0.5000000000        0.1768881685
Li            0.0000000000        0.5000000000        0.8231118315
Li            0.5000000000        0.0000000000        0.1768881685
Li            0.5000000000        0.0000000000        0.8231118315
End final coordinates



     Writing config-only to output data dir ./output/SiLi.save/

     Final scf calculation at the relaxed structure.
     The G-vectors are recalculated for the final unit cell
     Results may differ from those at the preceding step.

     Parallelization info
     --------------------
     sticks:   dense  smooth     PW     G-vecs:    dense   smooth      PW
     Min         107     107     31                 4945     4945     797
     Max         108     108     32                 4950     4950     803
     Sum         861     861    253                39593    39593    6401

     Using Slab Decomposition



     bravais-lattice index     =            6
     lattice parameter (alat)  =       5.8156  a.u.
     unit-cell volume          =     292.7153 (a.u.)^3
     number of atoms/cell      =            5
     number of atomic types    =            2
     number of electrons       =        16.00
     number of Kohn-Sham states=           12
     kinetic-energy cutoff     =     100.0000  Ry
     charge density cutoff     =     400.0000  Ry
     scf convergence threshold =      1.0E-10
     mixing beta               =       0.7000
     number of iterations used =            8  plain     mixing
     press convergence thresh. =      5.0E-01
     Exchange-correlation= PBE
                           (   1   4   3   4   0   0   0)

     celldm(1)=   5.815571  celldm(2)=   0.000000  celldm(3)=   1.382435
     celldm(4)=   0.000000  celldm(5)=   0.000000  celldm(6)=   0.000000

     crystal axes: (cart. coord. in units of alat)
               a(1) = (   0.893968   0.000000   0.000000 )  
               a(2) = (   0.000000   0.893968   0.000000 )  
               a(3) = (   0.000000   0.000000   1.862191 )  

     reciprocal axes: (cart. coord. in units 2 pi/alat)
               b(1) = (  1.118608  0.000000  0.000000 )  
               b(2) = (  0.000000  1.118608  0.000000 )  
               b(3) = (  0.000000  0.000000  0.537002 )  


     PseudoPot. # 1 for Si read from file:
     ../pseudo/Si_ONCV_PBE_sr.upf
     MD5 check sum: e543d271109d17c80368dfa7c482276d
     Pseudo is Norm-conserving + core correction, Zval =  4.0
     Generated using ONCVPSP code by D. R. Hamann
     Using radial grid of 1510 points,  6 beta functions with: 
                l(1) =   0
                l(2) =   0
                l(3) =   1
                l(4) =   1
                l(5) =   2
                l(6) =   2

     PseudoPot. # 2 for Li read from file:
     ../pseudo/Li_ONCV_PBE_sr.upf
     MD5 check sum: 50ff420e78310ffa21704f3361e624a4
     Pseudo is Norm-conserving, Zval =  3.0
     Generated using ONCVPSP code by D. R. Hamann
     Using radial grid of 1944 points,  4 beta functions with: 
                l(1) =   0
                l(2) =   0
                l(3) =   1
                l(4) =   1

     atomic species   valence    mass     pseudopotential
        Si             4.00    28.08550     Si( 1.00)
        Li             3.00     6.94100     Li( 1.00)

     16 Sym. Ops., with inversion, found



   Cartesian axes

     site n.     atom                  positions (alat units)
         1           Si  tau(   1) = (   0.4469841   0.4469841   0.9310956  )
         2           Li  tau(   2) = (   0.0000000   0.4469841   0.3293996  )
         3           Li  tau(   3) = (   0.0000000   0.4469841   1.5327917  )
         4           Li  tau(   4) = (   0.4469841   0.0000000   0.3293996  )
         5           Li  tau(   5) = (   0.4469841   0.0000000   1.5327917  )

     number of k points=   252  Marzari-Vanderbilt smearing, width (Ry)=  0.0200

     Number of k-points >= 100: set verbosity='high' to print them.

     Dense  grid:    39593 G-vectors     FFT dimensions: (  36,  36,  72)

     Estimated max dynamical RAM per process >      45.46 MB

     Estimated total dynamical RAM >     363.71 MB

     Initial potential from superposition of free atoms

     starting charge      15.9811, renormalised to      16.0000
     Starting wfcs are   12 randomized atomic wfcs

     total cpu time spent up to now is      260.0 secs

     Self-consistent Calculation

     iteration #  1     ecut=   100.00 Ry     beta= 0.70
     Davidson diagonalization with overlap
     c_bands:  1 eigenvalues not converged
     c_bands:  1 eigenvalues not converged
     c_bands:  1 eigenvalues not converged
     c_bands:  1 eigenvalues not converged
     c_bands:  1 eigenvalues not converged
     c_bands:  1 eigenvalues not converged
     c_bands:  1 eigenvalues not converged
     c_bands:  1 eigenvalues not converged
     c_bands:  1 eigenvalues not converged
     c_bands:  1 eigenvalues not converged
     c_bands:  1 eigenvalues not converged
     c_bands:  1 eigenvalues not converged
     c_bands:  1 eigenvalues not converged
     c_bands:  1 eigenvalues not converged
     c_bands:  1 eigenvalues not converged
     c_bands:  1 eigenvalues not converged
     c_bands:  1 eigenvalues not converged
     c_bands:  1 eigenvalues not converged
     c_bands:  1 eigenvalues not converged
     c_bands:  1 eigenvalues not converged
     c_bands:  1 eigenvalues not converged
     c_bands:  1 eigenvalues not converged
     c_bands:  1 eigenvalues not converged
     c_bands:  1 eigenvalues not converged
     c_bands:  1 eigenvalues not converged
     c_bands:  1 eigenvalues not converged
     c_bands:  1 eigenvalues not converged
     c_bands:  1 eigenvalues not converged
     c_bands:  1 eigenvalues not converged
     c_bands:  1 eigenvalues not converged
     c_bands:  1 eigenvalues not converged
     c_bands:  1 eigenvalues not converged
     c_bands:  1 eigenvalues not converged
     c_bands:  1 eigenvalues not converged
     c_bands:  1 eigenvalues not converged
     c_bands:  1 eigenvalues not converged
     c_bands:  1 eigenvalues not converged
     c_bands:  1 eigenvalues not converged
     c_bands:  1 eigenvalues not converged
     c_bands:  1 eigenvalues not converged
     c_bands:  1 eigenvalues not converged
     c_bands:  1 eigenvalues not converged
     c_bands:  1 eigenvalues not converged
     c_bands:  1 eigenvalues not converged
     c_bands:  1 eigenvalues not converged
     c_bands:  1 eigenvalues not converged
     c_bands:  1 eigenvalues not converged
     c_bands:  1 eigenvalues not converged
     c_bands:  1 eigenvalues not converged
     c_bands:  1 eigenvalues not converged
     c_bands:  1 eigenvalues not converged
     ethr =  1.00E-06,  avg # of iterations = 17.2

     total cpu time spent up to now is      270.5 secs

     total energy              =     -65.52354098 Ry
     estimated scf accuracy    <       0.40827237 Ry

     iteration #  2     ecut=   100.00 Ry     beta= 0.70
     Davidson diagonalization with overlap
     ethr =  2.55E-03,  avg # of iterations =  3.2

     total cpu time spent up to now is      274.0 secs

     total energy              =     -65.40223313 Ry
     estimated scf accuracy    <       1.97976633 Ry

     iteration #  3     ecut=   100.00 Ry     beta= 0.70
     Davidson diagonalization with overlap
     ethr =  2.55E-03,  avg # of iterations =  2.1

     total cpu time spent up to now is      277.1 secs

     total energy              =     -65.74611427 Ry
     estimated scf accuracy    <       0.01090864 Ry

     iteration #  4     ecut=   100.00 Ry     beta= 0.70
     Davidson diagonalization with overlap
     ethr =  6.82E-05,  avg # of iterations =  3.1

     total cpu time spent up to now is      280.1 secs

     total energy              =     -65.74646742 Ry
     estimated scf accuracy    <       0.00165729 Ry

     iteration #  5     ecut=   100.00 Ry     beta= 0.70
     Davidson diagonalization with overlap
     ethr =  1.04E-05,  avg # of iterations =  2.3

     total cpu time spent up to now is      282.8 secs

     total energy              =     -65.74673320 Ry
     estimated scf accuracy    <       0.00000361 Ry

     iteration #  6     ecut=   100.00 Ry     beta= 0.70
     Davidson diagonalization with overlap
     ethr =  2.25E-08,  avg # of iterations =  3.6

     total cpu time spent up to now is      286.1 secs

     total energy              =     -65.74673567 Ry
     estimated scf accuracy    <       0.00000131 Ry

     iteration #  7     ecut=   100.00 Ry     beta= 0.70
     Davidson diagonalization with overlap
     ethr =  8.17E-09,  avg # of iterations =  1.8

     total cpu time spent up to now is      288.7 secs

     total energy              =     -65.74673594 Ry
     estimated scf accuracy    <       0.00000003 Ry

     iteration #  8     ecut=   100.00 Ry     beta= 0.70
     Davidson diagonalization with overlap
     ethr =  2.17E-10,  avg # of iterations =  2.0

     total cpu time spent up to now is      291.4 secs

     total energy              =     -65.74673594 Ry
     estimated scf accuracy    <          1.9E-09 Ry

     iteration #  9     ecut=   100.00 Ry     beta= 0.70
     Davidson diagonalization with overlap
     ethr =  1.17E-11,  avg # of iterations =  2.2

     total cpu time spent up to now is      294.3 secs

     End of self-consistent calculation

     Number of k-points >= 100: set verbosity='high' to print the bands.

     the Fermi energy is     7.3603 ev

!    total energy              =     -65.74673594 Ry
     estimated scf accuracy    <          3.9E-11 Ry
     smearing contrib. (-TS)   =       0.00137300 Ry
     internal energy E=F+TS    =     -65.74810894 Ry

     The total energy is F=E-TS. E is the sum of the following terms:
     one-electron contribution =     -23.71172346 Ry
     hartree contribution      =      12.39115317 Ry
     xc contribution           =     -17.28084510 Ry
     ewald contribution        =     -37.14669356 Ry

     convergence has been achieved in   9 iterations

     Forces acting on atoms (cartesian axes, Ry/au):

     atom    1 type  1   force =     0.00000000    0.00000000    0.00000000
     atom    2 type  2   force =     0.00000000    0.00000000    0.00007047
     atom    3 type  2   force =     0.00000000    0.00000000   -0.00007047
     atom    4 type  2   force =     0.00000000    0.00000000    0.00007047
     atom    5 type  2   force =     0.00000000    0.00000000   -0.00007047
     The non-local contrib.  to forces
     atom    1 type  1   force =     0.00000000    0.00000000    0.00000000
     atom    2 type  2   force =     0.00000000    0.00000000    0.01248865
     atom    3 type  2   force =     0.00000000    0.00000000   -0.01248865
     atom    4 type  2   force =     0.00000000    0.00000000    0.01248865
     atom    5 type  2   force =     0.00000000    0.00000000   -0.01248865
     The ionic contribution  to forces
     atom    1 type  1   force =     0.00000000    0.00000000    0.00000000
     atom    2 type  2   force =    -0.00000000    0.00000000    0.57616206
     atom    3 type  2   force =    -0.00000000    0.00000000   -0.57616206
     atom    4 type  2   force =     0.00000000   -0.00000000    0.57616206
     atom    5 type  2   force =     0.00000000   -0.00000000   -0.57616206
     The local contribution  to forces
     atom    1 type  1   force =     0.00000000   -0.00000000   -0.00000000
     atom    2 type  2   force =     0.00000000    0.00000000   -0.58857502
     atom    3 type  2   force =     0.00000000    0.00000000    0.58857502
     atom    4 type  2   force =     0.00000000    0.00000000   -0.58857502
     atom    5 type  2   force =     0.00000000    0.00000000    0.58857502
     The core correction contribution to forces
     atom    1 type  1   force =    -0.00000000   -0.00000000   -0.00000000
     atom    2 type  2   force =     0.00000000    0.00000000    0.00000000
     atom    3 type  2   force =     0.00000000    0.00000000    0.00000000
     atom    4 type  2   force =     0.00000000    0.00000000    0.00000000
     atom    5 type  2   force =     0.00000000    0.00000000    0.00000000
     The Hubbard contrib.    to forces
     atom    1 type  1   force =     0.00000000    0.00000000    0.00000000
     atom    2 type  2   force =     0.00000000    0.00000000    0.00000000
     atom    3 type  2   force =     0.00000000    0.00000000    0.00000000
     atom    4 type  2   force =     0.00000000    0.00000000    0.00000000
     atom    5 type  2   force =     0.00000000    0.00000000    0.00000000
     The SCF correction term to forces
     atom    1 type  1   force =    -0.00000000    0.00000000   -0.00000000
     atom    2 type  2   force =     0.00000000    0.00000000   -0.00000522
     atom    3 type  2   force =     0.00000000    0.00000000    0.00000522
     atom    4 type  2   force =    -0.00000000    0.00000000   -0.00000522
     atom    5 type  2   force =    -0.00000000   -0.00000000    0.00000522

     Total force =     0.000141     Total SCF correction =     0.000010


     Computing stress (Cartesian axis) and pressure

          total   stress  (Ry/bohr**3)                   (kbar)     P=      504.69
   0.00340147   0.00000000   0.00000000          500.37        0.00        0.00
   0.00000000   0.00340147   0.00000000            0.00      500.37        0.00
   0.00000000   0.00000000   0.00348952            0.00        0.00      513.33


     Writing all to output data dir ./output/SiLi.save/

     init_run     :      3.17s CPU      3.85s WALL (       2 calls)
     electrons    :    235.28s CPU    250.98s WALL (      10 calls)
     update_pot   :      3.23s CPU      3.31s WALL (       8 calls)
     forces       :      4.94s CPU      5.12s WALL (      10 calls)
     stress       :     33.65s CPU     34.60s WALL (      10 calls)

     Called by init_run:
     wfcinit      :      1.97s CPU      2.10s WALL (       2 calls)
     potinit      :      0.45s CPU      0.86s WALL (       2 calls)
     hinit0       :      0.68s CPU      0.75s WALL (       2 calls)

     Called by electrons:
     c_bands      :    206.08s CPU    219.96s WALL (      76 calls)
     sum_band     :     28.47s CPU     29.63s WALL (      76 calls)
     v_of_rho     :      0.78s CPU      1.74s WALL (      85 calls)
     mix_rho      :      0.06s CPU      0.08s WALL (      76 calls)

     Called by c_bands:
     init_us_2    :      7.19s CPU      7.86s WALL (   43848 calls)
     init_us_2:cp :      7.12s CPU      7.81s WALL (   43848 calls)
     cegterg      :    193.40s CPU    200.97s WALL (   19152 calls)

     Called by *egterg:
     cdiaghg      :     13.45s CPU     14.07s WALL (   78369 calls)
     h_psi        :    159.89s CPU    166.05s WALL (   81141 calls)
     g_psi        :      0.96s CPU      1.00s WALL (   61485 calls)

     Called by h_psi:
     h_psi:calbec :     11.20s CPU     11.67s WALL (   81141 calls)
     vloc_psi     :    139.46s CPU    144.77s WALL (   81141 calls)
     add_vuspsi   :      8.45s CPU      8.76s WALL (   81141 calls)

     General routines
     calbec       :     13.41s CPU     13.97s WALL (   93741 calls)
     fft          :      1.04s CPU      2.13s WALL (    1099 calls)
     ffts         :      0.03s CPU      0.06s WALL (      76 calls)
     fftw         :    142.56s CPU    147.87s WALL ( 1547752 calls)

     Parallel routines

     PWSCF        :   4m41.00s CPU   4m59.53s WALL


   This run was terminated on:   0:22:11  22Jan2025            

=------------------------------------------------------------------------------=
   JOB DONE.
=------------------------------------------------------------------------------=
