
     Program PWSCF v.7.2 starts on 21Jan2025 at 23:28:52 

     This program is part of the open-source Quantum ESPRESSO suite
     for quantum simulation of materials; please cite
         "P. Giannozzi et al., J. Phys.:Condens. Matter 21 395502 (2009);
         "P. Giannozzi et al., J. Phys.:Condens. Matter 29 465901 (2017);
         "P. Giannozzi et al., J. Chem. Phys. 152 154105 (2020);
          URL http://www.quantum-espresso.org", 
     in publications or presentations arising from this work. More details at
     http://www.quantum-espresso.org/quote

     Parallel version (MPI & OpenMP), running on       8 processor cores
     Number of MPI processes:                 8
     Threads/MPI process:                     1

     MPI processes distributed on     1 nodes
     487409 MiB available memory on the printing compute node when the environment starts

     Waiting for input...
     Reading input from standard input

     Current dimensions of program PWSCF are:
     Max number of different atomic species (ntypx) = 10
     Max number of k-points (npk) =  40000
     Max angular momentum in pseudopotentials (lmaxx) =  4

     R & G space division:  proc/nbgrp/npool/nimage =       8
     Subspace diagonalization in iterative solution of the eigenvalue problem:
     a serial algorithm will be used


     Parallelization info
     --------------------
     sticks:   dense  smooth     PW     G-vecs:    dense   smooth      PW
     Min          84      84     24                 8684     8684    1368
     Max          85      85     25                 8699     8699    1385
     Sum         673     673    199                69515    69515   11033

     Using Slab Decomposition



     bravais-lattice index     =            4
     lattice parameter (alat)  =       6.3695  a.u.
     unit-cell volume          =    1105.3390 (a.u.)^3
     number of atoms/cell      =           10
     number of atomic types    =            2
     number of electrons       =        38.00
     number of Kohn-Sham states=           23
     kinetic-energy cutoff     =      60.0000  Ry
     charge density cutoff     =     240.0000  Ry
     scf convergence threshold =      1.0E-08
     mixing beta               =       0.8000
     number of iterations used =            8  plain     mixing
     energy convergence thresh.=      5.0E-03
     force convergence thresh. =      1.0E-02
     press convergence thresh. =      2.0E+00
     Exchange-correlation= PBE
                           (   1   4   3   4   0   0   0)
     nstep                     =           50


     celldm(1)=   6.369536  celldm(2)=   0.000000  celldm(3)=   4.939027
     celldm(4)=   0.000000  celldm(5)=   0.000000  celldm(6)=   0.000000

     crystal axes: (cart. coord. in units of alat)
               a(1) = (   1.000000   0.000000   0.000000 )  
               a(2) = (  -0.500000   0.866025   0.000000 )  
               a(3) = (   0.000000   0.000000   4.939027 )  

     reciprocal axes: (cart. coord. in units 2 pi/alat)
               b(1) = (  1.000000  0.577350 -0.000000 )  
               b(2) = (  0.000000  1.154701  0.000000 )  
               b(3) = (  0.000000 -0.000000  0.202469 )  


     PseudoPot. # 1 for Si read from file:
     ../pseudo/Si_ONCV_PBE_sr.upf
     MD5 check sum: e543d271109d17c80368dfa7c482276d
     Pseudo is Norm-conserving + core correction, Zval =  4.0
     Generated using ONCVPSP code by D. R. Hamann
     Using radial grid of 1510 points,  6 beta functions with: 
                l(1) =   0
                l(2) =   0
                l(3) =   1
                l(4) =   1
                l(5) =   2
                l(6) =   2

     PseudoPot. # 2 for Li read from file:
     ../pseudo/Li_ONCV_PBE_sr.upf
     MD5 check sum: 50ff420e78310ffa21704f3361e624a4
     Pseudo is Norm-conserving, Zval =  3.0
     Generated using ONCVPSP code by D. R. Hamann
     Using radial grid of 1944 points,  4 beta functions with: 
                l(1) =   0
                l(2) =   0
                l(3) =   1
                l(4) =   1

     atomic species   valence    mass     pseudopotential
        Si             4.00    28.08550     Si( 1.00)
        Li             3.00     6.94100     Li( 1.00)

     12 Sym. Ops., with inversion, found



   Cartesian axes

     site n.     atom                  positions (alat units)
         1           Si  tau(   1) = (   0.0000000   0.0000000   2.1686701  )
         2           Si  tau(   2) = (   0.0000000   0.0000000   2.7703572  )
         3           Si  tau(   3) = (  -0.0000000   0.5773503   3.7669146  )
         4           Si  tau(   4) = (   0.5000000   0.2886751   1.1721127  )
         5           Si  tau(   5) = (  -0.0000000   0.5773503   1.3670709  )
         6           Si  tau(   6) = (   0.5000000   0.2886751   3.5719564  )
         7           Si  tau(   7) = (  -0.0000000   0.5773503   1.9707336  )
         8           Si  tau(   8) = (   0.5000000   0.2886751   2.9682937  )
         9           Li  tau(   9) = (  -0.0000000   0.5773503   4.4784358  )
        10           Li  tau(  10) = (   0.5000000   0.2886751   0.4605915  )

     number of k points=    25  Marzari-Vanderbilt smearing, width (Ry)=  0.0200
                       cart. coord. in units 2pi/alat
        k(    1) = (   0.0000000   0.0000000   0.0000000), wk =   0.0104167
        k(    2) = (   0.0000000   0.0000000   0.0674897), wk =   0.0208333
        k(    3) = (   0.0000000   0.1443376   0.0000000), wk =   0.0625000
        k(    4) = (   0.0000000   0.1443376   0.0674897), wk =   0.0625000
        k(    5) = (   0.0000000   0.2886751   0.0000000), wk =   0.0625000
        k(    6) = (   0.0000000   0.2886751   0.0674897), wk =   0.0625000
        k(    7) = (   0.0000000   0.4330127   0.0000000), wk =   0.0625000
        k(    8) = (   0.0000000   0.4330127   0.0674897), wk =   0.0625000
        k(    9) = (   0.0000000  -0.5773503   0.0000000), wk =   0.0312500
        k(   10) = (   0.0000000  -0.5773503   0.0674897), wk =   0.0625000
        k(   11) = (   0.1250000   0.2165064   0.0000000), wk =   0.0625000
        k(   12) = (   0.1250000   0.2165064   0.0674897), wk =   0.1250000
        k(   13) = (   0.1250000   0.3608439   0.0000000), wk =   0.1250000
        k(   14) = (   0.1250000   0.3608439   0.0674897), wk =   0.1250000
        k(   15) = (   0.1250000   0.5051815   0.0000000), wk =   0.1250000
        k(   16) = (   0.1250000   0.5051815   0.0674897), wk =   0.1250000
        k(   17) = (   0.2500000   0.4330127   0.0000000), wk =   0.0625000
        k(   18) = (   0.2500000   0.4330127   0.0674897), wk =   0.1250000
        k(   19) = (   0.2500000   0.5773503   0.0000000), wk =   0.0625000
        k(   20) = (   0.2500000   0.5773503   0.0674897), wk =   0.1250000
        k(   21) = (   0.0000000   0.1443376  -0.0674897), wk =   0.0625000
        k(   22) = (   0.0000000   0.2886751  -0.0674897), wk =   0.0625000
        k(   23) = (   0.0000000   0.4330127  -0.0674897), wk =   0.0625000
        k(   24) = (  -0.1250000   0.3608439  -0.0674897), wk =   0.1250000
        k(   25) = (  -0.1250000   0.5051815  -0.0674897), wk =   0.1250000

     Dense  grid:    69515 G-vectors     FFT dimensions: (  32,  32, 160)

     Estimated max dynamical RAM per process >      29.45 MB

     Estimated total dynamical RAM >     235.61 MB

     Initial potential from superposition of free atoms

     starting charge      37.9860, renormalised to      38.0000
     Starting wfcs are   36 randomized atomic wfcs

     total cpu time spent up to now is        2.1 secs

     Self-consistent Calculation

     iteration #  1     ecut=    60.00 Ry     beta= 0.80
     Davidson diagonalization with overlap
     ethr =  1.00E-02,  avg # of iterations =  5.0

     total cpu time spent up to now is        3.7 secs

     total energy              =     -94.56632389 Ry
     estimated scf accuracy    <       1.63289224 Ry

     iteration #  2     ecut=    60.00 Ry     beta= 0.80
     Davidson diagonalization with overlap
     ethr =  4.30E-03,  avg # of iterations =  9.5

     total cpu time spent up to now is        6.6 secs

     total energy              =     -77.24166435 Ry
     estimated scf accuracy    <     468.15238471 Ry

     iteration #  3     ecut=    60.00 Ry     beta= 0.80
     Davidson diagonalization with overlap
     ethr =  4.30E-03,  avg # of iterations = 11.0

     total cpu time spent up to now is        9.5 secs

     total energy              =     -94.67779096 Ry
     estimated scf accuracy    <      13.36924666 Ry

     iteration #  4     ecut=    60.00 Ry     beta= 0.80
     Davidson diagonalization with overlap
     ethr =  4.30E-03,  avg # of iterations =  3.7

     total cpu time spent up to now is       10.7 secs

     total energy              =     -95.63874412 Ry
     estimated scf accuracy    <       0.72417030 Ry

     iteration #  5     ecut=    60.00 Ry     beta= 0.80
     Davidson diagonalization with overlap
     ethr =  1.91E-03,  avg # of iterations =  1.9

     total cpu time spent up to now is       11.7 secs

     total energy              =     -95.66379668 Ry
     estimated scf accuracy    <       0.12630160 Ry

     iteration #  6     ecut=    60.00 Ry     beta= 0.80
     Davidson diagonalization with overlap
     ethr =  3.32E-04,  avg # of iterations =  5.2

     total cpu time spent up to now is       12.8 secs

     total energy              =     -95.66562963 Ry
     estimated scf accuracy    <       0.03656116 Ry

     iteration #  7     ecut=    60.00 Ry     beta= 0.80
     Davidson diagonalization with overlap
     ethr =  9.62E-05,  avg # of iterations =  3.9

     total cpu time spent up to now is       13.9 secs

     total energy              =     -95.66706325 Ry
     estimated scf accuracy    <       0.00589718 Ry

     iteration #  8     ecut=    60.00 Ry     beta= 0.80
     Davidson diagonalization with overlap
     ethr =  1.55E-05,  avg # of iterations =  7.8

     total cpu time spent up to now is       15.3 secs

     total energy              =     -95.66793146 Ry
     estimated scf accuracy    <       0.00017579 Ry

     iteration #  9     ecut=    60.00 Ry     beta= 0.80
     Davidson diagonalization with overlap
     ethr =  4.63E-07,  avg # of iterations =  6.6

     total cpu time spent up to now is       16.8 secs

     total energy              =     -95.66799489 Ry
     estimated scf accuracy    <       0.00005653 Ry

     iteration # 10     ecut=    60.00 Ry     beta= 0.80
     Davidson diagonalization with overlap
     ethr =  1.49E-07,  avg # of iterations =  2.0

     total cpu time spent up to now is       17.8 secs

     total energy              =     -95.66800270 Ry
     estimated scf accuracy    <       0.00000016 Ry

     iteration # 11     ecut=    60.00 Ry     beta= 0.80
     Davidson diagonalization with overlap
     ethr =  4.18E-10,  avg # of iterations =  6.8

     total cpu time spent up to now is       19.8 secs

     total energy              =     -95.66800316 Ry
     estimated scf accuracy    <       0.00000043 Ry

     iteration # 12     ecut=    60.00 Ry     beta= 0.80
     Davidson diagonalization with overlap
     ethr =  4.18E-10,  avg # of iterations =  2.0

     total cpu time spent up to now is       20.9 secs

     total energy              =     -95.66800319 Ry
     estimated scf accuracy    <       0.00000003 Ry

     iteration # 13     ecut=    60.00 Ry     beta= 0.80
     Davidson diagonalization with overlap
     ethr =  8.20E-11,  avg # of iterations =  3.3

     total cpu time spent up to now is       22.1 secs

     End of self-consistent calculation

          k = 0.0000 0.0000 0.0000 (  8675 PWs)   bands (ev):

   -39.8468 -39.8457  -7.6911  -6.8275  -5.6842  -4.5682  -0.9989   1.1103
     3.3375   4.9187   5.6091   5.7806   5.7806   6.2764   6.2764   6.9272
     6.9272   7.2997   7.2997   7.5476   9.3699  10.2094  10.3845

          k = 0.0000 0.0000 0.0675 (  8670 PWs)   bands (ev):

   -39.8469 -39.8455  -7.6911  -6.8275  -5.6842  -4.5682  -0.9983   1.1044
     3.4105   4.6004   5.7806   5.7806   6.1181   6.2764   6.2764   6.9272
     6.9272   7.1362   7.2998   7.2998   9.6238  10.2098  10.3757

          k = 0.0000 0.1443 0.0000 (  8651 PWs)   bands (ev):

   -39.8460 -39.8448  -7.4421  -6.5802  -5.4387  -4.3228  -0.7970   1.3040
     3.5034   4.1211   4.7179   5.1026   5.1172   5.4991   5.7649   5.9093
     6.1092   6.5422   7.0311   7.4746   9.3312   9.5222   9.8163

          k = 0.0000 0.1443 0.0675 (  8642 PWs)   bands (ev):

   -39.8460 -39.8446  -7.4421  -6.5802  -5.4387  -4.3228  -0.7964   1.2984
     3.5656   4.1279   4.6997   4.8195   5.1172   5.5711   5.7649   6.0900
     6.3415   6.5422   7.0311   7.1513   9.2958   9.4290  10.0279

          k = 0.0000 0.2887 0.0000 (  8650 PWs)   bands (ev):

   -39.8445 -39.8434  -6.7041  -5.8494  -4.7162  -3.6009  -0.3214   1.3665
     1.8581   2.3756   3.1501   3.8154   4.2047   4.2192   4.9091   5.6730
     5.7660   6.1966   6.3706   6.9203   8.1570   8.9385   9.3859

          k = 0.0000 0.2887 0.0675 (  8654 PWs)   bands (ev):

   -39.8446 -39.8434  -6.7041  -5.8494  -4.7162  -3.6009  -0.3210   1.3660
     1.8551   2.3755   3.1507   3.8165   4.2047   4.2642   4.9091   5.4414
     5.7661   6.3705   6.5882   6.7403   8.1916   8.9407   9.2021

          k = 0.0000 0.4330 0.0000 (  8688 PWs)   bands (ev):

   -39.8430 -39.8427  -5.5214  -4.6975  -3.6167  -2.5281  -1.0625  -0.5485
     0.4875   1.4692   1.5496   3.1381   3.5920   4.2739   4.3123   5.1938
     5.7928   5.8382   6.5027   6.9622   7.4515   8.3184   8.5332

          k = 0.0000 0.4330 0.0675 (  8675 PWs)   bands (ev):

   -39.8430 -39.8425  -5.5214  -4.6975  -3.6167  -2.5281  -1.0625  -0.5485
     0.4875   1.4692   1.5501   3.1344   3.5920   4.2783   4.3123   5.1939
     5.8381   5.8469   6.3627   7.0495   7.4932   8.2530   8.3519

          k = 0.0000-0.5774 0.0000 (  8694 PWs)   bands (ev):

   -39.8424 -39.8423  -4.3328  -3.8918  -3.1910  -2.2478  -1.6197  -1.2109
    -0.6123  -0.3126   2.6745   2.7066   3.3813   4.1055   4.1365   4.9931
     5.6475   5.8232   6.4999   7.1847   7.6497   7.7254   8.1363

          k = 0.0000-0.5774 0.0675 (  8710 PWs)   bands (ev):

   -39.8426 -39.8424  -4.3328  -3.8918  -3.1910  -2.2478  -1.6198  -1.2109
    -0.6122  -0.3126   2.6741   2.7072   3.3813   4.1055   4.1368   4.9932
     5.6475   5.8096   6.5288   7.1904   7.4990   7.9476   8.1111

          k = 0.1250 0.2165 0.0000 (  8660 PWs)   bands (ev):

   -39.8451 -39.8438  -6.9482  -6.0906  -4.9539  -3.8381  -0.4397   1.5992
     2.6465   3.0499   3.4790   3.9675   4.0840   4.4988   5.1778   5.5036
     5.6180   5.7268   6.1305   7.4093   9.2702   9.9972  10.1061

          k = 0.1250 0.2165 0.0675 (  8643 PWs)   bands (ev):

   -39.8449 -39.8436  -6.9482  -6.0906  -4.9539  -3.8381  -0.4393   1.5953
     2.6476   3.0461   3.4796   4.0264   4.0835   4.4906   5.1869   5.3128
     5.5161   5.7325   6.5765   7.1817   9.3033   9.8388  10.1263

          k = 0.1250 0.3608 0.0000 (  8679 PWs)   bands (ev):

   -39.8436 -39.8428  -5.9824  -5.1394  -4.0222  -2.9068  -0.3658   0.4813
     1.4510   1.5135   2.3291   2.6801   3.2357   3.6660   4.0026   4.7870
     4.9057   6.0102   6.4476   7.0715   8.6726   9.3092   9.6617

          k = 0.1250 0.3608 0.0675 (  8664 PWs)   bands (ev):

   -39.8435 -39.8427  -5.9824  -5.1394  -4.0222  -2.9068  -0.3657   0.4813
     1.4512   1.5135   2.3294   2.6775   3.2344   3.6660   4.0047   4.8128
     4.9066   5.8913   6.6695   6.8999   8.7718   9.3141   9.7891

          k = 0.1250 0.5052 0.0000 (  8686 PWs)   bands (ev):

   -39.8425 -39.8421  -4.6476  -3.9149  -3.0539  -2.0637  -1.3440  -1.1367
    -0.3884   0.4843   2.0653   2.3145   2.8499   3.4631   3.5837   4.4715
     4.5813   6.2329   6.3106   7.4260   8.4079   8.8092   8.9393

          k = 0.1250 0.5052 0.0675 (  8687 PWs)   bands (ev):

   -39.8424 -39.8421  -4.6476  -3.9149  -3.0539  -2.0637  -1.3440  -1.1367
    -0.3884   0.4843   2.0652   2.3144   2.8499   3.4643   3.5828   4.4714
     4.5801   6.2440   6.2977   7.4779   8.2483   8.8323   9.0369

          k = 0.2500 0.4330 0.0000 (  8690 PWs)   bands (ev):

   -39.8426 -39.8420  -4.8306  -4.0331  -3.0097  -1.8609  -1.1490  -0.5043
     0.1197   0.7795   1.5441   1.8562   2.4765   2.6742   2.9312   3.7490
     4.7645   6.0095   6.4461   7.3960   8.8996   9.1133   9.5767

          k = 0.2500 0.4330 0.0675 (  8689 PWs)   bands (ev):

   -39.8426 -39.8420  -4.8306  -4.0331  -3.0097  -1.8609  -1.1490  -0.5043
     0.1197   0.7794   1.5440   1.8563   2.4775   2.6745   2.9310   3.7453
     4.7659   5.9911   6.5059   7.3768   8.4935   9.5363   9.8030

          k = 0.2500 0.5774 0.0000 (  8704 PWs)   bands (ev):

   -39.8421 -39.8419  -3.6427  -3.2844  -2.8084  -1.5661  -1.2563  -1.0170
    -0.5165  -0.3630   1.1309   1.4494   1.6516   2.5277   3.4492   3.5283
     4.4370   6.0506   6.2333   8.2033   8.4131   9.1040   9.6793

          k = 0.2500 0.5774 0.0675 (  8707 PWs)   bands (ev):

   -39.8421 -39.8420  -3.6427  -3.2844  -2.8084  -1.5661  -1.2563  -1.0170
    -0.5165  -0.3630   1.1310   1.4492   1.6517   2.5275   3.4500   3.5281
     4.4368   6.0515   6.2288   8.1381   8.5755   9.2130   9.3711

          k = 0.0000 0.1443-0.0675 (  8642 PWs)   bands (ev):

   -39.8459 -39.8448  -7.4421  -6.5802  -5.4387  -4.3228  -0.7964   1.2985
     3.5672   4.1175   4.6639   4.9065   5.1172   5.5027   5.7649   6.1007
     6.3428   6.5423   7.0311   7.1810   9.2057   9.4762  10.1071

          k = 0.0000 0.2887-0.0675 (  8654 PWs)   bands (ev):

   -39.8446 -39.8434  -6.7041  -5.8494  -4.7162  -3.6009  -0.3210   1.3658
     1.8571   2.3746   3.1434   3.8152   4.2047   4.2805   4.9091   5.4814
     5.7661   6.2699   6.3705   7.0853   8.1627   8.7711   9.3930

          k = 0.0000 0.4330-0.0675 (  8675 PWs)   bands (ev):

   -39.8430 -39.8426  -5.5214  -4.6975  -3.6167  -2.5281  -1.0625  -0.5485
     0.4875   1.4693   1.5506   3.1325   3.5920   4.2763   4.3123   5.1939
     5.8381   5.9119   6.3164   6.9625   7.4672   8.3314   8.5458

          k =-0.1250 0.3608-0.0675 (  8664 PWs)   bands (ev):

   -39.8435 -39.8426  -5.9824  -5.1394  -4.0222  -2.9068  -0.3657   0.4813
     1.4518   1.5135   2.3294   2.6761   3.2326   3.6658   4.0099   4.8075
     4.9035   6.0451   6.3036   7.1434   8.9944   9.1175   9.4999

          k =-0.1250 0.5052-0.0675 (  8687 PWs)   bands (ev):

   -39.8425 -39.8421  -4.6476  -3.9149  -3.0539  -2.0637  -1.3439  -1.1367
    -0.3884   0.4844   2.0657   2.3145   2.8494   3.4635   3.5830   4.4714
     4.5794   6.2230   6.3378   7.4706   8.1148   8.8318   9.3649

     the Fermi energy is     6.8773 ev

!    total energy              =     -95.66800320 Ry
     estimated scf accuracy    <          3.4E-09 Ry
     smearing contrib. (-TS)   =       0.00289786 Ry
     internal energy E=F+TS    =     -95.67090105 Ry

     The total energy is F=E-TS. E is the sum of the following terms:
     one-electron contribution =     -93.65577940 Ry
     hartree contribution      =      61.08844572 Ry
     xc contribution           =     -33.19418026 Ry
     ewald contribution        =     -29.90938711 Ry

     convergence has been achieved in  13 iterations

     Forces acting on atoms (cartesian axes, Ry/au):

     atom    1 type  1   force =     0.00000000    0.00000000   -0.03254324
     atom    2 type  1   force =     0.00000000    0.00000000    0.03254324
     atom    3 type  1   force =     0.00000000    0.00000000    0.15657206
     atom    4 type  1   force =     0.00000000    0.00000000   -0.15657206
     atom    5 type  1   force =     0.00000000    0.00000000   -0.05469882
     atom    6 type  1   force =    -0.00000000   -0.00000000    0.05469882
     atom    7 type  1   force =    -0.00000000   -0.00000000    0.02298023
     atom    8 type  1   force =     0.00000000   -0.00000000   -0.02298023
     atom    9 type  2   force =     0.00000000    0.00000000    0.02800701
     atom   10 type  2   force =     0.00000000   -0.00000000   -0.02800701
     The non-local contrib.  to forces
     atom    1 type  1   force =     0.00000000    0.00000000   -0.02894104
     atom    2 type  1   force =     0.00000000   -0.00000000    0.02894104
     atom    3 type  1   force =     0.00000000    0.00000000    0.12023110
     atom    4 type  1   force =     0.00000000   -0.00000000   -0.12023110
     atom    5 type  1   force =     0.00000000   -0.00000000   -0.04120396
     atom    6 type  1   force =     0.00000000   -0.00000000    0.04120396
     atom    7 type  1   force =     0.00000000   -0.00000000    0.04253368
     atom    8 type  1   force =     0.00000000    0.00000000   -0.04253368
     atom    9 type  2   force =     0.00000000    0.00000000    0.10712014
     atom   10 type  2   force =     0.00000000    0.00000000   -0.10712014
     The ionic contribution  to forces
     atom    1 type  1   force =    -0.00000003    0.00000002   -2.07585370
     atom    2 type  1   force =     0.00000003   -0.00000002    2.07585370
     atom    3 type  1   force =     0.00000007   -0.00000004    8.73861661
     atom    4 type  1   force =    -0.00000007    0.00000004   -8.73861661
     atom    5 type  1   force =     0.00000007   -0.00000004   -7.30687578
     atom    6 type  1   force =    -0.00000007    0.00000004    7.30687578
     atom    7 type  1   force =     0.00000004   -0.00000002   -3.21721429
     atom    8 type  1   force =    -0.00000004    0.00000002    3.21721429
     atom    9 type  2   force =     0.00000000   -0.00000000    4.53148261
     atom   10 type  2   force =    -0.00000000    0.00000000   -4.53148261
     The local contribution  to forces
     atom    1 type  1   force =     0.00000000   -0.00000000    2.07009411
     atom    2 type  1   force =    -0.00000000    0.00000000   -2.07009411
     atom    3 type  1   force =     0.00000000   -0.00000000   -8.69100910
     atom    4 type  1   force =    -0.00000000    0.00000000    8.69100910
     atom    5 type  1   force =     0.00000001   -0.00000000    7.29042427
     atom    6 type  1   force =    -0.00000001    0.00000000   -7.29042427
     atom    7 type  1   force =     0.00000001   -0.00000000    3.20024849
     atom    8 type  1   force =    -0.00000001    0.00000000   -3.20024849
     atom    9 type  2   force =     0.00000064   -0.00000037   -4.61055646
     atom   10 type  2   force =    -0.00000064    0.00000037    4.61055646
     The core correction contribution to forces
     atom    1 type  1   force =     0.00000000   -0.00000000    0.00218224
     atom    2 type  1   force =    -0.00000000    0.00000000   -0.00218224
     atom    3 type  1   force =    -0.00000000    0.00000000   -0.01122097
     atom    4 type  1   force =     0.00000000   -0.00000000    0.01122097
     atom    5 type  1   force =    -0.00000000    0.00000000    0.00293536
     atom    6 type  1   force =     0.00000000   -0.00000000   -0.00293536
     atom    7 type  1   force =    -0.00000000    0.00000000   -0.00255364
     atom    8 type  1   force =     0.00000000   -0.00000000    0.00255364
     atom    9 type  2   force =     0.00000000    0.00000000    0.00000000
     atom   10 type  2   force =     0.00000000    0.00000000    0.00000000
     The Hubbard contrib.    to forces
     atom    1 type  1   force =     0.00000000    0.00000000    0.00000000
     atom    2 type  1   force =     0.00000000    0.00000000    0.00000000
     atom    3 type  1   force =     0.00000000    0.00000000    0.00000000
     atom    4 type  1   force =     0.00000000    0.00000000    0.00000000
     atom    5 type  1   force =     0.00000000    0.00000000    0.00000000
     atom    6 type  1   force =     0.00000000    0.00000000    0.00000000
     atom    7 type  1   force =     0.00000000    0.00000000    0.00000000
     atom    8 type  1   force =     0.00000000    0.00000000    0.00000000
     atom    9 type  2   force =     0.00000000    0.00000000    0.00000000
     atom   10 type  2   force =     0.00000000    0.00000000    0.00000000
     The SCF correction term to forces
     atom    1 type  1   force =    -0.00000000    0.00000000   -0.00002485
     atom    2 type  1   force =     0.00000000   -0.00000000    0.00002485
     atom    3 type  1   force =     0.00000000   -0.00000000   -0.00004558
     atom    4 type  1   force =    -0.00000000    0.00000000    0.00004558
     atom    5 type  1   force =     0.00000000   -0.00000000    0.00002130
     atom    6 type  1   force =    -0.00000000    0.00000000   -0.00002130
     atom    7 type  1   force =     0.00000000   -0.00000000   -0.00003402
     atom    8 type  1   force =    -0.00000000    0.00000000    0.00003402
     atom    9 type  2   force =     0.00000000   -0.00000000   -0.00003929
     atom   10 type  2   force =    -0.00000000    0.00000000    0.00003929

     Total force =     0.244452     Total SCF correction =     0.000108


     Computing stress (Cartesian axis) and pressure

          total   stress  (Ry/bohr**3)                   (kbar)     P=      531.32
   0.00368304   0.00000000   0.00000000          541.79        0.00        0.00
   0.00000000   0.00368304   0.00000000            0.00      541.79        0.00
   0.00000000   0.00000000   0.00346949            0.00        0.00      510.38


     BFGS Geometry Optimization
     Energy error            =      0.0E+00 Ry
     Gradient error          =      1.6E-01 Ry/Bohr
     Cell gradient error     =      4.2E+01 kbar

     number of scf cycles    =   1
     number of bfgs steps    =   0

     enthalpy           new  =     -91.9110323225 Ry

     new trust radius        =       0.1565720607 bohr
ibrav =      4
 celldm(1) =      6.41477751
 celldm(3) =      4.91284531
Input lattice vectors:
     1.00710276     0.00000000     0.00000000
    -0.50355138     0.87217658     0.00000000
     0.00000000     0.00000000     4.94774009
New lattice vectors in INITIAL alat:
     1.00710276     0.00000000     0.00000000
    -0.50355138     0.87217658     0.00000000
     0.00000000     0.00000000     4.94774009
New lattice vectors in NEW alat (for information only):
     1.00000000     0.00000000     0.00000000
    -0.50000000     0.86602540     0.00000000
     0.00000000     0.00000000     4.91284531
Discrepancy in bohr =     0.000000    0.000000    0.000000
     new conv_thr            =       0.0000000100 Ry

     new unit-cell volume =   1123.07437 a.u.^3 (   166.42245 Ang^3 )
     density =      2.38038 g/cm^3

CELL_PARAMETERS (alat=  6.36953620)
   1.007102764   0.000000000   0.000000000
  -0.503551382   0.872176578   0.000000000
   0.000000000   0.000000000   4.947740093

ATOMIC_POSITIONS (crystal)
Si            0.0000000000        0.0000000000        0.4380540451
Si            0.0000000000        0.0000000000        0.5619459549
Si            0.3333333300        0.6666666700        0.7676604701
Si            0.6666666700        0.3333333300        0.2323395299
Si            0.3333333300        0.6666666700        0.2750507837
Si            0.6666666700        0.3333333300        0.7249492163
Si            0.3333333300        0.6666666700        0.3997429746
Si            0.6666666700        0.3333333300        0.6002570254
Li            0.3333333300        0.6666666700        0.9076347612
Li            0.6666666700        0.3333333300        0.0923652388



     Writing config-only to output data dir ./output/SiLi.save/
     NEW-OLD atomic charge density approx. for the potential
     extrapolated charge   38.59987, renormalised to   38.00000

     total cpu time spent up to now is       27.4 secs

     Self-consistent Calculation

     iteration #  1     ecut=    60.00 Ry     beta= 0.80
     Davidson diagonalization with overlap
     c_bands:  2 eigenvalues not converged
     c_bands:  2 eigenvalues not converged
     c_bands:  1 eigenvalues not converged
     c_bands:  1 eigenvalues not converged
     c_bands:  1 eigenvalues not converged
     c_bands:  1 eigenvalues not converged
     c_bands:  2 eigenvalues not converged
     c_bands:  1 eigenvalues not converged
     c_bands:  1 eigenvalues not converged
     c_bands:  1 eigenvalues not converged
     c_bands:  2 eigenvalues not converged
     c_bands:  1 eigenvalues not converged
     c_bands:  2 eigenvalues not converged
     c_bands:  1 eigenvalues not converged
     c_bands:  1 eigenvalues not converged
     c_bands:  2 eigenvalues not converged
     c_bands:  1 eigenvalues not converged
     c_bands:  1 eigenvalues not converged
     ethr =  1.00E-06,  avg # of iterations = 19.6

     total cpu time spent up to now is       31.6 secs

     total energy              =     -88.49650314 Ry
     estimated scf accuracy    <       7.44242276 Ry

     iteration #  2     ecut=    60.00 Ry     beta= 0.80
     Davidson diagonalization with overlap
     ethr =  1.00E-02,  avg # of iterations = 13.6

     total cpu time spent up to now is       34.6 secs

     total energy              =     -70.10287644 Ry
     estimated scf accuracy    <     488.86420862 Ry

     iteration #  3     ecut=    60.00 Ry     beta= 0.80
     Davidson diagonalization with overlap
     ethr =  1.00E-02,  avg # of iterations = 10.2

     total cpu time spent up to now is       37.4 secs

     total energy              =     -95.56621415 Ry
     estimated scf accuracy    <      18.20831063 Ry

     iteration #  4     ecut=    60.00 Ry     beta= 0.80
     Davidson diagonalization with overlap
     ethr =  1.00E-02,  avg # of iterations =  3.0

     total cpu time spent up to now is       38.7 secs

     total energy              =     -96.23942564 Ry
     estimated scf accuracy    <       6.36242502 Ry

     iteration #  5     ecut=    60.00 Ry     beta= 0.80
     Davidson diagonalization with overlap
     ethr =  1.00E-02,  avg # of iterations =  1.2

     total cpu time spent up to now is       39.6 secs

     total energy              =     -95.98308805 Ry
     estimated scf accuracy    <       4.59335210 Ry

     iteration #  6     ecut=    60.00 Ry     beta= 0.80
     Davidson diagonalization with overlap
     ethr =  1.00E-02,  avg # of iterations =  1.0

     total cpu time spent up to now is       40.5 secs

     total energy              =     -95.90774046 Ry
     estimated scf accuracy    <       3.45027441 Ry

     iteration #  7     ecut=    60.00 Ry     beta= 0.80
     Davidson diagonalization with overlap
     ethr =  9.08E-03,  avg # of iterations =  1.0

     total cpu time spent up to now is       41.4 secs

     total energy              =     -95.90783332 Ry
     estimated scf accuracy    <       2.91110911 Ry

     iteration #  8     ecut=    60.00 Ry     beta= 0.80
     Davidson diagonalization with overlap
     ethr =  7.66E-03,  avg # of iterations =  1.0

     total cpu time spent up to now is       42.3 secs

     total energy              =     -96.06908786 Ry
     estimated scf accuracy    <       2.68099476 Ry

     iteration #  9     ecut=    60.00 Ry     beta= 0.80
     Davidson diagonalization with overlap
     ethr =  7.06E-03,  avg # of iterations =  1.0

     total cpu time spent up to now is       43.2 secs

     total energy              =     -96.05168555 Ry
     estimated scf accuracy    <       3.26181153 Ry

     iteration # 10     ecut=    60.00 Ry     beta= 0.80
     Davidson diagonalization with overlap
     ethr =  7.06E-03,  avg # of iterations =  1.0

     total cpu time spent up to now is       44.1 secs

     total energy              =     -95.35725561 Ry
     estimated scf accuracy    <       3.36010538 Ry

     iteration # 11     ecut=    60.00 Ry     beta= 0.80
     Davidson diagonalization with overlap
     ethr =  7.06E-03,  avg # of iterations =  4.4

     total cpu time spent up to now is       45.3 secs

     total energy              =     -96.22610970 Ry
     estimated scf accuracy    <       6.78048546 Ry

     iteration # 12     ecut=    60.00 Ry     beta= 0.80
     Davidson diagonalization with overlap
     ethr =  7.06E-03,  avg # of iterations =  1.1

     total cpu time spent up to now is       46.2 secs

     total energy              =     -96.26345734 Ry
     estimated scf accuracy    <       4.65246468 Ry

     iteration # 13     ecut=    60.00 Ry     beta= 0.80
     Davidson diagonalization with overlap
     ethr =  7.06E-03,  avg # of iterations =  1.0

     negative rho (up, down):  2.890E-02 0.000E+00

     total cpu time spent up to now is       47.1 secs

     total energy              =     -96.51068698 Ry
     estimated scf accuracy    <       4.70978834 Ry

     iteration # 14     ecut=    60.00 Ry     beta= 0.80
     Davidson diagonalization with overlap
     ethr =  7.06E-03,  avg # of iterations =  1.0

     negative rho (up, down):  1.121E-03 0.000E+00

     total cpu time spent up to now is       48.0 secs

     total energy              =     -96.18293883 Ry
     estimated scf accuracy    <       8.02955064 Ry

     iteration # 15     ecut=    60.00 Ry     beta= 0.80
     Davidson diagonalization with overlap
     ethr =  7.06E-03,  avg # of iterations =  1.0

     negative rho (up, down):  2.748E-03 0.000E+00

     total cpu time spent up to now is       48.9 secs

     total energy              =     -95.95226482 Ry
     estimated scf accuracy    <       5.42202051 Ry

     iteration # 16     ecut=    60.00 Ry     beta= 0.80
     Davidson diagonalization with overlap
     ethr =  7.06E-03,  avg # of iterations =  1.0

     negative rho (up, down):  4.925E-03 0.000E+00

     total cpu time spent up to now is       49.8 secs

     total energy              =     -95.84618985 Ry
     estimated scf accuracy    <       3.44246369 Ry

     iteration # 17     ecut=    60.00 Ry     beta= 0.80
     Davidson diagonalization with overlap
     ethr =  7.06E-03,  avg # of iterations =  1.0

     negative rho (up, down):  9.063E-04 0.000E+00

     total cpu time spent up to now is       50.7 secs

     total energy              =     -95.83003374 Ry
     estimated scf accuracy    <       1.36869413 Ry

     iteration # 18     ecut=    60.00 Ry     beta= 0.80
     Davidson diagonalization with overlap
     ethr =  3.60E-03,  avg # of iterations =  1.0

     total cpu time spent up to now is       51.6 secs

     total energy              =     -95.70697568 Ry
     estimated scf accuracy    <       0.82277602 Ry

     iteration # 19     ecut=    60.00 Ry     beta= 0.80
     Davidson diagonalization with overlap
     ethr =  2.17E-03,  avg # of iterations =  2.2

     total cpu time spent up to now is       52.5 secs

     total energy              =     -95.77698736 Ry
     estimated scf accuracy    <       0.02202649 Ry

     iteration # 20     ecut=    60.00 Ry     beta= 0.80
     Davidson diagonalization with overlap
     ethr =  5.80E-05,  avg # of iterations =  7.5

     total cpu time spent up to now is       53.9 secs

     total energy              =     -95.78138580 Ry
     estimated scf accuracy    <       0.00268661 Ry

     iteration # 21     ecut=    60.00 Ry     beta= 0.80
     Davidson diagonalization with overlap
     ethr =  7.07E-06,  avg # of iterations =  6.4

     total cpu time spent up to now is       55.2 secs

     total energy              =     -95.78137100 Ry
     estimated scf accuracy    <       0.00236635 Ry

     iteration # 22     ecut=    60.00 Ry     beta= 0.80
     Davidson diagonalization with overlap
     ethr =  6.23E-06,  avg # of iterations =  1.7

     total cpu time spent up to now is       56.1 secs

     total energy              =     -95.78154879 Ry
     estimated scf accuracy    <       0.00016615 Ry

     iteration # 23     ecut=    60.00 Ry     beta= 0.80
     Davidson diagonalization with overlap
     c_bands:  1 eigenvalues not converged
     ethr =  4.37E-07,  avg # of iterations =  5.9

     total cpu time spent up to now is       57.3 secs

     total energy              =     -95.78155304 Ry
     estimated scf accuracy    <       0.00042636 Ry

     iteration # 24     ecut=    60.00 Ry     beta= 0.80
     Davidson diagonalization with overlap
     ethr =  4.37E-07,  avg # of iterations =  1.8

     total cpu time spent up to now is       58.2 secs

     total energy              =     -95.78156846 Ry
     estimated scf accuracy    <       0.00005764 Ry

     iteration # 25     ecut=    60.00 Ry     beta= 0.80
     Davidson diagonalization with overlap
     ethr =  1.52E-07,  avg # of iterations =  2.0

     total cpu time spent up to now is       59.2 secs

     total energy              =     -95.78157178 Ry
     estimated scf accuracy    <       0.00000536 Ry

     iteration # 26     ecut=    60.00 Ry     beta= 0.80
     Davidson diagonalization with overlap
     ethr =  1.41E-08,  avg # of iterations =  3.3

     total cpu time spent up to now is       60.2 secs

     total energy              =     -95.78157251 Ry
     estimated scf accuracy    <       0.00000056 Ry

     iteration # 27     ecut=    60.00 Ry     beta= 0.80
     Davidson diagonalization with overlap
     ethr =  1.49E-09,  avg # of iterations =  4.0

     total cpu time spent up to now is       61.4 secs

     total energy              =     -95.78157268 Ry
     estimated scf accuracy    <       0.00000007 Ry

     iteration # 28     ecut=    60.00 Ry     beta= 0.80
     Davidson diagonalization with overlap
     ethr =  1.75E-10,  avg # of iterations =  2.8

     total cpu time spent up to now is       62.5 secs

     End of self-consistent calculation

          k = 0.0000 0.0000 0.0000 (  8675 PWs)   bands (ev):

   -39.9526 -39.9515  -7.6822  -6.7401  -5.6377  -4.6546  -1.0392   1.0252
     3.1766   4.8160   5.3905   5.5655   5.5655   6.1353   6.1353   6.8935
     6.8935   7.1678   7.1678   7.3846   9.3072   9.9562  10.1670

          k = 0.0000 0.0000 0.0674 (  8670 PWs)   bands (ev):

   -39.9527 -39.9512  -7.6822  -6.7401  -5.6377  -4.6546  -1.0385   1.0186
     3.2509   4.4689   5.5655   5.5655   5.9130   6.1353   6.1353   6.8935
     6.8935   6.9975   7.1678   7.1678   9.5642   9.9609  10.1676

          k = 0.0000 0.1433 0.0000 (  8651 PWs)   bands (ev):

   -39.9518 -39.9506  -7.4370  -6.4968  -5.3956  -4.4128  -0.8416   1.2149
     3.3414   3.9548   4.6294   4.9325   4.9983   5.3979   5.6651   5.7244
     5.9431   6.4916   6.8609   7.3017   9.1779   9.4148   9.6856

          k = 0.0000 0.1433 0.0674 (  8642 PWs)   bands (ev):

   -39.9519 -39.9504  -7.4370  -6.4968  -5.3956  -4.4128  -0.8410   1.2087
     3.4048   3.9624   4.5883   4.7096   4.9325   5.5145   5.6651   5.9112
     6.1377   6.4916   6.8609   6.9970   9.1441   9.3137   9.9082

          k = 0.0000 0.2866 0.0000 (  8650 PWs)   bands (ev):

   -39.9504 -39.9492  -6.7107  -5.7780  -4.6829  -3.7012  -0.3841   1.2724
     1.7423   2.3354   3.1081   3.6315   4.0432   4.0670   4.8390   5.5542
     5.7158   5.9755   6.1902   6.7414   8.0096   8.8118   9.3005

          k = 0.0000 0.2866 0.0674 (  8654 PWs)   bands (ev):

   -39.9505 -39.9492  -6.7107  -5.7780  -4.6829  -3.7012  -0.3837   1.2720
     1.7389   2.3354   3.1090   3.6323   4.0432   4.1141   4.8390   5.2911
     5.7158   6.1901   6.4201   6.5370   8.0318   8.8566   9.0684

          k = 0.0000 0.4300 0.0000 (  8688 PWs)   bands (ev):

   -39.9491 -39.9487  -5.5482  -4.6483  -3.5978  -2.6373  -1.1596  -0.5634
     0.4759   1.3147   1.4848   3.0324   3.4425   4.1596   4.2552   5.1474
     5.5928   5.6604   6.3260   6.8127   7.2888   8.1929   8.4357

          k = 0.0000 0.4300 0.0674 (  8675 PWs)   bands (ev):

   -39.9490 -39.9486  -5.5482  -4.6483  -3.5978  -2.6374  -1.1595  -0.5634
     0.4759   1.3147   1.4853   3.0284   3.4425   4.1648   4.2551   5.1475
     5.6444   5.6602   6.1830   6.9216   7.3158   8.0744   8.2894

          k = 0.0000-0.5733 0.0000 (  8694 PWs)   bands (ev):

   -39.9484 -39.9484  -4.3958  -3.8898  -3.1564  -2.2674  -1.6870  -1.2137
    -0.7210  -0.4116   2.5880   2.6127   3.2355   4.0193   4.0522   4.9482
     5.4711   5.6566   6.3227   7.0292   7.4767   7.5552   8.0319

          k = 0.0000-0.5733 0.0674 (  8710 PWs)   bands (ev):

   -39.9487 -39.9485  -4.3958  -3.8898  -3.1564  -2.2674  -1.6871  -1.2137
    -0.7209  -0.4117   2.5874   2.6134   3.2355   4.0196   4.0521   4.9483
     5.4710   5.6428   6.3535   7.0313   7.3182   7.7930   8.0020

          k = 0.1241 0.2150 0.0000 (  8660 PWs)   bands (ev):

   -39.9510 -39.9496  -6.9509  -6.0152  -4.9174  -3.9350  -0.4948   1.5037
     2.4843   2.9502   3.4390   3.8403   3.9934   4.3629   5.1168   5.3148
     5.5069   5.6156   5.8965   7.2139   9.1865   9.7924   9.9228

          k = 0.1241 0.2150 0.0674 (  8643 PWs)   bands (ev):

   -39.9508 -39.9495  -6.9509  -6.0152  -4.9174  -3.9351  -0.4943   1.4994
     2.4854   2.9463   3.4413   3.9024   3.9925   4.3522   5.1001   5.1903
     5.3319   5.6208   6.3645   6.9980   9.2222   9.6473   9.9622

          k = 0.1241 0.3583 0.0000 (  8679 PWs)   bands (ev):

   -39.9496 -39.9488  -6.0009  -5.0804  -3.9982  -3.0163  -0.4596   0.4242
     1.3527   1.4977   2.2070   2.5892   3.1304   3.5708   3.9545   4.6488
     4.7600   5.8380   6.2530   6.8747   8.5583   9.1233   9.4946

          k = 0.1241 0.3583 0.0674 (  8664 PWs)   bands (ev):

   -39.9495 -39.9486  -6.0009  -5.0804  -3.9981  -3.0163  -0.4595   0.4242
     1.3528   1.4978   2.2072   2.5867   3.1284   3.5707   3.9588   4.6702
     4.7660   5.7096   6.4719   6.7223   8.6228   9.1371   9.6537

          k = 0.1241 0.5016 0.0000 (  8686 PWs)   bands (ev):

   -39.9486 -39.9481  -4.6919  -3.8898  -3.0441  -2.1348  -1.3993  -1.2221
    -0.3867   0.3517   1.9822   2.2062   2.7987   3.4087   3.5072   4.3089
     4.4837   6.0181   6.1354   7.2619   8.2179   8.6185   8.7682

          k = 0.1241 0.5016 0.0674 (  8687 PWs)   bands (ev):

   -39.9485 -39.9482  -4.6919  -3.8898  -3.0441  -2.1348  -1.3993  -1.2221
    -0.3867   0.3518   1.9821   2.2061   2.7987   3.4101   3.5063   4.3086
     4.4822   6.0405   6.1099   7.3134   8.0714   8.6532   8.8461

          k = 0.2482 0.4300 0.0000 (  8690 PWs)   bands (ev):

   -39.9487 -39.9481  -4.8690  -3.9962  -3.0009  -1.9766  -1.2523  -0.5561
     0.1033   0.7041   1.4469   1.8395   2.3858   2.5712   2.8719   3.6265
     4.6467   5.8334   6.2178   7.2391   8.7671   8.9637   9.3404

          k = 0.2482 0.4300 0.0674 (  8689 PWs)   bands (ev):

   -39.9487 -39.9480  -4.8690  -3.9962  -3.0009  -1.9766  -1.2523  -0.5561
     0.1033   0.7040   1.4468   1.8396   2.3863   2.5723   2.8716   3.6223
     4.6482   5.8141   6.2726   7.2292   8.3484   9.3010   9.6620

          k = 0.2482 0.5733 0.0000 (  8704 PWs)   bands (ev):

   -39.9482 -39.9480  -3.7169  -3.2907  -2.8095  -1.5833  -1.2719  -1.1075
    -0.6005  -0.4494   1.0126   1.3889   1.6803   2.4368   3.3457   3.4255
     4.3185   5.8809   6.0480   8.0207   8.2045   8.9105   9.4997

          k = 0.2482 0.5733 0.0674 (  8707 PWs)   bands (ev):

   -39.9482 -39.9481  -3.7169  -3.2907  -2.8095  -1.5833  -1.2719  -1.1075
    -0.6005  -0.4494   1.0126   1.3887   1.6805   2.4365   3.3466   3.4253
     4.3183   5.8819   6.0434   7.9412   8.3839   9.0190   9.1807

          k = 0.0000 0.1433-0.0674 (  8642 PWs)   bands (ev):

   -39.9517 -39.9505  -7.4370  -6.4968  -5.3956  -4.4128  -0.8410   1.2087
     3.4063   3.9526   4.5549   4.7907   4.9325   5.4422   5.6651   5.9315
     6.1336   6.4916   6.8608   7.0295   9.0750   9.3427   9.9663

          k = 0.0000 0.2866-0.0674 (  8654 PWs)   bands (ev):

   -39.9505 -39.9492  -6.7107  -5.7780  -4.6829  -3.7012  -0.3837   1.2717
     1.7411   2.3344   3.0998   3.6315   4.0432   4.1322   4.8390   5.3362
     5.7159   6.0828   6.1901   6.8864   8.0086   8.6901   9.2616

          k = 0.0000 0.4300-0.0674 (  8675 PWs)   bands (ev):

   -39.9490 -39.9486  -5.5482  -4.6483  -3.5978  -2.6374  -1.1596  -0.5634
     0.4759   1.3147   1.4859   3.0261   3.4425   4.1624   4.2551   5.1475
     5.6602   5.7041   6.1477   6.8186   7.3043   8.2184   8.3928

          k =-0.1241 0.3583-0.0674 (  8664 PWs)   bands (ev):

   -39.9495 -39.9486  -6.0009  -5.0804  -3.9981  -3.0163  -0.4595   0.4242
     1.3534   1.4979   2.2074   2.5849   3.1264   3.5707   3.9650   4.6681
     4.7581   5.8636   6.1213   6.9457   8.8983   8.9197   9.3250

          k =-0.1241 0.5016-0.0674 (  8687 PWs)   bands (ev):

   -39.9486 -39.9481  -4.6919  -3.8898  -3.0441  -2.1348  -1.3993  -1.2221
    -0.3867   0.3518   1.9826   2.2062   2.7981   3.4087   3.5071   4.3087
     4.4816   6.0171   6.1527   7.3151   7.9163   8.6511   9.1988

     the Fermi energy is     6.7260 ev

!    total energy              =     -95.78157269 Ry
     estimated scf accuracy    <          3.6E-09 Ry
     smearing contrib. (-TS)   =       0.00195713 Ry
     internal energy E=F+TS    =     -95.78352982 Ry

     The total energy is F=E-TS. E is the sum of the following terms:
     one-electron contribution =     -85.98565975 Ry
     hartree contribution      =      57.04140901 Ry
     xc contribution           =     -33.04673849 Ry
     ewald contribution        =     -33.79254059 Ry

     convergence has been achieved in  28 iterations

     Forces acting on atoms (cartesian axes, Ry/au):

     atom    1 type  1   force =     0.00000000    0.00000000   -0.00790554
     atom    2 type  1   force =     0.00000000    0.00000000    0.00790554
     atom    3 type  1   force =    -0.00000000   -0.00000000    0.12491010
     atom    4 type  1   force =     0.00000000    0.00000000   -0.12491010
     atom    5 type  1   force =     0.00000000   -0.00000000   -0.02899814
     atom    6 type  1   force =    -0.00000000   -0.00000000    0.02899814
     atom    7 type  1   force =     0.00000000    0.00000000   -0.01168035
     atom    8 type  1   force =     0.00000000   -0.00000000    0.01168035
     atom    9 type  2   force =     0.00000000    0.00000000    0.03834878
     atom   10 type  2   force =    -0.00000000   -0.00000000   -0.03834878
     The non-local contrib.  to forces
     atom    1 type  1   force =     0.00000000    0.00000000   -0.01255547
     atom    2 type  1   force =     0.00000000   -0.00000000    0.01255547
     atom    3 type  1   force =     0.00000000   -0.00000000    0.09001261
     atom    4 type  1   force =     0.00000000    0.00000000   -0.09001261
     atom    5 type  1   force =     0.00000000    0.00000000   -0.01227593
     atom    6 type  1   force =     0.00000000    0.00000000    0.01227593
     atom    7 type  1   force =     0.00000000    0.00000000    0.01878456
     atom    8 type  1   force =     0.00000000   -0.00000000   -0.01878456
     atom    9 type  2   force =     0.00000000   -0.00000000    0.11866998
     atom   10 type  2   force =     0.00000000    0.00000000   -0.11866998
     The ionic contribution  to forces
     atom    1 type  1   force =    -0.00000003    0.00000002   -2.03486153
     atom    2 type  1   force =     0.00000003   -0.00000002    2.03486153
     atom    3 type  1   force =     0.00000006   -0.00000004    8.24637264
     atom    4 type  1   force =    -0.00000006    0.00000004   -8.24637264
     atom    5 type  1   force =     0.00000006   -0.00000004   -6.80541779
     atom    6 type  1   force =    -0.00000006    0.00000004    6.80541779
     atom    7 type  1   force =     0.00000004   -0.00000002   -3.14529273
     atom    8 type  1   force =    -0.00000004    0.00000002    3.14529273
     atom    9 type  2   force =     0.00000000   -0.00000000    4.42530113
     atom   10 type  2   force =    -0.00000000    0.00000000   -4.42530113
     The local contribution  to forces
     atom    1 type  1   force =     0.00000000   -0.00000000    2.03843559
     atom    2 type  1   force =    -0.00000000    0.00000000   -2.03843559
     atom    3 type  1   force =     0.00000000   -0.00000000   -8.20208757
     atom    4 type  1   force =    -0.00000000    0.00000000    8.20208757
     atom    5 type  1   force =     0.00000001   -0.00000000    6.78791893
     atom    6 type  1   force =    -0.00000001    0.00000000   -6.78791893
     atom    7 type  1   force =     0.00000001   -0.00000000    3.11594337
     atom    8 type  1   force =    -0.00000001    0.00000000   -3.11594337
     atom    9 type  2   force =     0.00000065   -0.00000037   -4.50561067
     atom   10 type  2   force =    -0.00000065    0.00000037    4.50561067
     The core correction contribution to forces
     atom    1 type  1   force =     0.00000000   -0.00000000    0.00113662
     atom    2 type  1   force =    -0.00000000    0.00000000   -0.00113662
     atom    3 type  1   force =    -0.00000000    0.00000000   -0.00940254
     atom    4 type  1   force =     0.00000000   -0.00000000    0.00940254
     atom    5 type  1   force =    -0.00000000    0.00000000    0.00081018
     atom    6 type  1   force =     0.00000000   -0.00000000   -0.00081018
     atom    7 type  1   force =    -0.00000000    0.00000000   -0.00104027
     atom    8 type  1   force =     0.00000000   -0.00000000    0.00104027
     atom    9 type  2   force =     0.00000000    0.00000000    0.00000000
     atom   10 type  2   force =     0.00000000    0.00000000    0.00000000
     The Hubbard contrib.    to forces
     atom    1 type  1   force =     0.00000000    0.00000000    0.00000000
     atom    2 type  1   force =     0.00000000    0.00000000    0.00000000
     atom    3 type  1   force =     0.00000000    0.00000000    0.00000000
     atom    4 type  1   force =     0.00000000    0.00000000    0.00000000
     atom    5 type  1   force =     0.00000000    0.00000000    0.00000000
     atom    6 type  1   force =     0.00000000    0.00000000    0.00000000
     atom    7 type  1   force =     0.00000000    0.00000000    0.00000000
     atom    8 type  1   force =     0.00000000    0.00000000    0.00000000
     atom    9 type  2   force =     0.00000000    0.00000000    0.00000000
     atom   10 type  2   force =     0.00000000    0.00000000    0.00000000
     The SCF correction term to forces
     atom    1 type  1   force =     0.00000000   -0.00000000   -0.00006076
     atom    2 type  1   force =    -0.00000000    0.00000000    0.00006076
     atom    3 type  1   force =    -0.00000000    0.00000000    0.00001496
     atom    4 type  1   force =     0.00000000   -0.00000000   -0.00001496
     atom    5 type  1   force =     0.00000000   -0.00000000   -0.00003352
     atom    6 type  1   force =    -0.00000000    0.00000000    0.00003352
     atom    7 type  1   force =     0.00000000   -0.00000000   -0.00007528
     atom    8 type  1   force =    -0.00000000    0.00000000    0.00007528
     atom    9 type  2   force =     0.00000000   -0.00000000   -0.00001166
     atom   10 type  2   force =    -0.00000000    0.00000000    0.00001166

     Total force =     0.190331     Total SCF correction =     0.000147


     Computing stress (Cartesian axis) and pressure

          total   stress  (Ry/bohr**3)                   (kbar)     P=      473.39
   0.00330817   0.00000000  -0.00000000          486.65        0.00       -0.00
   0.00000000   0.00330817  -0.00000000            0.00      486.65       -0.00
  -0.00000000  -0.00000000   0.00303780           -0.00       -0.00      446.88

     Energy error            =      5.3E-02 Ry
     Gradient error          =      1.2E-01 Ry/Bohr
     Cell gradient error     =      5.3E+01 kbar

     number of scf cycles    =   2
     number of bfgs steps    =   1

     enthalpy           old  =     -91.9110323225 Ry
     enthalpy           new  =     -91.9643204934 Ry

     CASE: enthalpy          _new < enthalpy          _old

     new trust radius        =       0.1725330910 bohr
ibrav =      4
 celldm(1) =      6.42394349
 celldm(3) =      4.87392974
Input lattice vectors:
     1.00854180    -0.00000000    -0.00000000
    -0.50427090     0.87342282     0.00000000
    -0.00000000    -0.00000000     4.91556186
New lattice vectors in INITIAL alat:
     1.00854180     0.00000000     0.00000000
    -0.50427090     0.87342282     0.00000000
     0.00000000     0.00000000     4.91556186
New lattice vectors in NEW alat (for information only):
     1.00000000     0.00000000     0.00000000
    -0.50000000     0.86602540     0.00000000
     0.00000000     0.00000000     4.87392974
Discrepancy in bohr =     0.000000    0.000000    0.000000
     new conv_thr            =       0.0000000011 Ry

     new unit-cell volume =   1118.96121 a.u.^3 (   165.81294 Ang^3 )
     density =      2.38913 g/cm^3

CELL_PARAMETERS (alat=  6.36953620)
   1.008541798   0.000000000   0.000000000
  -0.504270899   0.873422817   0.000000000
   0.000000000   0.000000000   4.915561859

ATOMIC_POSITIONS (crystal)
Si            0.0000000000        0.0000000000        0.4373762488
Si            0.0000000000        0.0000000000        0.5626237512
Si            0.3333333300        0.6666666700        0.7731351372
Si            0.6666666700        0.3333333300        0.2268648628
Si            0.3333333300        0.6666666700        0.2735112237
Si            0.6666666700        0.3333333300        0.7264887763
Si            0.3333333300        0.6666666700        0.3997817244
Si            0.6666666700        0.3333333300        0.6002182756
Li            0.3333333300        0.6666666700        0.9090218794
Li            0.6666666700        0.3333333300        0.0909781206



     Writing config-only to output data dir ./output/SiLi.save/
     NEW-OLD atomic charge density approx. for the potential
     extrapolated charge   37.86037, renormalised to   38.00000

     total cpu time spent up to now is       67.8 secs

     Self-consistent Calculation

     iteration #  1     ecut=    60.00 Ry     beta= 0.80
     Davidson diagonalization with overlap
     c_bands:  1 eigenvalues not converged
     c_bands:  1 eigenvalues not converged
     c_bands:  1 eigenvalues not converged
     c_bands:  1 eigenvalues not converged
     ethr =  1.00E-06,  avg # of iterations = 15.0

     total cpu time spent up to now is       71.0 secs

     total energy              =     -95.69119694 Ry
     estimated scf accuracy    <       0.12371902 Ry

     iteration #  2     ecut=    60.00 Ry     beta= 0.80
     Davidson diagonalization with overlap
     ethr =  3.26E-04,  avg # of iterations = 11.1

     total cpu time spent up to now is       73.2 secs

     total energy              =     -93.72326491 Ry
     estimated scf accuracy    <      64.46630512 Ry

     iteration #  3     ecut=    60.00 Ry     beta= 0.80
     Davidson diagonalization with overlap
     ethr =  3.26E-04,  avg # of iterations = 10.7

     total cpu time spent up to now is       75.3 secs

     total energy              =     -95.81340726 Ry
     estimated scf accuracy    <       0.10892065 Ry

     iteration #  4     ecut=    60.00 Ry     beta= 0.80
     Davidson diagonalization with overlap
     ethr =  2.87E-04,  avg # of iterations =  1.3

     total cpu time spent up to now is       76.2 secs

     total energy              =     -95.81494145 Ry
     estimated scf accuracy    <       0.05053826 Ry

     iteration #  5     ecut=    60.00 Ry     beta= 0.80
     Davidson diagonalization with overlap
     ethr =  1.33E-04,  avg # of iterations =  1.8

     total cpu time spent up to now is       77.1 secs

     total energy              =     -95.81431290 Ry
     estimated scf accuracy    <       0.03005744 Ry

     iteration #  6     ecut=    60.00 Ry     beta= 0.80
     Davidson diagonalization with overlap
     ethr =  7.91E-05,  avg # of iterations =  2.9

     total cpu time spent up to now is       78.1 secs

     total energy              =     -95.81426254 Ry
     estimated scf accuracy    <       0.00962469 Ry

     iteration #  7     ecut=    60.00 Ry     beta= 0.80
     Davidson diagonalization with overlap
     ethr =  2.53E-05,  avg # of iterations =  3.7

     total cpu time spent up to now is       79.1 secs

     total energy              =     -95.81430540 Ry
     estimated scf accuracy    <       0.00252832 Ry

     iteration #  8     ecut=    60.00 Ry     beta= 0.80
     Davidson diagonalization with overlap
     ethr =  6.65E-06,  avg # of iterations =  5.4

     total cpu time spent up to now is       80.2 secs

     total energy              =     -95.81432846 Ry
     estimated scf accuracy    <       0.00074670 Ry

     iteration #  9     ecut=    60.00 Ry     beta= 0.80
     Davidson diagonalization with overlap
     ethr =  1.97E-06,  avg # of iterations =  4.4

     total cpu time spent up to now is       81.2 secs

     total energy              =     -95.81435177 Ry
     estimated scf accuracy    <       0.00009523 Ry

     iteration # 10     ecut=    60.00 Ry     beta= 0.80
     Davidson diagonalization with overlap
     ethr =  2.51E-07,  avg # of iterations =  4.5

     total cpu time spent up to now is       82.3 secs

     total energy              =     -95.81436589 Ry
     estimated scf accuracy    <       0.00000228 Ry

     iteration # 11     ecut=    60.00 Ry     beta= 0.80
     Davidson diagonalization with overlap
     ethr =  6.01E-09,  avg # of iterations =  4.6

     total cpu time spent up to now is       83.5 secs

     total energy              =     -95.81436661 Ry
     estimated scf accuracy    <       0.00000152 Ry

     iteration # 12     ecut=    60.00 Ry     beta= 0.80
     Davidson diagonalization with overlap
     ethr =  3.99E-09,  avg # of iterations =  2.1

     total cpu time spent up to now is       84.4 secs

     total energy              =     -95.81436670 Ry
     estimated scf accuracy    <       0.00000008 Ry

     iteration # 13     ecut=    60.00 Ry     beta= 0.80
     Davidson diagonalization with overlap
     ethr =  2.18E-10,  avg # of iterations =  4.4

     total cpu time spent up to now is       85.5 secs

     total energy              =     -95.81436672 Ry
     estimated scf accuracy    <       0.00000009 Ry

     iteration # 14     ecut=    60.00 Ry     beta= 0.80
     Davidson diagonalization with overlap
     ethr =  2.18E-10,  avg # of iterations =  1.0

     total cpu time spent up to now is       86.3 secs

     total energy              =     -95.81436672 Ry
     estimated scf accuracy    <       0.00000003 Ry

     iteration # 15     ecut=    60.00 Ry     beta= 0.80
     Davidson diagonalization with overlap
     ethr =  7.29E-11,  avg # of iterations =  2.3

     total cpu time spent up to now is       87.3 secs

     total energy              =     -95.81436672 Ry
     estimated scf accuracy    <          1.7E-09 Ry

     iteration # 16     ecut=    60.00 Ry     beta= 0.80
     Davidson diagonalization with overlap
     ethr =  4.54E-12,  avg # of iterations =  4.3

     total cpu time spent up to now is       88.4 secs

     End of self-consistent calculation

          k = 0.0000 0.0000 0.0000 (  8675 PWs)   bands (ev):

   -39.8356 -39.8345  -7.6321  -6.6155  -5.5129  -4.6052  -1.0121   1.0407
     3.1600   4.8907   5.3408   5.5542   5.5542   6.1746   6.1746   7.0718
     7.0718   7.2975   7.2975   7.3750   9.5319  10.1630  10.1887

          k = 0.0000 0.0000 0.0678 (  8670 PWs)   bands (ev):

   -39.8357 -39.8342  -7.6321  -6.6155  -5.5129  -4.6053  -1.0113   1.0332
     3.2356   4.5044   5.5542   5.5542   5.8907   6.1746   6.1746   7.0194
     7.0717   7.0717   7.2975   7.2975   9.7697   9.9662  10.1850

          k = 0.0000 0.1431 0.0000 (  8651 PWs)   bands (ev):

   -39.8348 -39.8336  -7.3877  -6.3732  -5.2713  -4.3640  -0.8153   1.2294
     3.3261   3.9600   4.7001   4.9321   5.0700   5.4411   5.7336   5.7726
     6.0283   6.6544   6.9564   7.2895   9.1920   9.6147   9.7461

          k = 0.0000 0.1431 0.0678 (  8642 PWs)   bands (ev):

   -39.8348 -39.8334  -7.3877  -6.3732  -5.2713  -4.3640  -0.8146   1.2224
     3.3912   3.9676   4.6319   4.7728   4.9321   5.6583   5.7336   5.9680
     6.1351   6.6544   6.9564   7.0095   9.1693   9.4447  10.0013

          k = 0.0000 0.2862 0.0000 (  8650 PWs)   bands (ev):

   -39.8333 -39.8322  -6.6639  -5.6575  -4.5600  -3.6536  -0.3594   1.3040
     1.7515   2.4259   3.2200   3.6736   4.0499   4.0777   4.9247   5.6036
     5.8686   5.9332   6.2662   6.7289   8.0297   8.8648   9.4225

          k = 0.0000 0.2862 0.0678 (  8654 PWs)   bands (ev):

   -39.8334 -39.8323  -6.6639  -5.6575  -4.5600  -3.6536  -0.3588   1.3035
     1.7476   2.4261   3.2221   3.6744   4.0499   4.1250   4.9247   5.3109
     5.8688   6.2661   6.4084   6.5207   8.0448   8.9400   9.1642

          k = 0.0000 0.4293 0.0000 (  8688 PWs)   bands (ev):

   -39.8321 -39.8317  -5.5058  -4.5350  -3.4771  -2.5872  -1.1372  -0.4770
     0.5973   1.3317   1.5459   3.0554   3.4525   4.1806   4.3465   5.2965
     5.5509   5.7309   6.2992   6.8471   7.2955   8.2396   8.5108

          k = 0.0000 0.4293 0.0678 (  8675 PWs)   bands (ev):

   -39.8319 -39.8316  -5.5058  -4.5350  -3.4771  -2.5873  -1.1372  -0.4770
     0.5973   1.3317   1.5465   3.0509   3.4525   4.1863   4.3464   5.2966
     5.6008   5.7307   6.1621   6.9657   7.3115   8.0731   8.3870

          k = 0.0000-0.5725 0.0000 (  8694 PWs)   bands (ev):

   -39.8315 -39.8314  -4.3653  -3.8108  -3.0337  -2.1668  -1.6396  -1.1172
    -0.6552  -0.3391   2.6038   2.6390   3.2466   4.0372   4.1449   5.0962
     5.5404   5.6313   6.2972   7.0366   7.4691   7.5642   8.1067

          k = 0.0000-0.5725 0.0678 (  8710 PWs)   bands (ev):

   -39.8317 -39.8314  -4.3653  -3.8108  -3.0337  -2.1668  -1.6396  -1.1172
    -0.6551  -0.3393   2.6031   2.6398   3.2466   4.0377   4.1449   5.0964
     5.5402   5.6168   6.3292   7.0371   7.3056   7.8133   8.0755

          k = 0.1239 0.2147 0.0000 (  8660 PWs)   bands (ev):

   -39.8339 -39.8326  -6.9032  -5.8936  -4.7941  -3.8871  -0.4699   1.5204
     2.4839   2.9919   3.5326   3.8748   4.0725   4.4254   5.1892   5.3868
     5.5897   5.7296   5.8386   7.1964   9.3041   9.8162   9.9302

          k = 0.1239 0.2147 0.0678 (  8643 PWs)   bands (ev):

   -39.8338 -39.8324  -6.9032  -5.8936  -4.7941  -3.8872  -0.4692   1.5155
     2.4851   2.9879   3.5396   3.9364   4.0717   4.4098   5.1521   5.2359
     5.4205   5.7339   6.3403   6.9928   9.3660   9.6670   9.9795

          k = 0.1239 0.3578 0.0000 (  8679 PWs)   bands (ev):

   -39.8325 -39.8318  -5.9565  -4.9635  -3.8765  -2.9692  -0.4356   0.4821
     1.3691   1.6210   2.2655   2.6338   3.1663   3.6331   4.0501   4.6932
     4.8341   5.8225   6.2386   6.8688   8.6153   9.1351   9.5104

          k = 0.1239 0.3578 0.0678 (  8664 PWs)   bands (ev):

   -39.8325 -39.8316  -5.9565  -4.9635  -3.8765  -2.9693  -0.4354   0.4821
     1.3692   1.6212   2.2654   2.6316   3.1636   3.6330   4.0576   4.7135
     4.8406   5.6922   6.4469   6.7309   8.6484   9.1552   9.7288

          k = 0.1239 0.5009 0.0000 (  8686 PWs)   bands (ev):

   -39.8316 -39.8311  -4.6540  -3.7896  -2.9335  -2.0625  -1.3634  -1.1506
    -0.2585   0.4047   2.0069   2.2274   2.8677   3.4796   3.5762   4.3641
     4.5476   5.9690   6.1129   7.2738   8.2110   8.6232   8.7862

          k = 0.1239 0.5009 0.0678 (  8687 PWs)   bands (ev):

   -39.8316 -39.8311  -4.6540  -3.7895  -2.9335  -2.0625  -1.3634  -1.1507
    -0.2585   0.4047   2.0069   2.2273   2.8676   3.4809   3.5757   4.3639
     4.5456   5.9932   6.0847   7.3258   8.0755   8.6605   8.8514

          k = 0.2479 0.4293 0.0000 (  8690 PWs)   bands (ev):

   -39.8317 -39.8311  -4.8291  -3.8870  -2.8852  -1.9255  -1.2236  -0.4899
     0.2113   0.7928   1.4716   1.9167   2.4132   2.6560   2.9835   3.6437
     4.6815   5.7997   6.1632   7.2622   8.8151   8.9922   9.2862

          k = 0.2479 0.4293 0.0678 (  8689 PWs)   bands (ev):

   -39.8317 -39.8310  -4.8291  -3.8870  -2.8852  -1.9255  -1.2236  -0.4899
     0.2114   0.7927   1.4715   1.9168   2.4135   2.6579   2.9831   3.6389
     4.6830   5.7806   6.2137   7.2642   8.3669   9.2461   9.7123

          k = 0.2479 0.5725 0.0000 (  8704 PWs)   bands (ev):

   -39.8312 -39.8310  -3.6900  -3.2133  -2.7163  -1.4829  -1.1640  -1.0597
    -0.5193  -0.3692   1.0195   1.4450   1.8205   2.5253   3.3728   3.4429
     4.3460   5.8581   6.0176   8.0113   8.1774   8.8898   9.5194

          k = 0.2479 0.5725 0.0678 (  8707 PWs)   bands (ev):

   -39.8312 -39.8311  -3.6900  -3.2133  -2.7162  -1.4829  -1.1639  -1.0598
    -0.5193  -0.3692   1.0195   1.4447   1.8208   2.5248   3.3739   3.4427
     4.3459   5.8592   6.0127   7.9151   8.3760   8.9980   9.1895

          k = 0.0000 0.1431-0.0678 (  8642 PWs)   bands (ev):

   -39.8347 -39.8335  -7.3877  -6.3732  -5.2713  -4.3640  -0.8146   1.2224
     3.3926   3.9585   4.6032   4.8472   4.9321   5.5736   5.7336   6.0134
     6.1174   6.6545   6.9563   7.0445   9.1264   9.4413  10.0577

          k = 0.0000 0.2862-0.0678 (  8654 PWs)   bands (ev):

   -39.8334 -39.8322  -6.6639  -5.6575  -4.5600  -3.6536  -0.3589   1.3031
     1.7500   2.4248   3.2101   3.6741   4.0499   4.1471   4.9247   5.3612
     5.8688   6.0606   6.2660   6.8661   8.0272   8.7910   9.3471

          k = 0.0000 0.4293-0.0678 (  8675 PWs)   bands (ev):

   -39.8320 -39.8316  -5.5058  -4.5350  -3.4771  -2.5873  -1.1372  -0.4770
     0.5973   1.3317   1.5473   3.0481   3.4525   4.1839   4.3464   5.2967
     5.6550   5.7307   6.1387   6.8461   7.3087   8.2548   8.4349

          k =-0.1239 0.3578-0.0678 (  8664 PWs)   bands (ev):

   -39.8324 -39.8316  -5.9565  -4.9635  -3.8765  -2.9693  -0.4355   0.4821
     1.3699   1.6213   2.2660   2.6291   3.1613   3.6330   4.0656   4.7105
     4.8313   5.8429   6.1162   6.9337   8.9047   9.0031   9.3310

          k =-0.1239 0.5009-0.0678 (  8687 PWs)   bands (ev):

   -39.8315 -39.8311  -4.6540  -3.7896  -2.9335  -2.0625  -1.3634  -1.1506
    -0.2586   0.4047   2.0074   2.2275   2.8668   3.4789   3.5768   4.3639
     4.5453   5.9710   6.1257   7.3430   7.8918   8.6575   9.2347

     the Fermi energy is     6.7814 ev

!    total energy              =     -95.81436672 Ry
     estimated scf accuracy    <          3.3E-10 Ry
     smearing contrib. (-TS)   =       0.00028576 Ry
     internal energy E=F+TS    =     -95.81465248 Ry

     The total energy is F=E-TS. E is the sum of the following terms:
     one-electron contribution =     -77.40890769 Ry
     hartree contribution      =      52.81238173 Ry
     xc contribution           =     -33.00334329 Ry
     ewald contribution        =     -38.21478323 Ry

     convergence has been achieved in  16 iterations

     Forces acting on atoms (cartesian axes, Ry/au):

     atom    1 type  1   force =    -0.00000000   -0.00000000   -0.00246399
     atom    2 type  1   force =    -0.00000000   -0.00000000    0.00246399
     atom    3 type  1   force =     0.00000000    0.00000000    0.09377275
     atom    4 type  1   force =     0.00000000    0.00000000   -0.09377275
     atom    5 type  1   force =    -0.00000000   -0.00000000   -0.02772525
     atom    6 type  1   force =     0.00000000   -0.00000000    0.02772525
     atom    7 type  1   force =    -0.00000000    0.00000000   -0.02399379
     atom    8 type  1   force =     0.00000000    0.00000000    0.02399379
     atom    9 type  2   force =     0.00000000    0.00000000    0.05597879
     atom   10 type  2   force =     0.00000000    0.00000000   -0.05597879
     The non-local contrib.  to forces
     atom    1 type  1   force =     0.00000000   -0.00000000   -0.01149411
     atom    2 type  1   force =     0.00000000   -0.00000000    0.01149411
     atom    3 type  1   force =     0.00000000    0.00000000    0.05758556
     atom    4 type  1   force =     0.00000000   -0.00000000   -0.05758556
     atom    5 type  1   force =     0.00000000    0.00000000   -0.00536667
     atom    6 type  1   force =     0.00000000    0.00000000    0.00536667
     atom    7 type  1   force =     0.00000000   -0.00000000    0.01206730
     atom    8 type  1   force =     0.00000000    0.00000000   -0.01206730
     atom    9 type  2   force =     0.00000000   -0.00000000    0.12912606
     atom   10 type  2   force =     0.00000000    0.00000000   -0.12912606
     The ionic contribution  to forces
     atom    1 type  1   force =    -0.00000003    0.00000002   -2.01440688
     atom    2 type  1   force =     0.00000003   -0.00000002    2.01440688
     atom    3 type  1   force =     0.00000006   -0.00000003    7.81117595
     atom    4 type  1   force =    -0.00000006    0.00000003   -7.81117595
     atom    5 type  1   force =     0.00000006   -0.00000003   -6.40918355
     atom    6 type  1   force =    -0.00000006    0.00000003    6.40918355
     atom    7 type  1   force =     0.00000004   -0.00000002   -3.07652245
     atom    8 type  1   force =    -0.00000004    0.00000002    3.07652245
     atom    9 type  2   force =     0.00000000   -0.00000000    4.33961208
     atom   10 type  2   force =    -0.00000000    0.00000000   -4.33961208
     The local contribution  to forces
     atom    1 type  1   force =    -0.00000000   -0.00000000    2.02235874
     atom    2 type  1   force =     0.00000000    0.00000000   -2.02235874
     atom    3 type  1   force =     0.00000001   -0.00000000   -7.76750003
     atom    4 type  1   force =    -0.00000001    0.00000000    7.76750003
     atom    5 type  1   force =     0.00000001   -0.00000000    6.38666060
     atom    6 type  1   force =    -0.00000001    0.00000000   -6.38666060
     atom    7 type  1   force =     0.00000001   -0.00000000    3.04113230
     atom    8 type  1   force =    -0.00000001    0.00000000   -3.04113230
     atom    9 type  2   force =     0.00000065   -0.00000037   -4.41275866
     atom   10 type  2   force =    -0.00000065    0.00000037    4.41275866
     The core correction contribution to forces
     atom    1 type  1   force =     0.00000000   -0.00000000    0.00108770
     atom    2 type  1   force =    -0.00000000    0.00000000   -0.00108770
     atom    3 type  1   force =    -0.00000000    0.00000000   -0.00750841
     atom    4 type  1   force =     0.00000000   -0.00000000    0.00750841
     atom    5 type  1   force =    -0.00000000    0.00000000    0.00018661
     atom    6 type  1   force =     0.00000000   -0.00000000   -0.00018661
     atom    7 type  1   force =    -0.00000000    0.00000000   -0.00065721
     atom    8 type  1   force =     0.00000000   -0.00000000    0.00065721
     atom    9 type  2   force =     0.00000000    0.00000000    0.00000000
     atom   10 type  2   force =     0.00000000    0.00000000    0.00000000
     The Hubbard contrib.    to forces
     atom    1 type  1   force =     0.00000000    0.00000000    0.00000000
     atom    2 type  1   force =     0.00000000    0.00000000    0.00000000
     atom    3 type  1   force =     0.00000000    0.00000000    0.00000000
     atom    4 type  1   force =     0.00000000    0.00000000    0.00000000
     atom    5 type  1   force =     0.00000000    0.00000000    0.00000000
     atom    6 type  1   force =     0.00000000    0.00000000    0.00000000
     atom    7 type  1   force =     0.00000000    0.00000000    0.00000000
     atom    8 type  1   force =     0.00000000    0.00000000    0.00000000
     atom    9 type  2   force =     0.00000000    0.00000000    0.00000000
     atom   10 type  2   force =     0.00000000    0.00000000    0.00000000
     The SCF correction term to forces
     atom    1 type  1   force =    -0.00000000    0.00000000   -0.00000944
     atom    2 type  1   force =     0.00000000   -0.00000000    0.00000944
     atom    3 type  1   force =     0.00000000   -0.00000000    0.00001967
     atom    4 type  1   force =    -0.00000000    0.00000000   -0.00001967
     atom    5 type  1   force =    -0.00000000    0.00000000   -0.00002224
     atom    6 type  1   force =     0.00000000   -0.00000000    0.00002224
     atom    7 type  1   force =    -0.00000000    0.00000000   -0.00001374
     atom    8 type  1   force =     0.00000000   -0.00000000    0.00001374
     atom    9 type  2   force =     0.00000000   -0.00000000   -0.00000069
     atom   10 type  2   force =    -0.00000000    0.00000000    0.00000069

     Total force =     0.162957     Total SCF correction =     0.000048


     Computing stress (Cartesian axis) and pressure

          total   stress  (Ry/bohr**3)                   (kbar)     P=      459.41
   0.00314965   0.00000000   0.00000000          463.33        0.00        0.00
   0.00000000   0.00314965   0.00000000            0.00      463.33        0.00
   0.00000000   0.00000000   0.00306972            0.00        0.00      451.57

     Energy error            =      4.7E-02 Ry
     Gradient error          =      9.4E-02 Ry/Bohr
     Cell gradient error     =      4.8E+01 kbar

     number of scf cycles    =   3
     number of bfgs steps    =   2

     enthalpy           old  =     -91.9643204934 Ry
     enthalpy           new  =     -92.0110948641 Ry

     CASE: enthalpy          _new < enthalpy          _old

     new trust radius        =       0.2571165014 bohr
ibrav =      4
 celldm(1) =      6.40785378
 celldm(3) =      4.84074054
Input lattice vectors:
     1.00601576     0.00000000     0.00000000
    -0.50300788     0.87123520    -0.00000000
     0.00000000     0.00000000     4.86986126
New lattice vectors in INITIAL alat:
     1.00601576     0.00000000     0.00000000
    -0.50300788     0.87123520     0.00000000
     0.00000000     0.00000000     4.86986126
New lattice vectors in NEW alat (for information only):
     1.00000000     0.00000000     0.00000000
    -0.50000000     0.86602540     0.00000000
     0.00000000     0.00000000     4.84074054
Discrepancy in bohr =     0.000000    0.000000    0.000000
     new conv_thr            =       0.0000000009 Ry

     new unit-cell volume =   1103.01195 a.u.^3 (   163.44951 Ang^3 )
     density =      2.42367 g/cm^3

CELL_PARAMETERS (alat=  6.36953620)
   1.006015757   0.000000000   0.000000000
  -0.503007878   0.871235202   0.000000000
   0.000000000   0.000000000   4.869861256

ATOMIC_POSITIONS (crystal)
Si           -0.0000000000       -0.0000000000        0.4363701101
Si           -0.0000000000       -0.0000000000        0.5636298899
Si            0.3333333300        0.6666666700        0.7813471378
Si            0.6666666700        0.3333333300        0.2186528622
Si            0.3333333300        0.6666666700        0.2707944701
Si            0.6666666700        0.3333333300        0.7292055299
Si            0.3333333300        0.6666666700        0.3993737841
Si            0.6666666700        0.3333333300        0.6006262159
Li            0.3333333300        0.6666666700        0.9122556578
Li            0.6666666700        0.3333333300        0.0877443422



     Writing config-only to output data dir ./output/SiLi.save/
     NEW-OLD atomic charge density approx. for the potential
     extrapolated charge   37.45073, renormalised to   38.00000

     total cpu time spent up to now is       93.7 secs

     Self-consistent Calculation

     iteration #  1     ecut=    60.00 Ry     beta= 0.80
     Davidson diagonalization with overlap
     c_bands:  1 eigenvalues not converged
     c_bands:  1 eigenvalues not converged
     c_bands:  1 eigenvalues not converged
     c_bands:  1 eigenvalues not converged
     c_bands:  1 eigenvalues not converged
     c_bands:  1 eigenvalues not converged
     c_bands:  1 eigenvalues not converged
     c_bands:  2 eigenvalues not converged
     c_bands:  2 eigenvalues not converged
     c_bands:  1 eigenvalues not converged
     c_bands:  1 eigenvalues not converged
     c_bands:  1 eigenvalues not converged
     c_bands:  1 eigenvalues not converged
     c_bands:  1 eigenvalues not converged
     c_bands:  1 eigenvalues not converged
     c_bands:  1 eigenvalues not converged
     ethr =  1.00E-06,  avg # of iterations = 18.7

     total cpu time spent up to now is       97.5 secs

     total energy              =     -93.88213234 Ry
     estimated scf accuracy    <       1.96102220 Ry

     iteration #  2     ecut=    60.00 Ry     beta= 0.80
     Davidson diagonalization with overlap
     ethr =  5.16E-03,  avg # of iterations = 10.3

     total cpu time spent up to now is      100.1 secs

     total energy              =     -77.34656173 Ry
     estimated scf accuracy    <     648.77217687 Ry

     iteration #  3     ecut=    60.00 Ry     beta= 0.80
     Davidson diagonalization with overlap
     ethr =  5.16E-03,  avg # of iterations = 10.6

     total cpu time spent up to now is      102.9 secs

     total energy              =     -95.78844686 Ry
     estimated scf accuracy    <       3.48193845 Ry

     iteration #  4     ecut=    60.00 Ry     beta= 0.80
     Davidson diagonalization with overlap
     ethr =  5.16E-03,  avg # of iterations =  1.2

     total cpu time spent up to now is      103.8 secs

     total energy              =     -95.82595627 Ry
     estimated scf accuracy    <       1.33200191 Ry

     iteration #  5     ecut=    60.00 Ry     beta= 0.80
     Davidson diagonalization with overlap
     ethr =  3.51E-03,  avg # of iterations =  1.0

     total cpu time spent up to now is      104.6 secs

     total energy              =     -95.81450355 Ry
     estimated scf accuracy    <       0.69940078 Ry

     iteration #  6     ecut=    60.00 Ry     beta= 0.80
     Davidson diagonalization with overlap
     ethr =  1.84E-03,  avg # of iterations =  1.8

     total cpu time spent up to now is      105.5 secs

     total energy              =     -95.81594053 Ry
     estimated scf accuracy    <       0.22500643 Ry

     iteration #  7     ecut=    60.00 Ry     beta= 0.80
     Davidson diagonalization with overlap
     ethr =  5.92E-04,  avg # of iterations =  4.6

     total cpu time spent up to now is      106.6 secs

     total energy              =     -95.81726458 Ry
     estimated scf accuracy    <       0.07353535 Ry

     iteration #  8     ecut=    60.00 Ry     beta= 0.80
     Davidson diagonalization with overlap
     ethr =  1.94E-04,  avg # of iterations =  5.4

     total cpu time spent up to now is      107.7 secs

     total energy              =     -95.81981447 Ry
     estimated scf accuracy    <       0.00999572 Ry

     iteration #  9     ecut=    60.00 Ry     beta= 0.80
     Davidson diagonalization with overlap
     c_bands:  1 eigenvalues not converged
     ethr =  2.63E-05,  avg # of iterations =  6.0

     total cpu time spent up to now is      108.9 secs

     total energy              =     -95.82027832 Ry
     estimated scf accuracy    <       0.00181639 Ry

     iteration # 10     ecut=    60.00 Ry     beta= 0.80
     Davidson diagonalization with overlap
     c_bands:  2 eigenvalues not converged
     ethr =  4.78E-06,  avg # of iterations =  6.3

     total cpu time spent up to now is      110.2 secs

     total energy              =     -95.82043958 Ry
     estimated scf accuracy    <       0.00008713 Ry

     iteration # 11     ecut=    60.00 Ry     beta= 0.80
     Davidson diagonalization with overlap
     ethr =  2.29E-07,  avg # of iterations =  4.4

     total cpu time spent up to now is      111.3 secs

     total energy              =     -95.82045371 Ry
     estimated scf accuracy    <       0.00002827 Ry

     iteration # 12     ecut=    60.00 Ry     beta= 0.80
     Davidson diagonalization with overlap
     ethr =  7.44E-08,  avg # of iterations =  2.4

     total cpu time spent up to now is      112.3 secs

     total energy              =     -95.82045672 Ry
     estimated scf accuracy    <       0.00000738 Ry

     iteration # 13     ecut=    60.00 Ry     beta= 0.80
     Davidson diagonalization with overlap
     ethr =  1.94E-08,  avg # of iterations =  1.7

     total cpu time spent up to now is      113.2 secs

     total energy              =     -95.82045690 Ry
     estimated scf accuracy    <       0.00000140 Ry

     iteration # 14     ecut=    60.00 Ry     beta= 0.80
     Davidson diagonalization with overlap
     ethr =  3.68E-09,  avg # of iterations =  3.6

     total cpu time spent up to now is      114.3 secs

     total energy              =     -95.82045710 Ry
     estimated scf accuracy    <       0.00000008 Ry

     iteration # 15     ecut=    60.00 Ry     beta= 0.80
[...]
     estimated scf accuracy    <       0.00096120 Ry

     iteration # 19     ecut=    60.00 Ry     beta= 0.80
     Davidson diagonalization with overlap
     ethr =  2.53E-06,  avg # of iterations =  2.0

     total cpu time spent up to now is      800.6 secs

     total energy              =     -95.88463865 Ry
     estimated scf accuracy    <       0.00243605 Ry

     iteration # 20     ecut=    60.00 Ry     beta= 0.80
     Davidson diagonalization with overlap
     ethr =  2.53E-06,  avg # of iterations =  1.5

     total cpu time spent up to now is      801.2 secs

     total energy              =     -95.88468035 Ry
     estimated scf accuracy    <       0.00011137 Ry

     iteration # 21     ecut=    60.00 Ry     beta= 0.80
     Davidson diagonalization with overlap
     ethr =  2.93E-07,  avg # of iterations =  3.0

     total cpu time spent up to now is      801.9 secs

     total energy              =     -95.88469076 Ry
     estimated scf accuracy    <       0.00005271 Ry

     iteration # 22     ecut=    60.00 Ry     beta= 0.80
     Davidson diagonalization with overlap
     ethr =  1.39E-07,  avg # of iterations =  1.2

     total cpu time spent up to now is      802.5 secs

     total energy              =     -95.88469143 Ry
     estimated scf accuracy    <       0.00000821 Ry

     iteration # 23     ecut=    60.00 Ry     beta= 0.80
     Davidson diagonalization with overlap
     ethr =  2.16E-08,  avg # of iterations =  2.6

     total cpu time spent up to now is      803.2 secs

     total energy              =     -95.88469191 Ry
     estimated scf accuracy    <       0.00000076 Ry

     iteration # 24     ecut=    60.00 Ry     beta= 0.80
     Davidson diagonalization with overlap
     ethr =  1.99E-09,  avg # of iterations =  3.6

     total cpu time spent up to now is      803.9 secs

     total energy              =     -95.88469198 Ry
     estimated scf accuracy    <       0.00000036 Ry

     iteration # 25     ecut=    60.00 Ry     beta= 0.80
     Davidson diagonalization with overlap
     ethr =  9.52E-10,  avg # of iterations =  2.3

     total cpu time spent up to now is      804.6 secs

     total energy              =     -95.88469202 Ry
     estimated scf accuracy    <       0.00000023 Ry

     iteration # 26     ecut=    60.00 Ry     beta= 0.80
     Davidson diagonalization with overlap
     ethr =  6.02E-10,  avg # of iterations =  1.0

     total cpu time spent up to now is      805.1 secs

     total energy              =     -95.88469202 Ry
     estimated scf accuracy    <       0.00000006 Ry

     iteration # 27     ecut=    60.00 Ry     beta= 0.80
     Davidson diagonalization with overlap
     ethr =  1.69E-10,  avg # of iterations =  2.4

     total cpu time spent up to now is      805.8 secs

     total energy              =     -95.88469202 Ry
     estimated scf accuracy    <          8.8E-09 Ry

     iteration # 28     ecut=    60.00 Ry     beta= 0.80
     Davidson diagonalization with overlap
     ethr =  2.32E-11,  avg # of iterations =  2.8

     total cpu time spent up to now is      806.5 secs

     total energy              =     -95.88469202 Ry
     estimated scf accuracy    <          6.9E-10 Ry

     iteration # 29     ecut=    60.00 Ry     beta= 0.80
     Davidson diagonalization with overlap
     ethr =  1.80E-12,  avg # of iterations =  4.2

     total cpu time spent up to now is      807.2 secs

     total energy              =     -95.88469202 Ry
     estimated scf accuracy    <          1.2E-10 Ry

     iteration # 30     ecut=    60.00 Ry     beta= 0.80
     Davidson diagonalization with overlap
     ethr =  3.07E-13,  avg # of iterations =  3.0

     total cpu time spent up to now is      807.9 secs

     total energy              =     -95.88469202 Ry
     estimated scf accuracy    <          1.5E-10 Ry

     iteration # 31     ecut=    60.00 Ry     beta= 0.80
     Davidson diagonalization with overlap
     ethr =  3.07E-13,  avg # of iterations =  1.4

     total cpu time spent up to now is      808.5 secs

     End of self-consistent calculation

          k = 0.0000 0.0000 0.0000 (  5605 PWs)   bands (ev):

   -32.4382 -32.2291  -3.7798  -3.5197  -3.1278  -2.6826  -1.0024  -0.0637
     1.1066   2.3897   4.5489   6.1335   7.9436  10.0957  10.6518  13.0168
    14.5608  17.5783  19.0551  22.0620  24.2453  26.0181  26.0285

          k = 0.0000 0.0000 0.0542 (  5574 PWs)   bands (ev):

   -32.4380 -32.2285  -3.7799  -3.5195  -3.1281  -2.6823  -1.0029  -0.0626
     1.1054   2.3903   4.5518   6.1180   8.0031   9.7809  11.1242  12.5828
    15.0145  17.0110  19.7567  21.3937  25.0218  26.0168  26.0288

          k = 0.0000 0.2016 0.0000 (  5579 PWs)   bands (ev):

   -32.4072 -32.2134  -3.2625  -3.0036  -2.6136  -2.1700  -0.4929   0.4410
     1.6063   2.8871   5.0222   6.5993   8.3739  10.5268  10.9568  13.4294
    14.8822  17.8481  18.9765  20.3663  20.5750  20.7638  21.1925

          k = 0.0000 0.2016 0.0542 (  5580 PWs)   bands (ev):

   -32.4072 -32.2134  -3.2625  -3.0034  -2.6140  -2.1697  -0.4934   0.4420
     1.6053   2.8873   5.0268   6.5786   8.4496  10.1395  11.5052  12.9555
    15.3789  17.2404  19.5004  20.3729  20.5672  20.9120  21.1538

          k = 0.0000 0.4031 0.0000 (  5544 PWs)   bands (ev):

   -32.3304 -32.1781  -1.7199  -1.4652  -1.0809  -0.6419   1.0244   1.9426
     3.0900   4.3580   6.4300   7.9722   9.5921  11.6851  11.8106  13.6392
    14.2090  14.6422  15.2246  15.5338  16.2189  16.4244  17.5533

          k = 0.0000 0.4031 0.0542 (  5551 PWs)   bands (ev):

   -32.3307 -32.1780  -1.7200  -1.4650  -1.0813  -0.6416   1.0241   1.9432
     3.0901   4.3561   6.4421   7.9284   9.7322  11.0946  12.5265  13.4790
    14.0609  14.6287  15.2476  15.3532  16.3029  17.0513  17.1942

          k = 0.0000 0.6047 0.0000 (  5526 PWs)   bands (ev):

   -32.2471 -32.1493   0.8191   1.0663   1.4398   1.8700   3.5106   4.3919
     5.4850   6.6694   8.5845   8.7283   8.9987   9.2830   9.4919  10.4647
    11.4848  11.9914  12.4181  13.2424  13.3548  14.1603  14.9704

          k = 0.0000 0.6047 0.0542 (  5522 PWs)   bands (ev):

   -32.2471 -32.1492   0.8191   1.0664   1.4397   1.8701   3.5108   4.3907
     5.4888   6.6626   8.5960   8.7288   9.0236   9.2707   9.4797  10.3912
    11.5539  12.2312  12.4290  12.7257  13.4126  14.3973  15.1222

          k = 0.0000-0.8063 0.0000 (  5528 PWs)   bands (ev):

   -32.2064 -32.1435   4.2692   4.2940   4.4754   4.5826   4.8366   4.8986
     5.2611   5.3330   6.8536   7.0171   7.7086   7.9690   8.4535   9.2843
    10.2769  10.6766  12.0882  12.1787  12.8161  13.6290  14.6271

          k = 0.0000-0.8063 0.0542 (  5548 PWs)   bands (ev):

   -32.2068 -32.1436   4.2689   4.2942   4.4751   4.5835   4.8353   4.8991
     5.2595   5.3348   6.8557   7.0145   7.7184   7.9378   8.5031   9.2320
    10.3212  10.6696  12.0264  12.1813  12.9939  13.3925  14.8682

          k = 0.1746 0.3024 0.0000 (  5577 PWs)   bands (ev):

   -32.3536 -32.1884  -2.2325  -1.9764  -1.5902  -1.1496   0.5205   1.4443
     2.5982   3.8718   5.9636   7.5212   9.2061  11.3507  11.5669  14.1080
    15.3238  17.1076  17.3638  17.5964  17.7401  18.1143  18.3302

          k = 0.1746 0.3024 0.0542 (  5577 PWs)   bands (ev):

   -32.3537 -32.1883  -2.2326  -1.9762  -1.5906  -1.1493   0.5200   1.4452
     2.5975   3.8712   5.9719   7.4882   9.3188  10.8183  12.2692  13.5717
    15.8225  16.8712  17.4696  17.6362  17.7324  18.0792  18.1490

          k = 0.1746 0.5039 0.0000 (  5520 PWs)   bands (ev):

   -32.2731 -32.1562  -0.1916   0.0588   0.4369   0.8710   2.5243   3.4240
     4.5472   5.7897   7.8098   9.2726  10.5758  11.4721  11.6093  12.2074
    12.8145  13.0919  13.6194  14.2072  14.7931  15.1371  15.5561

          k = 0.1746 0.5039 0.0542 (  5519 PWs)   bands (ev):

   -32.2731 -32.1561  -0.1916   0.0590   0.4366   0.8712   2.5241   3.4240
     4.5486   5.7853   7.8309   9.2011  10.7526  11.3652  11.6392  12.1238
    12.6569  13.0952  14.0242  14.3143  14.6150  14.9142  15.5669

          k = 0.1746 0.7055 0.0000 (  5518 PWs)   bands (ev):

   -32.2075 -32.1425   2.8201   3.0598   3.4224   3.8433   5.4189   6.1819
     6.7636   6.9529   7.2169   7.4030   7.9539   8.7868   9.2668  10.0628
    11.0334  11.5059  12.1592  12.4673  13.2570  13.7874  14.2319

          k = 0.1746 0.7055 0.0542 (  5517 PWs)   bands (ev):

   -32.2075 -32.1424   2.8201   3.0598   3.4223   3.8432   5.4194   6.1810
     6.7624   6.9538   7.2185   7.3962   7.9760   8.7535   9.2581  10.1335
    10.9879  11.4725  12.1280  12.5270  13.3888  13.6455  14.2622

          k = 0.3491 0.6047 0.0000 (  5518 PWs)   bands (ev):

   -32.2085 -32.1420   2.3235   2.5656   2.9319   3.3562   4.9754   5.8298
     6.8814   8.0000   9.8810  10.0997  10.1809  10.3058  10.4245  10.5708
    10.6639  10.7892  11.1181  11.9022  12.6441  13.0850  13.3119

          k = 0.3491 0.6047 0.0542 (  5515 PWs)   bands (ev):

   -32.2084 -32.1420   2.3234   2.5659   2.9315   3.3565   4.9752   5.8293
     6.8840   7.9944   9.9001  10.0995  10.1791  10.3014  10.4674  10.5543
    10.6168  10.7737  11.1635  11.8344  12.6821  13.0941  13.4019

          k = 0.3491 0.8063 0.0000 (  5506 PWs)   bands (ev):

   -32.1722 -32.1453   5.7319   5.7606   5.9357   6.0433   6.2776   6.3545
     6.7081   6.7797   8.2146   8.3771   8.9622   9.3383   9.6110   9.7763
     9.9372  10.2257  10.2439  10.9359  11.5686  12.2052  12.2658

          k = 0.3491 0.8063 0.0542 (  5511 PWs)   bands (ev):

   -32.1722 -32.1455   5.7316   5.7611   5.9348   6.0448   6.2753   6.3563
     6.7059   6.7817   8.2170   8.3730   8.9770   9.3011   9.6326   9.7744
     9.9535  10.2233  10.2436  10.9137  11.5897  12.1835  12.2723

          k = 0.0000 0.2016-0.0542 (  5580 PWs)   bands (ev):

   -32.4073 -32.2134  -3.2625  -3.0034  -2.6140  -2.1696  -0.4935   0.4421
     1.6051   2.8875   5.0266   6.5792   8.4484  10.1416  11.5033  12.9553
    15.3851  17.2192  19.6696  20.1773  20.5208  20.8214  21.2824

          k = 0.0000 0.4031-0.0542 (  5551 PWs)   bands (ev):

   -32.3306 -32.1782  -1.7200  -1.4649  -1.0814  -0.6415   1.0238   1.9439
     3.0889   4.3575   6.4391   7.9343   9.7217  11.0987  12.6097  13.2785
    14.1353  14.7306  15.2271  15.4499  16.1552  16.6618  17.8825

          k = 0.0000 0.6047-0.0542 (  5522 PWs)   bands (ev):

   -32.2472 -32.1491   0.8190   1.0667   1.4390   1.8707   3.5096   4.3936
     5.4841   6.6676   8.5979   8.7276   9.0121   9.3249   9.4001  10.4833
    11.4916  12.0703  12.4093  13.0063  13.5592  13.9464  15.5265

          k =-0.1746 0.5039-0.0542 (  5519 PWs)   bands (ev):

   -32.2730 -32.1562  -0.1917   0.0591   0.4363   0.8714   2.5237   3.4250
     4.5470   5.7874   7.8267   9.2079  10.7587  11.3837  11.5660  12.1054
    12.8027  13.1546  13.7250  14.2381  14.8463  15.0176  15.4889

          k =-0.1746 0.7055-0.0542 (  5517 PWs)   bands (ev):

   -32.2075 -32.1425   2.8199   3.0603   3.4215   3.8440   5.4181   6.1826
     6.7640   6.9543   7.2192   7.3953   7.9641   8.7570   9.2971  10.0689
    10.9964  11.5198  12.2027  12.4403  13.1673  14.0249  14.1363

     the Fermi energy is    13.3761 ev

!    total energy              =     -95.88469202 Ry
     estimated scf accuracy    <          1.4E-12 Ry
     smearing contrib. (-TS)   =      -0.00041955 Ry
     internal energy E=F+TS    =     -95.88427247 Ry

     The total energy is F=E-TS. E is the sum of the following terms:
     one-electron contribution =      32.37640977 Ry
     hartree contribution      =       6.28248953 Ry
     xc contribution           =     -33.73677039 Ry
     ewald contribution        =    -100.80640138 Ry

     convergence has been achieved in  31 iterations

     Forces acting on atoms (cartesian axes, Ry/au):

     atom    1 type  1   force =     0.00000000   -0.00000000    0.00011469
     atom    2 type  1   force =    -0.00000000    0.00000000   -0.00011469
     atom    3 type  1   force =    -0.00000000   -0.00000000   -0.00056606
     atom    4 type  1   force =     0.00000000    0.00000000    0.00056606
     atom    5 type  1   force =     0.00000000    0.00000000   -0.00067298
     atom    6 type  1   force =     0.00000000    0.00000000    0.00067298
     atom    7 type  1   force =    -0.00000000   -0.00000000    0.00027457
     atom    8 type  1   force =     0.00000000    0.00000000   -0.00027457
     atom    9 type  2   force =     0.00000000    0.00000000   -0.00121961
     atom   10 type  2   force =    -0.00000000    0.00000000    0.00121961
     The non-local contrib.  to forces
     atom    1 type  1   force =     0.00000000    0.00000000   -0.07442318
     atom    2 type  1   force =     0.00000000    0.00000000    0.07442318
     atom    3 type  1   force =     0.00000000    0.00000000   -0.10418853
     atom    4 type  1   force =     0.00000000    0.00000000    0.10418853
     atom    5 type  1   force =     0.00000000    0.00000000   -0.06476671
     atom    6 type  1   force =     0.00000000   -0.00000000    0.06476671
     atom    7 type  1   force =     0.00000000   -0.00000000    0.08228206
     atom    8 type  1   force =     0.00000000   -0.00000000   -0.08228206
     atom    9 type  2   force =    -0.00000000   -0.00000000    0.00980252
     atom   10 type  2   force =     0.00000000    0.00000000   -0.00980252
     The ionic contribution  to forces
     atom    1 type  1   force =    -0.00000000    0.00000000    0.51755680
     atom    2 type  1   force =     0.00000000   -0.00000000   -0.51755680
     atom    3 type  1   force =     0.00000001   -0.00000000    0.00264715
     atom    4 type  1   force =    -0.00000001    0.00000000   -0.00264715
     atom    5 type  1   force =     0.00000000   -0.00000000    0.99500491
     atom    6 type  1   force =    -0.00000000    0.00000000   -0.99500491
     atom    7 type  1   force =     0.00000000   -0.00000000   -0.10101763
     atom    8 type  1   force =    -0.00000000    0.00000000    0.10101763
     atom    9 type  2   force =     0.00000001   -0.00000000   -0.49682774
     atom   10 type  2   force =    -0.00000001    0.00000000    0.49682774
     The local contribution  to forces
     atom    1 type  1   force =    -0.00000000   -0.00000000   -0.44681995
     atom    2 type  1   force =    -0.00000000    0.00000000    0.44681995
     atom    3 type  1   force =    -0.00000001    0.00000001    0.09665660
     atom    4 type  1   force =     0.00000001   -0.00000001   -0.09665660
     atom    5 type  1   force =    -0.00000001    0.00000000   -0.93381196
     atom    6 type  1   force =     0.00000001   -0.00000000    0.93381196
     atom    7 type  1   force =    -0.00000001    0.00000000    0.02315011
     atom    8 type  1   force =     0.00000001   -0.00000000   -0.02315011
     atom    9 type  2   force =     0.00000044   -0.00000026    0.48580497
     atom   10 type  2   force =    -0.00000044    0.00000026   -0.48580497
     The core correction contribution to forces
     atom    1 type  1   force =     0.00000000   -0.00000000    0.00380224
     atom    2 type  1   force =    -0.00000000    0.00000000   -0.00380224
     atom    3 type  1   force =    -0.00000000    0.00000000    0.00432030
     atom    4 type  1   force =     0.00000000   -0.00000000   -0.00432030
     atom    5 type  1   force =    -0.00000000    0.00000000    0.00290044
     atom    6 type  1   force =     0.00000000   -0.00000000   -0.00290044
     atom    7 type  1   force =    -0.00000000    0.00000000   -0.00413891
     atom    8 type  1   force =     0.00000000   -0.00000000    0.00413891
     atom    9 type  2   force =     0.00000000    0.00000000    0.00000000
     atom   10 type  2   force =     0.00000000    0.00000000    0.00000000
     The Hubbard contrib.    to forces
     atom    1 type  1   force =     0.00000000    0.00000000    0.00000000
     atom    2 type  1   force =     0.00000000    0.00000000    0.00000000
     atom    3 type  1   force =     0.00000000    0.00000000    0.00000000
     atom    4 type  1   force =     0.00000000    0.00000000    0.00000000
     atom    5 type  1   force =     0.00000000    0.00000000    0.00000000
     atom    6 type  1   force =     0.00000000    0.00000000    0.00000000
     atom    7 type  1   force =     0.00000000    0.00000000    0.00000000
     atom    8 type  1   force =     0.00000000    0.00000000    0.00000000
     atom    9 type  2   force =     0.00000000    0.00000000    0.00000000
     atom   10 type  2   force =     0.00000000    0.00000000    0.00000000
     The SCF correction term to forces
     atom    1 type  1   force =    -0.00000000   -0.00000000   -0.00000122
     atom    2 type  1   force =    -0.00000000    0.00000000    0.00000122
     atom    3 type  1   force =    -0.00000000    0.00000000   -0.00000159
     atom    4 type  1   force =     0.00000000   -0.00000000    0.00000159
     atom    5 type  1   force =     0.00000000   -0.00000000    0.00000034
     atom    6 type  1   force =    -0.00000000    0.00000000   -0.00000034
     atom    7 type  1   force =     0.00000000   -0.00000000   -0.00000107
     atom    8 type  1   force =    -0.00000000    0.00000000    0.00000107
     atom    9 type  2   force =    -0.00000000    0.00000000    0.00000064
     atom   10 type  2   force =     0.00000000   -0.00000000   -0.00000064

     Total force =     0.002168     Total SCF correction =     0.000003


     Computing stress (Cartesian axis) and pressure

          total   stress  (Ry/bohr**3)                   (kbar)     P=      512.44
   0.00338132   0.00000000   0.00000000          497.41        0.00        0.00
   0.00000000   0.00338132   0.00000000            0.00      497.41        0.00
   0.00000000   0.00000000   0.00368783            0.00        0.00      542.50


     Writing all to output data dir ./output/SiLi.save/

     init_run     :      2.24s CPU      2.73s WALL (       2 calls)
     electrons    :    653.44s CPU    674.05s WALL (      28 calls)
     update_pot   :     18.41s CPU     18.64s WALL (      26 calls)
     forces       :     15.79s CPU     16.12s WALL (      28 calls)
     stress       :     95.30s CPU     98.34s WALL (      28 calls)

     Called by init_run:
     wfcinit      :      0.87s CPU      0.90s WALL (       2 calls)
     potinit      :      0.52s CPU      0.78s WALL (       2 calls)
     hinit0       :      0.77s CPU      0.88s WALL (       2 calls)

     Called by electrons:
     c_bands      :    595.98s CPU    612.73s WALL (     564 calls)
     sum_band     :     50.81s CPU     52.64s WALL (     564 calls)
     v_of_rho     :      5.95s CPU      7.35s WALL (     592 calls)
     mix_rho      :      0.78s CPU      0.97s WALL (     564 calls)

     Called by c_bands:
     init_us_2    :     12.45s CPU     13.61s WALL (   29650 calls)
     init_us_2:cp :     12.39s CPU     13.57s WALL (   29650 calls)
     cegterg      :    544.35s CPU    555.74s WALL (   14119 calls)

     Called by *egterg:
     cdiaghg      :     43.14s CPU     44.10s WALL (   76831 calls)
     h_psi        :    408.88s CPU    417.93s WALL (   77534 calls)
     g_psi        :      2.56s CPU      2.64s WALL (   63365 calls)

     Called by h_psi:
     h_psi:calbec :     74.72s CPU     76.01s WALL (   77534 calls)
     vloc_psi     :    271.74s CPU    278.66s WALL (   77534 calls)
     add_vuspsi   :     60.84s CPU     61.64s WALL (   77534 calls)

     General routines
     calbec       :     82.35s CPU     83.79s WALL (   81034 calls)
     fft          :      2.66s CPU      4.19s WALL (    6618 calls)
     ffts         :      0.22s CPU      0.31s WALL (     564 calls)
     fftw         :    261.31s CPU    267.73s WALL ( 2363272 calls)

     Parallel routines

     PWSCF        :  13m 5.86s CPU  13m31.43s WALL


   This run was terminated on:  23:42:24  21Jan2025            

=------------------------------------------------------------------------------=
   JOB DONE.
=------------------------------------------------------------------------------=
