
     Program PWSCF v.7.2 starts on 22Jan2025 at 10:45:32 

     This program is part of the open-source Quantum ESPRESSO suite
     for quantum simulation of materials; please cite
         "P. Giannozzi et al., J. Phys.:Condens. Matter 21 395502 (2009);
         "P. Giannozzi et al., J. Phys.:Condens. Matter 29 465901 (2017);
         "P. Giannozzi et al., J. Chem. Phys. 152 154105 (2020);
          URL http://www.quantum-espresso.org", 
     in publications or presentations arising from this work. More details at
     http://www.quantum-espresso.org/quote

     Parallel version (MPI & OpenMP), running on       8 processor cores
     Number of MPI processes:                 8
     Threads/MPI process:                     1

     MPI processes distributed on     1 nodes
     481750 MiB available memory on the printing compute node when the environment starts

     Waiting for input...
     Reading input from standard input

     Current dimensions of program PWSCF are:
     Max number of different atomic species (ntypx) = 10
     Max number of k-points (npk) =  40000
     Max angular momentum in pseudopotentials (lmaxx) =  4

     R & G space division:  proc/nbgrp/npool/nimage =       8
     Subspace diagonalization in iterative solution of the eigenvalue problem:
     a serial algorithm will be used


     Parallelization info
     --------------------
     sticks:   dense  smooth     PW     G-vecs:    dense   smooth      PW
     Min         166     166     47                 4377     4377     669
     Max         167     167     48                 4378     4378     670
     Sum        1333    1333    379                35019    35019    5355

     Using Slab Decomposition



     bravais-lattice index     =            4
     lattice parameter (alat)  =       8.9380  a.u.
     unit-cell volume          =     557.8327 (a.u.)^3
     number of atoms/cell      =           10
     number of atomic types    =            2
     number of electrons       =        32.00
     number of Kohn-Sham states=           20
     kinetic-energy cutoff     =      60.0000  Ry
     charge density cutoff     =     240.0000  Ry
     scf convergence threshold =      1.0E-08
     mixing beta               =       0.8000
     number of iterations used =            8  plain     mixing
     energy convergence thresh.=      5.0E-03
     force convergence thresh. =      1.0E-02
     press convergence thresh. =      2.0E+00
     Exchange-correlation= PBE
                           (   1   4   3   4   0   0   0)
     nstep                     =           50


     celldm(1)=   8.937950  celldm(2)=   0.000000  celldm(3)=   0.902110
     celldm(4)=   0.000000  celldm(5)=   0.000000  celldm(6)=   0.000000

     crystal axes: (cart. coord. in units of alat)
               a(1) = (   1.000000   0.000000   0.000000 )  
               a(2) = (  -0.500000   0.866025   0.000000 )  
               a(3) = (   0.000000   0.000000   0.902110 )  

     reciprocal axes: (cart. coord. in units 2 pi/alat)
               b(1) = (  1.000000  0.577350 -0.000000 )  
               b(2) = (  0.000000  1.154701  0.000000 )  
               b(3) = (  0.000000 -0.000000  1.108512 )  


     PseudoPot. # 1 for Si read from file:
     ../pseudo/Si_ONCV_PBE_sr.upf
     MD5 check sum: e543d271109d17c80368dfa7c482276d
     Pseudo is Norm-conserving + core correction, Zval =  4.0
     Generated using ONCVPSP code by D. R. Hamann
     Using radial grid of 1510 points,  6 beta functions with: 
                l(1) =   0
                l(2) =   0
                l(3) =   1
                l(4) =   1
                l(5) =   2
                l(6) =   2

     PseudoPot. # 2 for Li read from file:
     ../pseudo/Li_ONCV_PBE_sr.upf
     MD5 check sum: 50ff420e78310ffa21704f3361e624a4
     Pseudo is Norm-conserving, Zval =  3.0
     Generated using ONCVPSP code by D. R. Hamann
     Using radial grid of 1944 points,  4 beta functions with: 
                l(1) =   0
                l(2) =   0
                l(3) =   1
                l(4) =   1

     atomic species   valence    mass     pseudopotential
        Si             4.00    28.08550     Si( 1.00)
        Li             3.00     6.94100     Li( 1.00)

      3 Sym. Ops. (no inversion) found



   Cartesian axes

     site n.     atom                  positions (alat units)
         1           Si  tau(   1) = (  -0.0000000   0.5773503   0.1252399  )
         2           Si  tau(   2) = (   0.5000000   0.2886751   0.5686036  )
         3           Li  tau(   3) = (  -0.2634990   0.6259759   0.5788154  )
         4           Li  tau(   4) = (   0.0896385   0.3248406   0.5788154  )
         5           Li  tau(   5) = (   0.1738605   0.7812343   0.5788154  )
         6           Li  tau(   6) = (   0.3587465   0.0754080   0.1170722  )
         7           Li  tau(   7) = (   0.7553215   0.2729796   0.1170722  )
         8           Li  tau(   8) = (   0.3859320   0.5176378   0.1170722  )
         9           Li  tau(   9) = (   0.0000000   0.0000000   0.0501095  )
        10           Li  tau(  10) = (   0.0000000   0.0000000   0.3341136  )

     number of k points=    41  Marzari-Vanderbilt smearing, width (Ry)=  0.0200
                       cart. coord. in units 2pi/alat
        k(    1) = (   0.0000000   0.0000000   0.0000000), wk =   0.0088889
        k(    2) = (   0.0000000   0.0000000   0.1231680), wk =   0.0177778
        k(    3) = (   0.0000000   0.0000000   0.2463361), wk =   0.0177778
        k(    4) = (   0.0000000   0.0000000   0.3695041), wk =   0.0177778
        k(    5) = (   0.0000000   0.0000000   0.4926721), wk =   0.0177778
        k(    6) = (   0.0000000   0.2309401   0.0000000), wk =   0.0533333
        k(    7) = (   0.0000000   0.2309401   0.1231680), wk =   0.0533333
        k(    8) = (   0.0000000   0.2309401   0.2463361), wk =   0.0533333
        k(    9) = (   0.0000000   0.2309401   0.3695041), wk =   0.0533333
        k(   10) = (   0.0000000   0.2309401   0.4926721), wk =   0.0533333
        k(   11) = (   0.0000000   0.4618802   0.0000000), wk =   0.0533333
        k(   12) = (   0.0000000   0.4618802   0.1231680), wk =   0.0533333
        k(   13) = (   0.0000000   0.4618802   0.2463361), wk =   0.0533333
        k(   14) = (   0.0000000   0.4618802   0.3695041), wk =   0.0533333
        k(   15) = (   0.0000000   0.4618802   0.4926721), wk =   0.0533333
        k(   16) = (   0.2000000   0.3464102   0.0000000), wk =   0.0533333
        k(   17) = (   0.2000000   0.3464102   0.1231680), wk =   0.0533333
        k(   18) = (   0.2000000   0.3464102   0.2463361), wk =   0.0533333
        k(   19) = (   0.2000000   0.3464102   0.3695041), wk =   0.0533333
        k(   20) = (   0.2000000   0.3464102   0.4926721), wk =   0.0533333
        k(   21) = (   0.2000000   0.5773503   0.0000000), wk =   0.0533333
        k(   22) = (   0.2000000   0.5773503   0.1231680), wk =   0.0533333
        k(   23) = (   0.2000000   0.5773503   0.2463361), wk =   0.0533333
        k(   24) = (   0.2000000   0.5773503   0.3695041), wk =   0.0533333
        k(   25) = (   0.2000000   0.5773503   0.4926721), wk =   0.0533333
        k(   26) = (  -0.2000000   0.1154701   0.1231680), wk =   0.0533333
        k(   27) = (  -0.2000000   0.1154701   0.2463361), wk =   0.0533333
        k(   28) = (  -0.2000000   0.1154701   0.3695041), wk =   0.0533333
        k(   29) = (  -0.2000000   0.1154701   0.4926721), wk =   0.0533333
        k(   30) = (  -0.4000000   0.2309401   0.1231680), wk =   0.0533333
        k(   31) = (  -0.4000000   0.2309401   0.2463361), wk =   0.0533333
        k(   32) = (  -0.4000000   0.2309401   0.3695041), wk =   0.0533333
        k(   33) = (  -0.4000000   0.2309401   0.4926721), wk =   0.0533333
        k(   34) = (   0.2000000  -0.3464102  -0.1231680), wk =   0.0533333
        k(   35) = (   0.2000000  -0.3464102  -0.2463361), wk =   0.0533333
        k(   36) = (   0.2000000  -0.3464102  -0.3695041), wk =   0.0533333
        k(   37) = (   0.2000000  -0.3464102  -0.4926721), wk =   0.0533333
        k(   38) = (   0.2000000  -0.5773503  -0.1231680), wk =   0.0533333
        k(   39) = (   0.2000000  -0.5773503  -0.2463361), wk =   0.0533333
        k(   40) = (   0.2000000  -0.5773503  -0.3695041), wk =   0.0533333
        k(   41) = (   0.2000000  -0.5773503  -0.4926721), wk =   0.0533333

     Dense  grid:    35019 G-vectors     FFT dimensions: (  45,  45,  40)

     Estimated max dynamical RAM per process >      21.22 MB

     Estimated total dynamical RAM >     169.75 MB

     Initial potential from superposition of free atoms

     starting charge      31.9623, renormalised to      32.0000
     Starting wfcs are   24 randomized atomic wfcs

     total cpu time spent up to now is        1.8 secs

     Self-consistent Calculation

     iteration #  1     ecut=    60.00 Ry     beta= 0.80
     Davidson diagonalization with overlap
     ethr =  1.00E-02,  avg # of iterations =  5.1

     Threshold (ethr) on eigenvalues was too large:
     Diagonalizing with lowered threshold

     Davidson diagonalization with overlap
     ethr =  2.56E-04,  avg # of iterations =  5.2

     total cpu time spent up to now is        4.3 secs

     total energy              =    -131.17069962 Ry
     estimated scf accuracy    <       0.07581951 Ry

     iteration #  2     ecut=    60.00 Ry     beta= 0.80
     Davidson diagonalization with overlap
     ethr =  2.37E-04,  avg # of iterations =  2.3

     total cpu time spent up to now is        5.4 secs

     total energy              =    -131.17544258 Ry
     estimated scf accuracy    <       0.03538356 Ry

     iteration #  3     ecut=    60.00 Ry     beta= 0.80
     Davidson diagonalization with overlap
     ethr =  1.11E-04,  avg # of iterations =  2.2

     total cpu time spent up to now is        6.3 secs

     total energy              =    -131.18477263 Ry
     estimated scf accuracy    <       0.00507660 Ry

     iteration #  4     ecut=    60.00 Ry     beta= 0.80
     Davidson diagonalization with overlap
     ethr =  1.59E-05,  avg # of iterations =  3.3

     total cpu time spent up to now is        7.3 secs

     total energy              =    -131.18563441 Ry
     estimated scf accuracy    <       0.00013299 Ry

     iteration #  5     ecut=    60.00 Ry     beta= 0.80
     Davidson diagonalization with overlap
     ethr =  4.16E-07,  avg # of iterations =  4.1

     total cpu time spent up to now is        8.3 secs

     total energy              =    -131.18567275 Ry
     estimated scf accuracy    <       0.00001691 Ry

     iteration #  6     ecut=    60.00 Ry     beta= 0.80
     Davidson diagonalization with overlap
     ethr =  5.29E-08,  avg # of iterations =  2.0

     total cpu time spent up to now is        9.2 secs

     total energy              =    -131.18567671 Ry
     estimated scf accuracy    <       0.00000086 Ry

     iteration #  7     ecut=    60.00 Ry     beta= 0.80
     Davidson diagonalization with overlap
     ethr =  2.70E-09,  avg # of iterations =  2.9

     total cpu time spent up to now is       10.2 secs

     total energy              =    -131.18567691 Ry
     estimated scf accuracy    <       0.00000006 Ry

     iteration #  8     ecut=    60.00 Ry     beta= 0.80
     Davidson diagonalization with overlap
     ethr =  1.94E-10,  avg # of iterations =  2.7

     total cpu time spent up to now is       11.1 secs

     End of self-consistent calculation

          k = 0.0000 0.0000 0.0000 (  4375 PWs)   bands (ev):

   -42.3863 -40.2747 -38.6768 -38.5372 -38.5372 -37.7372 -37.6014 -37.6014
    -1.1825   1.8575   3.7437   4.8380   4.8380   5.6167   5.6167   8.1785
     9.9102  10.1510  12.1094  12.1094

          k = 0.0000 0.0000 0.1232 (  4322 PWs)   bands (ev):

   -42.3849 -40.2746 -38.6752 -38.5365 -38.5365 -37.7362 -37.6004 -37.6004
    -1.1324   1.6270   3.9565   4.8318   4.8459   5.6153   5.6336   8.2031
     9.4611  10.3482  11.4441  11.5487

          k = 0.0000 0.0000 0.2463 (  4316 PWs)   bands (ev):

   -42.3829 -40.2772 -38.6749 -38.5361 -38.5360 -37.7357 -37.6001 -37.6001
    -0.9832   1.1299   4.4298   4.8296   4.8509   5.6316   5.6593   8.1110
     8.7207  10.7408  10.8000  10.9705

          k = 0.0000 0.0000 0.3695 (  4340 PWs)   bands (ev):

   -42.3813 -40.2807 -38.6745 -38.5365 -38.5365 -37.7356 -37.6006 -37.6006
    -0.7357   0.5809   4.8314   4.8498   5.0164   5.6604   5.6845   7.3636
     8.6556  10.2321  10.2647  11.3120

          k = 0.0000 0.0000 0.4927 (  4334 PWs)   bands (ev):

   -42.3799 -40.2825 -38.6739 -38.5364 -38.5364 -37.7357 -37.6002 -37.6002
    -0.4005   0.0792   4.8367   4.8438   5.6806   5.6874   5.6968   6.5183
     8.7496   9.9714   9.9819  11.2054

          k = 0.0000 0.2309 0.0000 (  4347 PWs)   bands (ev):

   -42.3851 -40.2740 -38.6893 -38.5384 -38.5231 -37.7335 -37.6035 -37.6014
    -1.0667   1.2853   4.0130   4.4012   4.7326   6.2675   6.5001   8.4746
     8.8121  10.0477  10.9000  11.3308

          k = 0.0000 0.2309 0.1232 (  4371 PWs)   bands (ev):

   -42.3849 -40.2753 -38.6896 -38.5388 -38.5233 -37.7340 -37.6037 -37.6018
    -1.0206   1.1862   3.9144   4.4189   4.8810   6.1858   6.5020   8.1592
     9.0462  10.2135  10.5544  11.0860

          k = 0.0000 0.2309 0.2463 (  4370 PWs)   bands (ev):

   -42.3831 -40.2780 -38.6892 -38.5386 -38.5230 -37.7337 -37.6036 -37.6015
    -0.8816   0.9000   3.8810   4.4837   5.0534   5.9224   6.4687   7.8483
     9.0299  10.0997  10.7984  11.1491

          k = 0.0000 0.2309 0.3695 (  4379 PWs)   bands (ev):

   -42.3813 -40.2812 -38.6889 -38.5386 -38.5229 -37.7338 -37.6036 -37.6015
    -0.6537   0.5034   4.0020   4.5750   5.0410   5.6575   6.4609   7.4828
     9.0182  10.0260  10.9153  11.2194

          k = 0.0000 0.2309 0.4927 (  4386 PWs)   bands (ev):

   -42.3802 -40.2833 -38.6889 -38.5386 -38.5228 -37.7338 -37.6036 -37.6016
    -0.3555   0.0965   4.2286   4.6213   4.8448   5.5372   6.5342   7.1213
     9.1527  10.1337  10.6210  11.2959

          k = 0.0000 0.4619 0.0000 (  4375 PWs)   bands (ev):

   -42.3846 -40.2738 -38.7075 -38.5415 -38.5045 -37.7283 -37.6090 -37.6023
    -0.7581   0.4314   4.0657   4.5861   4.8023   6.6806   7.3882   7.7311
     9.3643   9.9782  10.3011  10.9768

          k = 0.0000 0.4619 0.1232 (  4367 PWs)   bands (ev):

   -42.3837 -40.2748 -38.7073 -38.5412 -38.5043 -37.7282 -37.6088 -37.6021
    -0.7226   0.4250   4.0810   4.2410   5.0340   6.1594   7.6307   7.8705
     9.3866  10.0533  10.3064  10.9008

          k = 0.0000 0.4619 0.2463 (  4379 PWs)   bands (ev):

   -42.3821 -40.2778 -38.7072 -38.5412 -38.5044 -37.7285 -37.6084 -37.6025
    -0.6156   0.3797   3.8570   4.1720   5.1024   5.4910   7.4319   8.0320
     9.5865  10.1310  10.8936  11.3173

          k = 0.0000 0.4619 0.3695 (  4379 PWs)   bands (ev):

   -42.3801 -40.2809 -38.7070 -38.5407 -38.5043 -37.7287 -37.6080 -37.6025
    -0.4501   0.2720   3.6508   4.2040   4.7622   5.3381   7.1515   7.7956
     9.8726  10.4991  11.5162  11.8914

          k = 0.0000 0.4619 0.4927 (  4390 PWs)   bands (ev):

   -42.3790 -40.2833 -38.7072 -38.5408 -38.5041 -37.7292 -37.6077 -37.6027
    -0.2673   0.1164   3.6758   3.9912   4.6477   5.2949   7.0632   7.4638
    10.2676  10.8405  11.5295  12.0246

          k = 0.2000 0.3464 0.0000 (  4371 PWs)   bands (ev):

   -42.3848 -40.2738 -38.7044 -38.5417 -38.5070 -37.7293 -37.6076 -37.6026
    -0.8373   0.6020   3.8455   4.5679   5.2385   6.4201   7.2718   7.6762
     9.1378   9.7687  10.0309  11.2850

          k = 0.2000 0.3464 0.1232 (  4379 PWs)   bands (ev):

   -42.3842 -40.2750 -38.7043 -38.5417 -38.5072 -37.7296 -37.6075 -37.6027
    -0.7980   0.5727   3.8875   4.3095   5.4170   6.3079   6.9026   7.7289
     9.2243   9.8840  10.5081  11.3868

          k = 0.2000 0.3464 0.2463 (  4375 PWs)   bands (ev):

   -42.3823 -40.2777 -38.7039 -38.5414 -38.5070 -37.7294 -37.6072 -37.6026
    -0.6808   0.4816   3.9165   4.0502   5.2649   6.0873   6.5609   7.7364
     9.7537  10.2013  10.8846  11.4933

          k = 0.2000 0.3464 0.3695 (  4389 PWs)   bands (ev):

   -42.3806 -40.2811 -38.7039 -38.5411 -38.5071 -37.7298 -37.6070 -37.6028
    -0.4957   0.3144   3.7454   4.2295   4.7611   5.6575   6.7124   7.7711
     9.9285  10.4544  10.8967  11.6425

          k = 0.2000 0.3464 0.4927 (  4388 PWs)   bands (ev):

   -42.3793 -40.2830 -38.7039 -38.5408 -38.5068 -37.7298 -37.6067 -37.6029
    -0.2794   0.1023   3.7774   4.2105   4.6012   5.1843   7.0107   7.7398
     9.8005  10.5669  10.8867  12.0005

          k = 0.2000 0.5774 0.0000 (  4385 PWs)   bands (ev):

   -42.3843 -40.2739 -38.7123 -38.5438 -38.4983 -37.7263 -37.6103 -37.6035
    -0.5368   0.0657   3.6350   5.2820   5.4634   6.1676   7.0633   7.7322
     9.0342   9.4835  10.0511  11.0610

          k = 0.2000 0.5774 0.1232 (  4377 PWs)   bands (ev):

   -42.3836 -40.2747 -38.7122 -38.5435 -38.4981 -37.7264 -37.6099 -37.6033
    -0.5095   0.0727   3.6726   4.8423   5.5586   5.9910   7.3230   7.4168
     9.0551   9.9825  10.3251  11.3267

          k = 0.2000 0.5774 0.2463 (  4381 PWs)   bands (ev):

   -42.3819 -40.2776 -38.7119 -38.5432 -38.4982 -37.7268 -37.6094 -37.6034
    -0.4297   0.0925   3.7981   4.2909   4.8983   6.0625   6.9282   7.8283
     9.4177  10.8244  10.8626  11.6261

          k = 0.2000 0.5774 0.3695 (  4390 PWs)   bands (ev):

   -42.3800 -40.2810 -38.7118 -38.5429 -38.4983 -37.7272 -37.6091 -37.6036
    -0.3176   0.1044   3.8299   4.0433   4.3374   5.5767   7.1011   8.0668
     9.8317  10.7017  11.4700  12.2901

          k = 0.2000 0.5774 0.4927 (  4385 PWs)   bands (ev):

   -42.3786 -40.2830 -38.7119 -38.5423 -38.4981 -37.7274 -37.6083 -37.6037
    -0.2208   0.0966   3.6607   3.8804   4.4274   5.0233   7.3989   8.1064
    10.1950  10.5220  11.2974  12.4227

          k =-0.2000 0.1155 0.1232 (  4371 PWs)   bands (ev):

   -42.3849 -40.2754 -38.6896 -38.5388 -38.5233 -37.7339 -37.6037 -37.6018
    -1.0195   1.1753   3.9857   4.4438   4.8153   6.1543   6.4305   8.3000
     8.8645  10.2931  10.8511  11.2004

          k =-0.2000 0.1155 0.2463 (  4370 PWs)   bands (ev):

   -42.3831 -40.2780 -38.6892 -38.5386 -38.5230 -37.7337 -37.6036 -37.6015
    -0.8792   0.8857   3.9496   4.5283   5.0289   5.8286   6.3665   7.8458
     9.1250  10.5156  10.7543  11.0504

          k =-0.2000 0.1155 0.3695 (  4379 PWs)   bands (ev):

   -42.3813 -40.2812 -38.6890 -38.5386 -38.5229 -37.7338 -37.6036 -37.6015
    -0.6497   0.4913   4.0424   4.6305   5.1009   5.5090   6.3542   7.4359
     9.2880  10.3571  10.5354  11.2507

          k =-0.2000 0.1155 0.4927 (  4386 PWs)   bands (ev):

   -42.3802 -40.2833 -38.6889 -38.5385 -38.5228 -37.7338 -37.6036 -37.6016
    -0.3503   0.0885   4.2357   4.6668   4.8566   5.4790   6.4792   7.1099
     9.3005  10.3016  10.3967  11.3059

          k =-0.4000 0.2309 0.1232 (  4367 PWs)   bands (ev):

   -42.3837 -40.2748 -38.7073 -38.5412 -38.5043 -37.7281 -37.6088 -37.6021
    -0.7182   0.4119   4.0973   4.3773   4.9064   6.1035   7.4863   7.9257
     9.5010  10.0998  10.4643  11.0422

          k =-0.4000 0.2309 0.2463 (  4379 PWs)   bands (ev):

   -42.3821 -40.2778 -38.7072 -38.5412 -38.5044 -37.7285 -37.6084 -37.6025
    -0.6067   0.3563   3.9831   4.1949   4.9841   5.4585   7.2925   7.9504
     9.8999  10.4740  10.9443  11.2314

          k =-0.4000 0.2309 0.3695 (  4379 PWs)   bands (ev):

   -42.3801 -40.2809 -38.7070 -38.5407 -38.5042 -37.7287 -37.6080 -37.6025
    -0.4367   0.2450   3.7618   4.2088   4.6833   5.3139   7.0816   7.6806
    10.2052  10.9043  11.3331  11.6500

          k =-0.4000 0.2309 0.4927 (  4390 PWs)   bands (ev):

   -42.3790 -40.2833 -38.7072 -38.5408 -38.5041 -37.7292 -37.6077 -37.6027
    -0.2549   0.0984   3.7636   3.9328   4.6358   5.2841   7.0542   7.4077
    10.4621  10.9378  11.4221  11.9852

          k = 0.2000-0.3464-0.1232 (  4379 PWs)   bands (ev):

   -42.3842 -40.2750 -38.7043 -38.5417 -38.5071 -37.7296 -37.6075 -37.6027
    -0.7962   0.5783   3.8728   4.3491   5.2661   6.2270   7.0140   7.8984
     9.5142   9.9898  10.0988  11.4520

          k = 0.2000-0.3464-0.2463 (  4375 PWs)   bands (ev):

   -42.3823 -40.2778 -38.7039 -38.5414 -38.5069 -37.7294 -37.6073 -37.6026
    -0.6775   0.4890   3.8623   4.1585   5.0199   5.9507   6.8172   7.9580
     9.9365  10.2955  10.5966  11.4410

          k = 0.2000-0.3464-0.3695 (  4389 PWs)   bands (ev):

   -42.3805 -40.2812 -38.7040 -38.5411 -38.5071 -37.7298 -37.6070 -37.6028
    -0.4919   0.3191   3.7650   4.2959   4.5811   5.5242   6.9540   7.8776
     9.9974  10.3838  10.8719  11.6766

          k = 0.2000-0.3464-0.4927 (  4388 PWs)   bands (ev):

   -42.3793 -40.2830 -38.7039 -38.5408 -38.5068 -37.7298 -37.6066 -37.6029
    -0.2770   0.1029   3.8264   4.1311   4.6352   5.1072   7.1245   7.7407
     9.8327  10.4359  11.0058  11.9563

          k = 0.2000-0.5774-0.1232 (  4377 PWs)   bands (ev):

   -42.3836 -40.2747 -38.7122 -38.5435 -38.4980 -37.7264 -37.6099 -37.6033
    -0.5060   0.0788   3.6883   4.7924   5.3294   6.1037   7.2488   7.7014
     9.3660   9.8291  10.3137  11.3022

          k = 0.2000-0.5774-0.2463 (  4381 PWs)   bands (ev):

   -42.3819 -40.2776 -38.7119 -38.5432 -38.4982 -37.7267 -37.6095 -37.6034
    -0.4236   0.1021   3.8199   4.2503   4.7797   5.8598   7.2344   8.0100
     9.5805  10.7137  11.0529  11.4951

          k = 0.2000-0.5774-0.3695 (  4390 PWs)   bands (ev):

   -42.3800 -40.2810 -38.7119 -38.5429 -38.4983 -37.7272 -37.6091 -37.6036
    -0.3114   0.1130   3.8101   4.0069   4.3653   5.3658   7.3819   8.1646
     9.8432  10.7562  11.4906  12.3359

          k = 0.2000-0.5774-0.4927 (  4385 PWs)   bands (ev):

   -42.3786 -40.2830 -38.7119 -38.5423 -38.4981 -37.7274 -37.6083 -37.6037
    -0.2180   0.0999   3.6667   3.8243   4.5598   4.8619   7.5215   8.1156
    10.1120  10.6642  11.2384  12.3937

     the Fermi energy is     8.4291 ev

!    total energy              =    -131.18567692 Ry
     estimated scf accuracy    <          3.3E-09 Ry
     smearing contrib. (-TS)   =       0.00209625 Ry
     internal energy E=F+TS    =    -131.18777317 Ry

     The total energy is F=E-TS. E is the sum of the following terms:
     one-electron contribution =     -45.20964338 Ry
     hartree contribution      =      23.77169354 Ry
     xc contribution           =     -34.70759548 Ry
     ewald contribution        =     -75.04222785 Ry

     convergence has been achieved in   8 iterations

     Forces acting on atoms (cartesian axes, Ry/au):

     atom    1 type  1   force =     0.00000000    0.00000000    0.02466133
     atom    2 type  1   force =     0.00000000    0.00000000   -0.00841019
     atom    3 type  2   force =     0.08622818    0.08037180    0.01811135
     atom    4 type  2   force =    -0.11271811    0.03448990    0.01811135
     atom    5 type  2   force =     0.02648993   -0.11486170    0.01811135
     atom    6 type  2   force =     0.04317074    0.15577042   -0.01154504
     atom    7 type  2   force =    -0.15648652   -0.04049825   -0.01154504
     atom    8 type  2   force =     0.11331577   -0.11527217   -0.01154504
     atom    9 type  2   force =     0.00000000    0.00000000   -0.22851133
     atom   10 type  2   force =     0.00000000    0.00000000    0.19256125
     The non-local contrib.  to forces
     atom    1 type  1   force =     0.00000000    0.00000000    0.03567567
     atom    2 type  1   force =     0.00000000    0.00000000   -0.00872388
     atom    3 type  2   force =     0.02430876    0.02028608   -0.02204823
     atom    4 type  2   force =    -0.02972264    0.01090896   -0.02204823
     atom    5 type  2   force =     0.00541388   -0.03119504   -0.02204823
     atom    6 type  2   force =    -0.06436106    0.00119236   -0.00443437
     atom    7 type  2   force =     0.03114792   -0.05633449   -0.00443437
     atom    8 type  2   force =     0.03321314    0.05514214   -0.00443437
     atom    9 type  2   force =     0.00000000    0.00000000    0.31531005
     atom   10 type  2   force =     0.00000000    0.00000000   -0.28813484
     The ionic contribution  to forces
     atom    1 type  1   force =     0.00000011   -0.00000006   -0.01173463
     atom    2 type  1   force =    -0.00000009    0.00000005    0.06447328
     atom    3 type  2   force =     0.24038416    0.18735487    0.23517443
     atom    4 type  2   force =    -0.28244609    0.11450138    0.23517443
     atom    5 type  2   force =     0.04206201   -0.30185630    0.23517444
     atom    6 type  2   force =     0.52664272    0.49538983   -0.15822590
     atom    7 type  2   force =    -0.69234148    0.20839110   -0.15822590
     atom    8 type  2   force =     0.16569867   -0.70378089   -0.15822590
     atom    9 type  2   force =    -0.00000001    0.00000001   -2.37862008
     atom   10 type  2   force =    -0.00000000    0.00000000    2.09503581
     The local contribution  to forces
     atom    1 type  1   force =    -0.00000003    0.00000002    0.00276374
     atom    2 type  1   force =     0.00000002   -0.00000001   -0.06465623
     atom    3 type  2   force =    -0.17846509   -0.12725384   -0.19497176
     atom    4 type  2   force =     0.19943760   -0.09092838   -0.19497176
     atom    5 type  2   force =    -0.02097252    0.21818222   -0.19497176
     atom    6 type  2   force =    -0.41910821   -0.34082083    0.15109886
     atom    7 type  2   force =     0.50471360   -0.19254794    0.15109886
     atom    8 type  2   force =    -0.08560539    0.53336877    0.15109886
     atom    9 type  2   force =     0.00000000    0.00000000    1.83478244
     atom   10 type  2   force =     0.00000000   -0.00000000   -1.61433718
     The core correction contribution to forces
     atom    1 type  1   force =    -0.00000000    0.00000000   -0.00205817
     atom    2 type  1   force =     0.00000000   -0.00000000    0.00053088
     atom    3 type  2   force =     0.00000000    0.00000000    0.00000000
     atom    4 type  2   force =     0.00000000    0.00000000    0.00000000
     atom    5 type  2   force =     0.00000000    0.00000000    0.00000000
     atom    6 type  2   force =     0.00000000    0.00000000    0.00000000
     atom    7 type  2   force =     0.00000000    0.00000000    0.00000000
     atom    8 type  2   force =     0.00000000    0.00000000    0.00000000
     atom    9 type  2   force =     0.00000000    0.00000000    0.00000000
     atom   10 type  2   force =     0.00000000    0.00000000    0.00000000
     The Hubbard contrib.    to forces
     atom    1 type  1   force =     0.00000000    0.00000000    0.00000000
     atom    2 type  1   force =     0.00000000    0.00000000    0.00000000
     atom    3 type  2   force =     0.00000000    0.00000000    0.00000000
     atom    4 type  2   force =     0.00000000    0.00000000    0.00000000
     atom    5 type  2   force =     0.00000000    0.00000000    0.00000000
     atom    6 type  2   force =     0.00000000    0.00000000    0.00000000
     atom    7 type  2   force =     0.00000000    0.00000000    0.00000000
     atom    8 type  2   force =     0.00000000    0.00000000    0.00000000
     atom    9 type  2   force =     0.00000000    0.00000000    0.00000000
     atom   10 type  2   force =     0.00000000    0.00000000    0.00000000
     The SCF correction term to forces
     atom    1 type  1   force =    -0.00000000    0.00000000    0.00002584
     atom    2 type  1   force =     0.00000000   -0.00000000   -0.00002313
     atom    3 type  2   force =     0.00000034   -0.00001530   -0.00003197
     atom    4 type  2   force =     0.00001308    0.00000794   -0.00003197
     atom    5 type  2   force =    -0.00001342    0.00000736   -0.00003197
     atom    6 type  2   force =    -0.00000274    0.00000913    0.00002749
     atom    7 type  2   force =    -0.00000654   -0.00000693    0.00002749
     atom    8 type  2   force =     0.00000927   -0.00000220    0.00002749
     atom    9 type  2   force =     0.00000000   -0.00000000    0.00002739
     atom   10 type  2   force =     0.00000000   -0.00000000    0.00000858

     Total force =     0.459814     Total SCF correction =     0.000091


     Computing stress (Cartesian axis) and pressure

          total   stress  (Ry/bohr**3)                   (kbar)     P=      598.93
   0.00498793   0.00000000   0.00000000          733.75        0.00        0.00
   0.00000000   0.00498793   0.00000000            0.00      733.75        0.00
   0.00000000   0.00000000   0.00223848            0.00        0.00      329.29


     BFGS Geometry Optimization
     Energy error            =      0.0E+00 Ry
     Gradient error          =      2.3E-01 Ry/Bohr
     Cell gradient error     =      2.3E+02 kbar

     number of scf cycles    =   1
     number of bfgs steps    =   0

     enthalpy           new  =    -129.2896422148 Ry

     new trust radius        =       0.2285113270 bohr
ibrav =      4
 celldm(1) =      9.29301057
 celldm(3) =      0.84247141
Input lattice vectors:
     1.03972503     0.00000000     0.00000000
    -0.51986251     0.90042828     0.00000000
     0.00000000     0.00000000     0.87593861
New lattice vectors in INITIAL alat:
     1.03972503     0.00000000     0.00000000
    -0.51986251     0.90042828     0.00000000
     0.00000000     0.00000000     0.87593861
New lattice vectors in NEW alat (for information only):
     1.00000000     0.00000000     0.00000000
    -0.50000000     0.86602540     0.00000000
     0.00000000     0.00000000     0.84247141
Discrepancy in bohr =     0.000000    0.000000    0.000000
     new conv_thr            =       0.0000000100 Ry

     new unit-cell volume =    585.53802 a.u.^3 (    86.76778 Ang^3 )
     density =      2.13767 g/cm^3

CELL_PARAMETERS (alat=  8.93795027)
   1.039725025   0.000000000   0.000000000
  -0.519862513   0.900428285   0.000000000
   0.000000000   0.000000000   0.875938611

ATOMIC_POSITIONS (crystal)
Si            0.3333333300        0.6666666700        0.1418885738
Si            0.6666666700        0.3333333300        0.6292609420
Li            0.1127473993        0.7331979636        0.6438702260
Li            0.2668020364        0.3795494358        0.6438702260
Li            0.6204505642        0.8872526007        0.6438702260
Li            0.4171754289        0.1071977686        0.1283441487
Li            0.8928022314        0.3099776603        0.1283441487
Li            0.6900223397        0.5828245711        0.1283441487
Li            0.0000000000        0.0000000000        0.0272063187
Li            0.0000000000        0.0000000000        0.3942510415



     Writing config-only to output data dir ./output/SiLi.save/
     NEW-OLD atomic charge density approx. for the potential
     extrapolated charge   33.51233, renormalised to   32.00000

     total cpu time spent up to now is       13.7 secs

     Self-consistent Calculation

     iteration #  1     ecut=    60.00 Ry     beta= 0.80
     Davidson diagonalization with overlap
     c_bands:  1 eigenvalues not converged
     c_bands:  1 eigenvalues not converged
     ethr =  1.00E-06,  avg # of iterations = 14.3
     Minimization algorithm failed to find Fermi energy: reverting to bisection
     Possible cause: smearing is larger than the electronic band-gap.

     total cpu time spent up to now is       16.6 secs

     total energy              =    -131.46734199 Ry
     estimated scf accuracy    <       0.03015038 Ry

     iteration #  2     ecut=    60.00 Ry     beta= 0.80
     Davidson diagonalization with overlap
     ethr =  9.42E-05,  avg # of iterations =  4.6

     total cpu time spent up to now is       17.8 secs

     total energy              =    -131.48405420 Ry
     estimated scf accuracy    <       0.05053916 Ry

     iteration #  3     ecut=    60.00 Ry     beta= 0.80
     Davidson diagonalization with overlap
     ethr =  9.42E-05,  avg # of iterations =  2.1

     total cpu time spent up to now is       18.7 secs

     total energy              =    -131.49159829 Ry
     estimated scf accuracy    <       0.00162364 Ry

     iteration #  4     ecut=    60.00 Ry     beta= 0.80
     Davidson diagonalization with overlap
     ethr =  5.07E-06,  avg # of iterations =  4.9

     total cpu time spent up to now is       19.8 secs

     total energy              =    -131.49180345 Ry
     estimated scf accuracy    <       0.00030475 Ry

     iteration #  5     ecut=    60.00 Ry     beta= 0.80
     Davidson diagonalization with overlap
     ethr =  9.52E-07,  avg # of iterations =  2.4

     total cpu time spent up to now is       20.8 secs

     total energy              =    -131.49185913 Ry
     estimated scf accuracy    <       0.00004299 Ry

     iteration #  6     ecut=    60.00 Ry     beta= 0.80
     Davidson diagonalization with overlap
     ethr =  1.34E-07,  avg # of iterations =  2.2

     total cpu time spent up to now is       21.7 secs

     total energy              =    -131.49186953 Ry
     estimated scf accuracy    <       0.00000321 Ry

     iteration #  7     ecut=    60.00 Ry     beta= 0.80
     Davidson diagonalization with overlap
     ethr =  1.00E-08,  avg # of iterations =  2.3

     total cpu time spent up to now is       22.6 secs

     total energy              =    -131.49187025 Ry
     estimated scf accuracy    <       0.00000022 Ry

     iteration #  8     ecut=    60.00 Ry     beta= 0.80
     Davidson diagonalization with overlap
     ethr =  6.78E-10,  avg # of iterations =  2.4

     total cpu time spent up to now is       23.5 secs

     total energy              =    -131.49187027 Ry
     estimated scf accuracy    <       0.00000003 Ry

     iteration #  9     ecut=    60.00 Ry     beta= 0.80
     Davidson diagonalization with overlap
     ethr =  9.85E-11,  avg # of iterations =  2.1

     total cpu time spent up to now is       24.3 secs

     End of self-consistent calculation

          k = 0.0000 0.0000 0.0000 (  4375 PWs)   bands (ev):

   -41.4547 -40.3786 -38.7179 -38.5059 -38.5059 -38.1005 -37.9868 -37.9868
    -1.5701   1.3256   3.8473   4.4654   4.4654   5.1217   5.1217   7.3984
     9.1269   9.5609  11.1936  11.8778

          k = 0.0000 0.0000 0.1268 (  4322 PWs)   bands (ev):

   -41.4513 -40.3800 -38.7164 -38.5047 -38.5047 -38.0994 -37.9853 -37.9853
    -1.5184   1.1539   3.9606   4.4836   4.4936   5.1201   5.1336   7.4145
     8.7641   9.7295  11.0106  11.0561

          k = 0.0000 0.0000 0.2537 (  4316 PWs)   bands (ev):

   -41.4456 -40.3863 -38.7156 -38.5042 -38.5042 -38.0987 -37.9850 -37.9850
    -1.3643   0.7323   4.2615   4.5415   4.5588   5.1279   5.1507   7.3357
     8.1278   9.9697  10.1657  10.1948

          k = 0.0000 0.0000 0.3805 (  4340 PWs)   bands (ev):

   -41.4383 -40.3948 -38.7153 -38.5038 -38.5038 -38.0980 -37.9850 -37.9850
    -1.1093   0.2174   4.6176   4.6355   4.7044   5.1410   5.1638   6.7491
     7.9900   9.5597   9.5778   9.8928

          k = 0.0000 0.0000 0.5074 (  4334 PWs)   bands (ev):

   -41.4340 -40.3998 -38.7144 -38.5039 -38.5039 -38.0981 -37.9846 -37.9846
    -0.7665  -0.2771   4.6769   4.6849   5.1549   5.1649   5.2678   5.9926
     8.0753   9.2439   9.2501   9.7387

          k = 0.0000 0.2221 0.0000 (  4347 PWs)   bands (ev):

   -41.4530 -40.3791 -38.7231 -38.5067 -38.5000 -38.1008 -37.9863 -37.9856
    -1.4481   0.8111   3.9718   4.0783   4.2957   5.8377   5.9873   7.9433
     8.1564   9.4683  10.7220  10.7567

          k = 0.0000 0.2221 0.1268 (  4371 PWs)   bands (ev):

   -41.4514 -40.3821 -38.7234 -38.5071 -38.5002 -38.1009 -37.9867 -37.9864
    -1.3999   0.7313   3.8493   4.0083   4.5208   5.8009   5.9736   7.5497
     8.3967   9.5607  10.1493  10.6697

          k = 0.0000 0.2221 0.2537 (  4370 PWs)   bands (ev):

   -41.4456 -40.3889 -38.7229 -38.5068 -38.4998 -38.1007 -37.9866 -37.9862
    -1.2554   0.4895   3.7072   4.1113   4.7139   5.5662   5.9489   7.1596
     8.3988   9.5084   9.8575  10.6135

          k = 0.0000 0.2221 0.3805 (  4379 PWs)   bands (ev):

   -41.4393 -40.3967 -38.7224 -38.5068 -38.4995 -38.1008 -37.9865 -37.9860
    -1.0191   0.1260   3.7621   4.2675   4.7265   5.2521   5.9372   6.7981
     8.3632   9.3625   9.9584  10.2019

          k = 0.0000 0.2221 0.5074 (  4386 PWs)   bands (ev):

   -41.4351 -40.4022 -38.7223 -38.5067 -38.4995 -38.1008 -37.9867 -37.9861
    -0.7089  -0.2731   3.9970   4.3201   4.5559   5.0808   6.0195   6.4434
     8.4759   9.4077   9.7048  10.2508

          k = 0.0000 0.4442 0.0000 (  4375 PWs)   bands (ev):

   -41.4524 -40.3800 -38.7327 -38.5090 -38.4916 -38.1013 -37.9873 -37.9861
    -1.1254   0.0046   3.6175   4.1289   4.7643   6.4665   6.9969   7.3178
     8.6931   9.3767  10.0746  10.2568

          k = 0.0000 0.4442 0.1268 (  4367 PWs)   bands (ev):

   -41.4498 -40.3825 -38.7323 -38.5087 -38.4912 -38.1010 -37.9869 -37.9860
    -1.0866  -0.0000   3.6572   3.9523   4.7822   5.9335   7.1311   7.4140
     8.7218   9.4340   9.9790  10.3109

          k = 0.0000 0.4442 0.2537 (  4379 PWs)   bands (ev):

   -41.4443 -40.3896 -38.7322 -38.5083 -38.4911 -38.1015 -37.9866 -37.9862
    -0.9714  -0.0353   3.6329   3.7871   4.7436   5.2158   6.9385   7.3257
     8.8260   9.5024  10.4124  10.7937

          k = 0.0000 0.4442 0.3805 (  4379 PWs)   bands (ev):

   -41.4384 -40.3971 -38.7320 -38.5080 -38.4908 -38.1019 -37.9866 -37.9858
    -0.7924  -0.1316   3.4175   3.9220   4.3813   4.9875   6.5406   7.0439
     9.0735   9.7996  10.7897  11.1057

          k = 0.0000 0.4442 0.5074 (  4390 PWs)   bands (ev):

   -41.4347 -40.4022 -38.7319 -38.5079 -38.4907 -38.1021 -37.9869 -37.9858
    -0.5824  -0.2953   3.4305   3.7198   4.3279   4.8977   6.3816   6.6995
     9.4800  10.1214  10.6252  11.3832

          k = 0.1924 0.3332 0.0000 (  4371 PWs)   bands (ev):

   -41.4526 -40.3797 -38.7312 -38.5091 -38.4924 -38.1006 -37.9872 -37.9864
    -1.2094   0.1728   3.3775   4.5681   4.8257   5.9422   6.9924   7.2108
     8.6339   9.2304   9.6314  10.7163

          k = 0.1924 0.3332 0.1268 (  4379 PWs)   bands (ev):

   -41.4508 -40.3824 -38.7314 -38.5091 -38.4925 -38.1010 -37.9872 -37.9866
    -1.1676   0.1511   3.4241   4.2025   5.0944   5.8579   6.5520   7.1988
     8.7409   9.3772   9.9418  10.7580

          k = 0.1924 0.3332 0.2537 (  4375 PWs)   bands (ev):

   -41.4451 -40.3889 -38.7308 -38.5086 -38.4919 -38.1010 -37.9869 -37.9862
    -1.0435   0.0769   3.5659   3.7846   5.0215   5.6731   6.1120   7.0378
     9.1075   9.6121  10.2102  10.6617

          k = 0.1924 0.3332 0.3805 (  4389 PWs)   bands (ev):

   -41.4388 -40.3974 -38.7306 -38.5084 -38.4922 -38.1016 -37.9872 -37.9863
    -0.8473  -0.0745   3.5426   3.8057   4.4979   5.3024   6.1578   7.0003
     9.2510   9.7046   9.9794  10.9241

          k = 0.1924 0.3332 0.5074 (  4388 PWs)   bands (ev):

   -41.4348 -40.4022 -38.7304 -38.5081 -38.4919 -38.1015 -37.9873 -37.9859
    -0.6074  -0.2934   3.5659   3.8934   4.2458   4.7914   6.4389   6.9518
     9.0810   9.6297  10.1695  11.2850

          k = 0.1924 0.5553 0.0000 (  4385 PWs)   bands (ev):

   -41.4519 -40.3805 -38.7362 -38.5105 -38.4875 -38.1007 -37.9876 -37.9869
    -0.8955  -0.3501   3.1441   5.0527   5.2107   6.0253   6.5997   7.3304
     8.4597   9.1147   9.4846  10.5196

          k = 0.1924 0.5553 0.1268 (  4377 PWs)   bands (ev):

   -41.4499 -40.3827 -38.7357 -38.5102 -38.4876 -38.1009 -37.9873 -37.9866
    -0.8639  -0.3408   3.1890   4.6442   5.3540   5.6546   6.8823   6.9860
     8.3912   9.6013   9.8236  10.8476

          k = 0.1924 0.5553 0.2537 (  4381 PWs)   bands (ev):

   -41.4447 -40.3893 -38.7352 -38.5096 -38.4878 -38.1015 -37.9870 -37.9864
    -0.7722  -0.3185   3.3337   4.0992   4.6841   5.6802   6.4407   7.1863
     8.6293  10.0581  10.5992  11.3579

          k = 0.1924 0.5553 0.3805 (  4390 PWs)   bands (ev):

   -41.4387 -40.3972 -38.7350 -38.5092 -38.4880 -38.1020 -37.9873 -37.9862
    -0.6397  -0.3099   3.5191   3.7410   4.0588   5.2083   6.4866   7.3274
     9.0150   9.9075  10.8190  11.8728

          k = 0.1924 0.5553 0.5074 (  4385 PWs)   bands (ev):

   -41.4343 -40.4024 -38.7346 -38.5088 -38.4878 -38.1024 -37.9874 -37.9854
    -0.5098  -0.3395   3.4509   3.6136   4.0181   4.6203   6.7511   7.3049
     9.4269   9.7637  10.4276  11.7835

          k =-0.1924 0.1111 0.1268 (  4371 PWs)   bands (ev):

   -41.4514 -40.3821 -38.7235 -38.5071 -38.5002 -38.1009 -37.9867 -37.9864
    -1.3993   0.7257   3.9063   4.0319   4.4602   5.7921   5.9032   7.6664
     8.2686   9.6531  10.3659  10.6910

          k =-0.1924 0.1111 0.2537 (  4370 PWs)   bands (ev):

   -41.4456 -40.3890 -38.7230 -38.5068 -38.4998 -38.1007 -37.9865 -37.9862
    -1.2541   0.4818   3.7480   4.1508   4.7007   5.4958   5.8639   7.1699
     8.4854   9.6831   9.9960  10.3582

          k =-0.1924 0.1111 0.3805 (  4379 PWs)   bands (ev):

   -41.4393 -40.3967 -38.7224 -38.5068 -38.4995 -38.1007 -37.9865 -37.9860
    -1.0169   0.1192   3.7789   4.3242   4.7934   5.1218   5.8494   6.7582
     8.6196   9.5067   9.7593  10.1683

          k =-0.1924 0.1111 0.5074 (  4386 PWs)   bands (ev):

   -41.4351 -40.4022 -38.7223 -38.5067 -38.4995 -38.1008 -37.9867 -37.9861
    -0.7058  -0.2777   3.9874   4.3766   4.5761   5.0203   5.9774   6.4274
     8.6337   9.4069   9.6210  10.2567

          k =-0.3847 0.2221 0.1268 (  4367 PWs)   bands (ev):

   -41.4499 -40.3826 -38.7323 -38.5087 -38.4912 -38.1010 -37.9869 -37.9860
    -1.0841  -0.0072   3.6644   4.0228   4.7304   5.8656   7.1062   7.3773
     8.8276   9.5349  10.0823  10.3502

          k =-0.3847 0.2221 0.2537 (  4379 PWs)   bands (ev):

   -41.4443 -40.3897 -38.7322 -38.5084 -38.4910 -38.1014 -37.9866 -37.9862
    -0.9663  -0.0482   3.6981   3.8147   4.6974   5.1624   6.8469   7.2509
     9.0706   9.7288  10.5049  10.5890

          k =-0.3847 0.2221 0.3805 (  4379 PWs)   bands (ev):

   -41.4384 -40.3971 -38.7320 -38.5080 -38.4908 -38.1019 -37.9866 -37.9858
    -0.7843  -0.1472   3.4800   3.9446   4.3341   4.9582   6.4996   6.9475
     9.3294  10.0327  10.5746  11.0046

          k =-0.3847 0.2221 0.5074 (  4390 PWs)   bands (ev):

   -41.4347 -40.4022 -38.7319 -38.5079 -38.4906 -38.1021 -37.9869 -37.9858
    -0.5729  -0.3080   3.4799   3.6893   4.3273   4.8838   6.3870   6.6460
     9.6692  10.0917  10.5768  11.3835

          k = 0.1924-0.3332-0.1268 (  4379 PWs)   bands (ev):

   -41.4508 -40.3825 -38.7314 -38.5091 -38.4925 -38.1010 -37.9872 -37.9866
    -1.1665   0.1545   3.4273   4.2147   4.9965   5.8075   6.6102   7.3247
     8.8365   9.4892   9.7153  10.8402

          k = 0.1924-0.3332-0.2537 (  4375 PWs)   bands (ev):

   -41.4450 -40.3890 -38.7307 -38.5086 -38.4919 -38.1010 -37.9869 -37.9862
    -1.0416   0.0815   3.5574   3.8266   4.8336   5.6014   6.2556   7.2188
     9.1276   9.7433   9.9696  10.7468

          k = 0.1924-0.3332-0.3805 (  4389 PWs)   bands (ev):

   -41.4388 -40.3975 -38.7306 -38.5084 -38.4922 -38.1015 -37.9872 -37.9863
    -0.8450  -0.0715   3.5515   3.8559   4.3663   5.1972   6.3194   7.1004
     9.2586   9.6161  10.0214  10.8873

          k = 0.1924-0.3332-0.5074 (  4388 PWs)   bands (ev):

   -41.4348 -40.4022 -38.7304 -38.5081 -38.4919 -38.1015 -37.9873 -37.9859
    -0.6059  -0.2930   3.6057   3.8442   4.2593   4.7312   6.5164   6.9611
     9.0979   9.5432  10.2424  11.2394

          k = 0.1924-0.5553-0.1268 (  4377 PWs)   bands (ev):

   -41.4499 -40.3828 -38.7357 -38.5102 -38.4875 -38.1009 -37.9873 -37.9866
    -0.8617  -0.3373   3.2011   4.6057   5.1603   5.7774   6.8254   7.1605
     8.5016   9.5640   9.9663  10.7541

          k = 0.1924-0.5553-0.2537 (  4381 PWs)   bands (ev):

   -41.4447 -40.3893 -38.7352 -38.5097 -38.4877 -38.1014 -37.9870 -37.9864
    -0.7684  -0.3129   3.3554   4.0683   4.5876   5.5427   6.6464   7.2974
     8.6918  10.0913  10.7383  11.2557

          k = 0.1924-0.5553-0.3805 (  4390 PWs)   bands (ev):

   -41.4388 -40.3972 -38.7350 -38.5093 -38.4880 -38.1020 -37.9873 -37.9862
    -0.6357  -0.3049   3.5238   3.7383   4.0331   5.0515   6.6846   7.3872
     9.0096   9.9599  10.7726  11.7950

          k = 0.1924-0.5553-0.5074 (  4385 PWs)   bands (ev):

   -41.4343 -40.4024 -38.7346 -38.5088 -38.4878 -38.1023 -37.9874 -37.9855
    -0.5078  -0.3377   3.4635   3.5660   4.1038   4.5119   6.8392   7.3055
     9.3571   9.9065  10.3358  11.7373

     the Fermi energy is     7.8653 ev

!    total energy              =    -131.49187028 Ry
     estimated scf accuracy    <          6.6E-10 Ry
     smearing contrib. (-TS)   =       0.00160327 Ry
     internal energy E=F+TS    =    -131.49347355 Ry

     The total energy is F=E-TS. E is the sum of the following terms:
     one-electron contribution =     -45.54853365 Ry
     hartree contribution      =      23.56902148 Ry
     xc contribution           =     -34.52647803 Ry
     ewald contribution        =     -74.98748335 Ry

     convergence has been achieved in   9 iterations

     Forces acting on atoms (cartesian axes, Ry/au):

     atom    1 type  1   force =     0.00000000   -0.00000000    0.01913686
     atom    2 type  1   force =     0.00000000    0.00000000   -0.00534520
     atom    3 type  2   force =     0.05663987    0.03811718    0.01175324
     atom    4 type  2   force =    -0.06133038    0.02999298    0.01175324
     atom    5 type  2   force =     0.00469051   -0.06811016    0.01175324
     atom    6 type  2   force =     0.01508904    0.06668704   -0.00338081
     atom    7 type  2   force =    -0.06529719   -0.02027602   -0.00338081
     atom    8 type  2   force =     0.05020815   -0.04641102   -0.00338081
     atom    9 type  2   force =     0.00000000    0.00000000   -0.14346714
     atom   10 type  2   force =     0.00000000    0.00000000    0.10455818
     The non-local contrib.  to forces
     atom    1 type  1   force =     0.00000000    0.00000000    0.03075475
     atom    2 type  1   force =     0.00000000    0.00000000   -0.00462430
     atom    3 type  2   force =    -0.00080879    0.04049964   -0.02146745
     atom    4 type  2   force =    -0.03466933   -0.02095026   -0.02146745
     atom    5 type  2   force =     0.03547812   -0.01954939   -0.02146745
     atom    6 type  2   force =    -0.05606035    0.00826944   -0.00327520
     atom    7 type  2   force =     0.02086863   -0.05268440   -0.00327520
     atom    8 type  2   force =     0.03519172    0.04441496   -0.00327520
     atom    9 type  2   force =     0.00000000    0.00000000    0.21751007
     atom   10 type  2   force =    -0.00000000   -0.00000000   -0.17830135
     The ionic contribution  to forces
     atom    1 type  1   force =     0.00000010   -0.00000006    0.05059779
     atom    2 type  1   force =    -0.00000008    0.00000005   -0.00748527
     atom    3 type  2   force =     0.18880437    0.04723041    0.13100601
     atom    4 type  2   force =    -0.13530486    0.13989420    0.13100601
     atom    5 type  2   force =    -0.05349944   -0.18712466    0.13100601
     atom    6 type  2   force =     0.15708377    0.06473818   -0.04454567
     atom    7 type  2   force =    -0.13460674    0.10366949   -0.04454567
     atom    8 type  2   force =    -0.02247711   -0.16840762   -0.04454567
     atom    9 type  2   force =    -0.00000001    0.00000000   -1.45957495
     atom   10 type  2   force =     0.00000000   -0.00000000    1.15708139
     The local contribution  to forces
     atom    1 type  1   force =    -0.00000002    0.00000001   -0.06037955
     atom    2 type  1   force =     0.00000001   -0.00000000    0.00641042
     atom    3 type  2   force =    -0.13135739   -0.04961766   -0.09778044
     atom    4 type  2   force =     0.10864885   -0.08895000   -0.09778044
     atom    5 type  2   force =     0.02270854    0.13856766   -0.09778044
     atom    6 type  2   force =    -0.08592780   -0.00632882    0.04442246
     atom    7 type  2   force =     0.04844482   -0.07125125    0.04442246
     atom    8 type  2   force =     0.03748298    0.07758007    0.04442246
     atom    9 type  2   force =     0.00000000    0.00000000    1.09857853
     atom   10 type  2   force =    -0.00000000   -0.00000000   -0.87422044
     The core correction contribution to forces
     atom    1 type  1   force =    -0.00000000    0.00000000   -0.00185090
     atom    2 type  1   force =     0.00000000   -0.00000000    0.00035783
     atom    3 type  2   force =     0.00000000    0.00000000    0.00000000
     atom    4 type  2   force =     0.00000000    0.00000000    0.00000000
     atom    5 type  2   force =     0.00000000    0.00000000    0.00000000
     atom    6 type  2   force =     0.00000000    0.00000000    0.00000000
     atom    7 type  2   force =     0.00000000    0.00000000    0.00000000
     atom    8 type  2   force =     0.00000000    0.00000000    0.00000000
     atom    9 type  2   force =     0.00000000    0.00000000    0.00000000
     atom   10 type  2   force =     0.00000000    0.00000000    0.00000000
     The Hubbard contrib.    to forces
     atom    1 type  1   force =     0.00000000    0.00000000    0.00000000
     atom    2 type  1   force =     0.00000000    0.00000000    0.00000000
     atom    3 type  2   force =     0.00000000    0.00000000    0.00000000
     atom    4 type  2   force =     0.00000000    0.00000000    0.00000000
     atom    5 type  2   force =     0.00000000    0.00000000    0.00000000
     atom    6 type  2   force =     0.00000000    0.00000000    0.00000000
     atom    7 type  2   force =     0.00000000    0.00000000    0.00000000
     atom    8 type  2   force =     0.00000000    0.00000000    0.00000000
     atom    9 type  2   force =     0.00000000    0.00000000    0.00000000
     atom   10 type  2   force =     0.00000000    0.00000000    0.00000000
     The SCF correction term to forces
     atom    1 type  1   force =    -0.00000000    0.00000000    0.00000879
     atom    2 type  1   force =     0.00000000   -0.00000000   -0.00000988
     atom    3 type  2   force =     0.00000166    0.00000479   -0.00001087
     atom    4 type  2   force =    -0.00000498   -0.00000096   -0.00001087
     atom    5 type  2   force =     0.00000332   -0.00000384   -0.00001087
     atom    6 type  2   force =    -0.00000660    0.00000830    0.00001162
     atom    7 type  2   force =    -0.00000389   -0.00000987    0.00001162
     atom    8 type  2   force =     0.00001049    0.00000157    0.00001162
     atom    9 type  2   force =    -0.00000000    0.00000000    0.00001322
     atom   10 type  2   force =     0.00000000   -0.00000000   -0.00000741

     Total force =     0.245695     Total SCF correction =     0.000040


     Computing stress (Cartesian axis) and pressure

          total   stress  (Ry/bohr**3)                   (kbar)     P=      454.03
   0.00340877   0.00000000   0.00000000          501.45        0.00        0.00
   0.00000000   0.00340877   0.00000000            0.00      501.45        0.00
   0.00000000  -0.00000000   0.00244183            0.00       -0.00      359.21

     Energy error            =      2.1E-01 Ry
     Gradient error          =      1.4E-01 Ry/Bohr
     Cell gradient error     =      1.4E+02 kbar

     number of scf cycles    =   2
     number of bfgs steps    =   1

     enthalpy           old  =    -129.2896422148 Ry
     enthalpy           new  =    -129.5016670021 Ry

     CASE: enthalpy          _new < enthalpy          _old

     new trust radius        =       0.2830396882 bohr
ibrav =      4
 celldm(1) =      9.37063256
 celldm(3) =      0.79131793
Input lattice vectors:
     1.04840957     0.00000000     0.00000000
    -0.52420478     0.90794932    -0.00000000
     0.00000000     0.00000000     0.82962529
New lattice vectors in INITIAL alat:
     1.04840957     0.00000000     0.00000000
    -0.52420478     0.90794932     0.00000000
     0.00000000     0.00000000     0.82962529
New lattice vectors in NEW alat (for information only):
     1.00000000     0.00000000     0.00000000
    -0.50000000     0.86602540     0.00000000
     0.00000000     0.00000000     0.79131793
Discrepancy in bohr =     0.000000    0.000000    0.000000
     new conv_thr            =       0.0000000014 Ry

     new unit-cell volume =    563.88217 a.u.^3 (    83.55872 Ang^3 )
     density =      2.21976 g/cm^3

CELL_PARAMETERS (alat=  8.93795027)
   1.048409566   0.000000000   0.000000000
  -0.524204783   0.907949317   0.000000000
   0.000000000   0.000000000   0.829625289

ATOMIC_POSITIONS (crystal)
Si            0.3333333300        0.6666666700        0.1465609927
Si            0.6666666700        0.3333333300        0.6279166717
Li            0.1318562721        0.7443237320        0.6468162424
Li            0.2556762680        0.3875325402        0.6468162424
Li            0.6124674598        0.8681437279        0.6468162424
Li            0.4311891679        0.1270692529        0.1273335653
Li            0.8729307471        0.3041199149        0.1273335653
Li            0.6958800851        0.5688108321        0.1273335653
Li            0.0000000000        0.0000000000       -0.0089459648
Li            0.0000000000        0.0000000000        0.4212688773



     Writing config-only to output data dir ./output/SiLi.save/
     NEW-OLD atomic charge density approx. for the potential
     extrapolated charge   30.77249, renormalised to   32.00000

     total cpu time spent up to now is       26.9 secs

     Self-consistent Calculation

     iteration #  1     ecut=    60.00 Ry     beta= 0.80
     Davidson diagonalization with overlap
     c_bands:  1 eigenvalues not converged
     c_bands:  1 eigenvalues not converged
     ethr =  1.00E-06,  avg # of iterations = 13.1

     total cpu time spent up to now is       29.7 secs

     total energy              =    -131.49408369 Ry
     estimated scf accuracy    <       0.01679280 Ry

     iteration #  2     ecut=    60.00 Ry     beta= 0.80
     Davidson diagonalization with overlap
     ethr =  5.25E-05,  avg # of iterations =  2.7

     total cpu time spent up to now is       30.8 secs

     total energy              =    -131.50434095 Ry
     estimated scf accuracy    <       0.01291454 Ry

     iteration #  3     ecut=    60.00 Ry     beta= 0.80
     Davidson diagonalization with overlap
     ethr =  4.04E-05,  avg # of iterations =  2.0

     total cpu time spent up to now is       31.7 secs

     total energy              =    -131.50643392 Ry
     estimated scf accuracy    <       0.00138382 Ry

     iteration #  4     ecut=    60.00 Ry     beta= 0.80
     Davidson diagonalization with overlap
     ethr =  4.32E-06,  avg # of iterations =  2.5

     total cpu time spent up to now is       32.7 secs

     total energy              =    -131.50667774 Ry
     estimated scf accuracy    <       0.00025543 Ry

     iteration #  5     ecut=    60.00 Ry     beta= 0.80
     Davidson diagonalization with overlap
     ethr =  7.98E-07,  avg # of iterations =  2.5

     total cpu time spent up to now is       33.5 secs

     total energy              =    -131.50672033 Ry
     estimated scf accuracy    <       0.00002922 Ry

     iteration #  6     ecut=    60.00 Ry     beta= 0.80
     Davidson diagonalization with overlap
     ethr =  9.13E-08,  avg # of iterations =  2.5

     total cpu time spent up to now is       34.4 secs

     total energy              =    -131.50672836 Ry
     estimated scf accuracy    <       0.00000166 Ry

     iteration #  7     ecut=    60.00 Ry     beta= 0.80
     Davidson diagonalization with overlap
     ethr =  5.17E-09,  avg # of iterations =  2.6

     total cpu time spent up to now is       35.3 secs

     total energy              =    -131.50672868 Ry
     estimated scf accuracy    <       0.00000019 Ry

     iteration #  8     ecut=    60.00 Ry     beta= 0.80
     Davidson diagonalization with overlap
     ethr =  5.96E-10,  avg # of iterations =  2.0

     total cpu time spent up to now is       36.2 secs

     total energy              =    -131.50672870 Ry
     estimated scf accuracy    <       0.00000001 Ry

     iteration #  9     ecut=    60.00 Ry     beta= 0.80
     Davidson diagonalization with overlap
     ethr =  3.14E-11,  avg # of iterations =  2.7

     total cpu time spent up to now is       37.1 secs

     End of self-consistent calculation

          k = 0.0000 0.0000 0.0000 (  4375 PWs)   bands (ev):

   -40.3421 -39.6859 -38.2268 -37.8689 -37.8689 -37.7759 -37.6316 -37.6316
    -1.3113   1.6485   4.4785   4.5789   4.5789   5.4457   5.4457   7.5406
     9.3108   9.8203  11.8016  12.5873

          k = 0.0000 0.0000 0.1339 (  4322 PWs)   bands (ev):

   -40.3333 -39.6938 -38.2257 -37.8679 -37.8679 -37.7752 -37.6305 -37.6305
    -1.2603   1.4785   4.5605   4.6212   4.6214   5.4471   5.4485   7.5387
     9.0520   9.9089  11.5911  11.6192

          k = 0.0000 0.0000 0.2679 (  4316 PWs)   bands (ev):

   -40.3118 -39.7173 -38.2243 -37.8675 -37.8675 -37.7742 -37.6303 -37.6303
    -1.1074   1.0513   4.7409   4.7415   4.7980   5.4430   5.4446   7.4269
     8.5928   9.9536  10.6381  10.6616

          k = 0.0000 0.0000 0.4018 (  4340 PWs)   bands (ev):

   -40.2841 -39.7463 -38.2227 -37.8665 -37.8665 -37.7739 -37.6292 -37.6292
    -0.8531   0.5218   4.9155   4.9167   5.1781   5.4075   5.4078   6.9631
     8.4542   9.7961   9.9615   9.9804

          k = 0.0000 0.0000 0.5357 (  4334 PWs)   bands (ev):

   -40.2648 -39.7673 -38.2215 -37.8665 -37.8665 -37.7737 -37.6291 -37.6291
    -0.5143   0.0197   5.0965   5.0979   5.3206   5.3215   5.6879   6.3115
     8.5391   9.6043   9.6138   9.6214

          k = 0.0000 0.2203 0.0000 (  4347 PWs)   bands (ev):

   -40.3398 -39.6876 -38.2319 -37.8709 -37.8656 -37.7778 -37.6313 -37.6284
    -1.1866   1.1076   4.1280   4.4990   4.7230   6.0890   6.2838   8.1666
     8.4630   9.6881  11.3674  11.4688

          k = 0.0000 0.2203 0.1339 (  4371 PWs)   bands (ev):

   -40.3322 -39.6967 -38.2319 -37.8708 -37.8659 -37.7781 -37.6316 -37.6288
    -1.1390   1.0263   4.1710   4.2928   4.9118   6.1008   6.2366   7.7772
     8.7068   9.6955  10.6992  11.3485

          k = 0.0000 0.2203 0.2679 (  4370 PWs)   bands (ev):

   -40.3113 -39.7198 -38.2307 -37.8699 -37.8654 -37.7784 -37.6319 -37.6283
    -0.9962   0.7815   4.1178   4.3238   5.0914   5.9246   6.1912   7.3270
     8.8171   9.7016  10.1037  10.9200

          k = 0.0000 0.2203 0.4018 (  4379 PWs)   bands (ev):

   -40.2850 -39.7484 -38.2291 -37.8692 -37.8649 -37.7788 -37.6316 -37.6281
    -0.7614   0.4116   4.1517   4.5512   5.1071   5.5716   6.1950   6.9650
     8.8105   9.6913  10.0305  10.4284

          k = 0.0000 0.2203 0.5357 (  4386 PWs)   bands (ev):

   -40.2665 -39.7690 -38.2284 -37.8689 -37.8647 -37.7792 -37.6319 -37.6281
    -0.4553   0.0102   4.3894   4.6993   4.9175   5.3123   6.3215   6.6175
     8.9146   9.6789   9.9295  10.5052

          k = 0.0000 0.4406 0.0000 (  4375 PWs)   bands (ev):

   -40.3393 -39.6876 -38.2383 -37.8749 -37.8631 -37.7801 -37.6317 -37.6239
    -0.8570   0.2791   3.7740   4.4188   5.3221   6.9317   7.3067   7.7312
     8.9220   9.7806  10.2682  10.8087

          k = 0.0000 0.4406 0.1339 (  4367 PWs)   bands (ev):

   -40.3311 -39.6962 -38.2378 -37.8740 -37.8625 -37.7805 -37.6316 -37.6236
    -0.8184   0.2698   3.8285   4.3076   5.2600   6.4232   7.3218   7.8040
     8.9643   9.7903  10.1758  10.8269

          k = 0.0000 0.4406 0.2679 (  4379 PWs)   bands (ev):

   -40.3103 -39.7194 -38.2372 -37.8723 -37.8615 -37.7821 -37.6319 -37.6232
    -0.7051   0.2267   3.9819   4.0615   5.1400   5.6663   7.2164   7.5109
     9.0511   9.7663  10.5011  11.3656

          k = 0.0000 0.4406 0.4018 (  4379 PWs)   bands (ev):

   -40.2846 -39.7479 -38.2365 -37.8707 -37.8603 -37.7841 -37.6323 -37.6230
    -0.5283   0.1234   3.8355   4.2413   4.7277   5.3747   6.7784   7.1888
     9.3142  10.0568  10.9499  11.4521

          k = 0.0000 0.4406 0.5357 (  4390 PWs)   bands (ev):

   -40.2661 -39.7684 -38.2361 -37.8697 -37.8593 -37.7854 -37.6328 -37.6228
    -0.3199  -0.0432   3.8409   4.1374   4.6753   5.1899   6.5844   6.8497
     9.7593  10.4432  10.8704  11.8041

          k = 0.1908 0.3304 0.0000 (  4371 PWs)   bands (ev):

   -40.3395 -39.6874 -38.2373 -37.8753 -37.8622 -37.7794 -37.6321 -37.6243
    -0.9430   0.4517   3.5635   5.0596   5.1783   6.2037   7.4399   7.5594
     8.8450   9.6097  10.2056  11.2307

          k = 0.1908 0.3304 0.1339 (  4379 PWs)   bands (ev):

   -40.3322 -39.6961 -38.2372 -37.8748 -37.8623 -37.7800 -37.6325 -37.6245
    -0.9020   0.4285   3.6162   4.6605   5.4747   6.1450   6.9445   7.5131
     8.9579   9.8428  10.3035  11.0729

          k = 0.1908 0.3304 0.2679 (  4375 PWs)   bands (ev):

   -40.3108 -39.7192 -38.2361 -37.8727 -37.8615 -37.7815 -37.6325 -37.6236
    -0.7803   0.3492   3.7794   4.2313   5.4563   5.9858   6.4439   7.2232
     9.2892  10.0169  10.4720  10.8197

          k = 0.1908 0.3304 0.4018 (  4389 PWs)   bands (ev):

   -40.2850 -39.7484 -38.2357 -37.8711 -37.8609 -37.7837 -37.6332 -37.6235
    -0.5871   0.1920   3.9669   4.0646   4.9225   5.6602   6.4161   7.1197
     9.5974   9.8851  10.2435  11.1285

          k = 0.1908 0.3304 0.5357 (  4388 PWs)   bands (ev):

   -40.2662 -39.7688 -38.2349 -37.8699 -37.8604 -37.7848 -37.6332 -37.6232
    -0.3508  -0.0293   3.9911   4.2710   4.5812   5.0971   6.7176   7.0340
     9.4345   9.7910  10.5397  11.6783

          k = 0.1908 0.5507 0.0000 (  4385 PWs)   bands (ev):

   -40.3389 -39.6874 -38.2404 -37.8788 -37.8597 -37.7794 -37.6327 -37.6217
    -0.6202  -0.0844   3.3325   5.3476   5.7287   6.5619   6.8782   7.7632
     8.4723   9.9004  10.0678  10.9574

          k = 0.1908 0.5507 0.1339 (  4377 PWs)   bands (ev):

   -40.3308 -39.6965 -38.2402 -37.8776 -37.8596 -37.7803 -37.6328 -37.6218
    -0.5885  -0.0779   3.3849   5.0603   5.7807   6.0989   7.1164   7.4407
     8.4500  10.1544  10.5256  11.2802

          k = 0.1908 0.5507 0.2679 (  4381 PWs)   bands (ev):

   -40.3102 -39.7196 -38.2395 -37.8753 -37.8589 -37.7828 -37.6331 -37.6213
    -0.4983  -0.0636   3.5495   4.5488   5.1540   6.0303   6.7842   7.3436
     8.6983  10.3537  11.2986  11.7653

          k = 0.1908 0.5507 0.4018 (  4390 PWs)   bands (ev):

   -40.2848 -39.7481 -38.2390 -37.8723 -37.8585 -37.7859 -37.6336 -37.6209
    -0.3686  -0.0634   3.8031   4.1524   4.5004   5.5750   6.7185   7.4435
     9.1225  10.1762  11.3193  12.1520

          k = 0.1908 0.5507 0.5357 (  4385 PWs)   bands (ev):

   -40.2666 -39.7679 -38.2384 -37.8705 -37.8578 -37.7880 -37.6337 -37.6203
    -0.2393  -0.1004   3.8614   4.0623   4.3171   4.9381   6.9919   7.3704
     9.6098  10.0279  10.8382  12.0120

          k =-0.1908 0.1101 0.1339 (  4371 PWs)   bands (ev):

   -40.3322 -39.6968 -38.2319 -37.8707 -37.8659 -37.7781 -37.6316 -37.6288
    -1.1388   1.0239   4.1814   4.3218   4.8825   6.0872   6.2053   7.8441
     8.6248   9.7868  10.8020  11.2736

          k =-0.1908 0.1101 0.2679 (  4370 PWs)   bands (ev):

   -40.3113 -39.7199 -38.2307 -37.8699 -37.8655 -37.7784 -37.6319 -37.6282
    -0.9957   0.7782   4.1311   4.3479   5.0977   5.8709   6.1454   7.3442
     8.8639   9.7581  10.2366  10.7277

          k =-0.1908 0.1101 0.4018 (  4379 PWs)   bands (ev):

   -40.2850 -39.7485 -38.2291 -37.8692 -37.8650 -37.7788 -37.6316 -37.6280
    -0.7606   0.4088   4.1502   4.5882   5.1689   5.4858   6.1325   6.9471
     9.0302   9.6391  10.0203  10.3590

          k =-0.1908 0.1101 0.5357 (  4386 PWs)   bands (ev):

   -40.2665 -39.7690 -38.2285 -37.8689 -37.8647 -37.7792 -37.6319 -37.6281
    -0.4541   0.0084   4.3710   4.7513   4.9400   5.2638   6.2884   6.6102
     9.0903   9.5221   9.9559  10.5102

          k =-0.3815 0.2203 0.1339 (  4367 PWs)   bands (ev):

   -40.3312 -39.6962 -38.2378 -37.8740 -37.8626 -37.7805 -37.6316 -37.6235
    -0.8174   0.2668   3.8323   4.3345   5.2506   6.3474   7.3758   7.7483
     9.0307   9.8016  10.2888  10.8212

          k =-0.3815 0.2203 0.2679 (  4379 PWs)   bands (ev):

   -40.3103 -39.7194 -38.2372 -37.8724 -37.8615 -37.7821 -37.6319 -37.6232
    -0.7030   0.2214   3.9859   4.0978   5.1515   5.6003   7.1874   7.4524
     9.2010   9.8654  10.5663  11.1600

          k =-0.3815 0.2203 0.4018 (  4379 PWs)   bands (ev):

   -40.2847 -39.7479 -38.2365 -37.8707 -37.8603 -37.7842 -37.6323 -37.6230
    -0.5251   0.1170   3.8564   4.2630   4.7190   5.3444   6.7568   7.1277
     9.4829  10.1791  10.8370  11.3473

          k =-0.3815 0.2203 0.5357 (  4390 PWs)   bands (ev):

   -40.2662 -39.7683 -38.2361 -37.8697 -37.8593 -37.7855 -37.6328 -37.6228
    -0.3161  -0.0483   3.8542   4.1365   4.6788   5.1770   6.5907   6.8129
     9.9107  10.3715  10.8516  11.7515

          k = 0.1908-0.3304-0.1339 (  4379 PWs)   bands (ev):

   -40.3322 -39.6961 -38.2372 -37.8748 -37.8623 -37.7800 -37.6325 -37.6245
    -0.9013   0.4305   3.6218   4.6686   5.3975   6.1259   7.0002   7.5777
     8.9731   9.8264  10.3011  11.0595

          k = 0.1908-0.3304-0.2679 (  4375 PWs)   bands (ev):

   -40.3108 -39.7193 -38.2361 -37.8727 -37.8615 -37.7814 -37.6325 -37.6236
    -0.7791   0.3519   3.7896   4.2438   5.3081   5.9619   6.5396   7.3384
     9.2705  10.1106  10.2756  10.9096

          k = 0.1908-0.3304-0.4018 (  4389 PWs)   bands (ev):

   -40.2850 -39.7485 -38.2357 -37.8711 -37.8609 -37.7836 -37.6332 -37.6235
    -0.5857   0.1938   3.9728   4.0978   4.8311   5.5810   6.5330   7.1867
     9.5455   9.9569  10.1609  11.1230

          k = 0.1908-0.3304-0.5357 (  4388 PWs)   bands (ev):

   -40.2662 -39.7688 -38.2349 -37.8698 -37.8604 -37.7848 -37.6332 -37.6232
    -0.3499  -0.0290   4.0169   4.2522   4.5789   5.0528   6.7785   7.0325
     9.4403   9.7514  10.5649  11.6401

          k = 0.1908-0.5507-0.1339 (  4377 PWs)   bands (ev):

   -40.3308 -39.6966 -38.2403 -37.8776 -37.8596 -37.7803 -37.6328 -37.6217
    -0.5872  -0.0758   3.3935   5.0371   5.6416   6.2012   7.1181   7.4823
     8.5036  10.1753  10.6732  11.1644

          k = 0.1908-0.5507-0.2679 (  4381 PWs)   bands (ev):

   -40.3101 -39.7197 -38.2395 -37.8753 -37.8589 -37.7827 -37.6331 -37.6212
    -0.4960  -0.0603   3.5661   4.5294   5.0796   5.9571   6.9098   7.3935
     8.7373  10.3960  11.3271  11.7081

          k = 0.1908-0.5507-0.4018 (  4390 PWs)   bands (ev):

   -40.2848 -39.7481 -38.2390 -37.8724 -37.8585 -37.7859 -37.6336 -37.6208
    -0.3662  -0.0606   3.8197   4.1527   4.4655   5.4682   6.8543   7.4679
     9.1335  10.2059  11.2413  12.0935

          k = 0.1908-0.5507-0.5357 (  4385 PWs)   bands (ev):

   -40.2666 -39.7679 -38.2384 -37.8705 -37.8578 -37.7880 -37.6337 -37.6203
    -0.2379  -0.0996   3.8640   4.0411   4.3647   4.8705   7.0609   7.3552
     9.5846  10.0980  10.7703  11.9807

     the Fermi energy is     8.1169 ev

!    total energy              =    -131.50672871 Ry
     estimated scf accuracy    <          4.0E-10 Ry
     smearing contrib. (-TS)   =       0.00145701 Ry
     internal energy E=F+TS    =    -131.50818571 Ry

     The total energy is F=E-TS. E is the sum of the following terms:
     one-electron contribution =     -43.71431488 Ry
     hartree contribution      =      23.24923192 Ry
     xc contribution           =     -34.64752465 Ry
     ewald contribution        =     -76.39557810 Ry

     convergence has been achieved in   9 iterations

     Forces acting on atoms (cartesian axes, Ry/au):

     atom    1 type  1   force =     0.00000000    0.00000000    0.01277290
     atom    2 type  1   force =     0.00000000    0.00000000   -0.00294481
     atom    3 type  2   force =     0.02823398    0.01544835    0.00450835
     atom    4 type  2   force =    -0.02749565    0.01672717    0.00450835
     atom    5 type  2   force =    -0.00073833   -0.03217552    0.00450835
     atom    6 type  2   force =    -0.02900482   -0.00669031    0.00253110
     atom    7 type  2   force =     0.02029639   -0.02177375    0.00253110
     atom    8 type  2   force =     0.00870843    0.02846406    0.00253110
     atom    9 type  2   force =     0.00000000    0.00000000   -0.05766729
     atom   10 type  2   force =     0.00000000    0.00000000    0.02672085
     The non-local contrib.  to forces
     atom    1 type  1   force =     0.00000000    0.00000000    0.02191053
     atom    2 type  1   force =     0.00000000    0.00000000    0.00176339
     atom    3 type  2   force =    -0.03725302    0.05345382   -0.01984371
     atom    4 type  2   force =    -0.02766585   -0.05898897   -0.01984371
     atom    5 type  2   force =     0.06491888    0.00553515   -0.01984371
     atom    6 type  2   force =    -0.05181586   -0.00020949   -0.00124388
     atom    7 type  2   force =     0.02608936   -0.04476911   -0.00124388
     atom    8 type  2   force =     0.02572650    0.04497860   -0.00124388
     atom    9 type  2   force =     0.00000000    0.00000000    0.13941733
     atom   10 type  2   force =    -0.00000000   -0.00000000   -0.09953142
     The ionic contribution  to forces
     atom    1 type  1   force =     0.00000009   -0.00000005    0.07697977
     atom    2 type  1   force =    -0.00000008    0.00000004   -0.05275756
     atom    3 type  2   force =     0.08463453   -0.02962672    0.03849132
     atom    4 type  2   force =    -0.01665972    0.08810904    0.03849132
     atom    5 type  2   force =    -0.06797474   -0.05848237    0.03849132
     atom    6 type  2   force =    -0.23823341   -0.35526648    0.03642539
     atom    7 type  2   force =     0.42678655   -0.02868290    0.03642539
     atom    8 type  2   force =    -0.18855322    0.38394943    0.03642539
     atom    9 type  2   force =    -0.00000000    0.00000000   -0.61369436
     atom   10 type  2   force =     0.00000000   -0.00000000    0.36472201
     The local contribution  to forces
     atom    1 type  1   force =    -0.00000002    0.00000001   -0.08477634
     atom    2 type  1   force =     0.00000000   -0.00000000    0.04802540
     atom    3 type  2   force =    -0.01915278   -0.00837485   -0.01413495
     atom    4 type  2   force =     0.01682922   -0.01239937   -0.01413495
     atom    5 type  2   force =     0.00232356    0.02077422   -0.01413495
     atom    6 type  2   force =     0.26104103    0.34878929   -0.03265617
     atom    7 type  2   force =    -0.43258090    0.05167352   -0.03265617
     atom    8 type  2   force =     0.17153987   -0.40046281   -0.03265617
     atom    9 type  2   force =     0.00000000    0.00000000    0.41660634
     atom   10 type  2   force =    -0.00000000   -0.00000000   -0.23846985
     The core correction contribution to forces
     atom    1 type  1   force =    -0.00000000    0.00000000   -0.00134537
     atom    2 type  1   force =     0.00000000   -0.00000000    0.00002708
     atom    3 type  2   force =     0.00000000    0.00000000    0.00000000
     atom    4 type  2   force =     0.00000000    0.00000000    0.00000000
     atom    5 type  2   force =     0.00000000    0.00000000    0.00000000
     atom    6 type  2   force =     0.00000000    0.00000000    0.00000000
     atom    7 type  2   force =     0.00000000    0.00000000    0.00000000
     atom    8 type  2   force =     0.00000000    0.00000000    0.00000000
     atom    9 type  2   force =     0.00000000    0.00000000    0.00000000
     atom   10 type  2   force =     0.00000000    0.00000000    0.00000000
     The Hubbard contrib.    to forces
     atom    1 type  1   force =     0.00000000    0.00000000    0.00000000
     atom    2 type  1   force =     0.00000000    0.00000000    0.00000000
     atom    3 type  2   force =     0.00000000    0.00000000    0.00000000
     atom    4 type  2   force =     0.00000000    0.00000000    0.00000000
     atom    5 type  2   force =     0.00000000    0.00000000    0.00000000
     atom    6 type  2   force =     0.00000000    0.00000000    0.00000000
     atom    7 type  2   force =     0.00000000    0.00000000    0.00000000
     atom    8 type  2   force =     0.00000000    0.00000000    0.00000000
     atom    9 type  2   force =     0.00000000    0.00000000    0.00000000
     atom   10 type  2   force =     0.00000000    0.00000000    0.00000000
     The SCF correction term to forces
     atom    1 type  1   force =     0.00000000   -0.00000000    0.00000357
     atom    2 type  1   force =    -0.00000000    0.00000000   -0.00000386
     atom    3 type  2   force =     0.00000523   -0.00000390   -0.00000505
     atom    4 type  2   force =     0.00000077    0.00000648   -0.00000505
     atom    5 type  2   force =    -0.00000600   -0.00000258   -0.00000505
     atom    6 type  2   force =     0.00000339   -0.00000356    0.00000502
     atom    7 type  2   force =     0.00000139    0.00000472    0.00000502
     atom    8 type  2   force =    -0.00000478   -0.00000116    0.00000502
     atom    9 type  2   force =    -0.00000000    0.00000000    0.00000266
     atom   10 type  2   force =     0.00000000   -0.00000000   -0.00000063

     Total force =     0.100285     Total SCF correction =     0.000020


     Computing stress (Cartesian axis) and pressure

          total   stress  (Ry/bohr**3)                   (kbar)     P=      511.97
   0.00329489   0.00000000   0.00000000          484.69        0.00        0.00
   0.00000000   0.00329489   0.00000000            0.00      484.69        0.00
   0.00000000  -0.00000000   0.00385109            0.00       -0.00      566.52

     Energy error            =      8.8E-02 Ry
     Gradient error          =      5.8E-02 Ry/Bohr
     Cell gradient error     =      6.7E+01 kbar

     number of scf cycles    =   3
     number of bfgs steps    =   2

     enthalpy           old  =    -129.5016670021 Ry
     enthalpy           new  =    -129.5901321492 Ry

     CASE: enthalpy          _new < enthalpy          _old

     new trust radius        =       0.0937165404 bohr
ibrav =      4
 celldm(1) =      9.36387945
 celldm(3) =      0.79728732
Input lattice vectors:
     1.04765401     0.00000000     0.00000000
    -0.52382701     0.90729499    -0.00000000
     0.00000000     0.00000000     0.83528126
New lattice vectors in INITIAL alat:
     1.04765401     0.00000000     0.00000000
    -0.52382701     0.90729499     0.00000000
     0.00000000     0.00000000     0.83528126
New lattice vectors in NEW alat (for information only):
     1.00000000     0.00000000     0.00000000
    -0.50000000     0.86602540     0.00000000
     0.00000000     0.00000000     0.79728732
Discrepancy in bohr =     0.000000    0.000000    0.000000
     new conv_thr            =       0.0000000006 Ry

     new unit-cell volume =    566.90845 a.u.^3 (    84.00716 Ang^3 )
     density =      2.20791 g/cm^3

CELL_PARAMETERS (alat=  8.93795027)
   1.047654011   0.000000000   0.000000000
  -0.523827005   0.907294987   0.000000000
   0.000000000   0.000000000   0.835281257

ATOMIC_POSITIONS (crystal)
Si            0.3333333300        0.6666666700        0.1488497254
Si            0.6666666700        0.3333333300        0.6273463843
Li            0.1395043993        0.7483242514        0.6478207933
Li            0.2516757486        0.3911801480        0.6478207933
Li            0.6088198520        0.8604956007        0.6478207933
Li            0.4291176568        0.1291339576        0.1274869696
Li            0.8708660424        0.2999836992        0.1274869696
Li            0.7000163008        0.5708823432        0.1274869696
Li            0.0000000000        0.0000000000       -0.0215844880
Li            0.0000000000        0.0000000000        0.4287150896



     Writing config-only to output data dir ./output/SiLi.save/
     NEW-OLD atomic charge density approx. for the potential
     extrapolated charge   32.17062, renormalised to   32.00000

     total cpu time spent up to now is       39.6 secs

     Self-consistent Calculation

     iteration #  1     ecut=    60.00 Ry     beta= 0.80
     Davidson diagonalization with overlap
     ethr =  1.00E-06,  avg # of iterations =  8.0

     total cpu time spent up to now is       41.5 secs

     total energy              =    -131.53124268 Ry
     estimated scf accuracy    <       0.00053034 Ry

     iteration #  2     ecut=    60.00 Ry     beta= 0.80
     Davidson diagonalization with overlap
     ethr =  1.66E-06,  avg # of iterations =  3.2

     total cpu time spent up to now is       42.7 secs

     total energy              =    -131.53151539 Ry
     estimated scf accuracy    <       0.00062572 Ry

     iteration #  3     ecut=    60.00 Ry     beta= 0.80
     Davidson diagonalization with overlap
     ethr =  1.66E-06,  avg # of iterations =  2.0

     total cpu time spent up to now is       43.5 secs

     total energy              =    -131.53161566 Ry
     estimated scf accuracy    <       0.00002712 Ry

     iteration #  4     ecut=    60.00 Ry     beta= 0.80
     Davidson diagonalization with overlap
     ethr =  8.48E-08,  avg # of iterations =  2.2

     total cpu time spent up to now is       44.4 secs

     total energy              =    -131.53161948 Ry
     estimated scf accuracy    <       0.00000564 Ry

     iteration #  5     ecut=    60.00 Ry     beta= 0.80
     Davidson diagonalization with overlap
     ethr =  1.76E-08,  avg # of iterations =  2.3

     total cpu time spent up to now is       45.2 secs

     total energy              =    -131.53162073 Ry
     estimated scf accuracy    <       0.00000193 Ry

     iteration #  6     ecut=    60.00 Ry     beta= 0.80
     Davidson diagonalization with overlap
     ethr =  6.03E-09,  avg # of iterations =  2.0

     total cpu time spent up to now is       46.1 secs

     total energy              =    -131.53162110 Ry
     estimated scf accuracy    <       0.00000005 Ry

     iteration #  7     ecut=    60.00 Ry     beta= 0.80
     Davidson diagonalization with overlap
     ethr =  1.45E-10,  avg # of iterations =  3.2

     total cpu time spent up to now is       47.0 secs

     total energy              =    -131.53162111 Ry
     estimated scf accuracy    <          1.7E-09 Ry

     iteration #  8     ecut=    60.00 Ry     beta= 0.80
     Davidson diagonalization with overlap
     ethr =  5.34E-12,  avg # of iterations =  2.8

     total cpu time spent up to now is       47.8 secs

     End of self-consistent calculation

          k = 0.0000 0.0000 0.0000 (  4375 PWs)   bands (ev):

   -40.1412 -39.6221 -38.2721 -37.9201 -37.9201 -37.8974 -37.7310 -37.7310
    -1.3525   1.6455   4.3915   4.5210   4.5210   5.4765   5.4765   7.5220
     9.1751   9.6538  11.6518  12.4797

          k = 0.0000 0.0000 0.1330 (  4322 PWs)   bands (ev):

   -40.1309 -39.6314 -38.2709 -37.9190 -37.9190 -37.8966 -37.7299 -37.7299
    -1.3023   1.4629   4.4950   4.5628   4.5668   5.4738   5.4777   7.5114
     8.9676   9.7050  11.5603  11.5919

          k = 0.0000 0.0000 0.2660 (  4316 PWs)   bands (ev):

   -40.1049 -39.6591 -38.2695 -37.9186 -37.9186 -37.8957 -37.7298 -37.7298
    -1.1517   1.0159   4.6858   4.6939   4.7701   5.4581   5.4665   7.3777
     8.5836   9.7202  10.6358  10.6626

          k = 0.0000 0.0000 0.3991 (  4340 PWs)   bands (ev):

   -40.0699 -39.6954 -38.2681 -37.9176 -37.9176 -37.8954 -37.7288 -37.7288
    -0.9009   0.4757   4.8697   4.8818   5.1737   5.4014   5.4144   6.9223
     8.4769   9.5619   9.9894  10.0126

          k = 0.0000 0.0000 0.5321 (  4334 PWs)   bands (ev):

   -40.0436 -39.7232 -38.2668 -37.9177 -37.9177 -37.8952 -37.7287 -37.7287
    -0.5675  -0.0271   5.0749   5.0889   5.2827   5.2973   5.6873   6.2965
     8.5729   9.3650   9.6659   9.6757

          k = 0.0000 0.2204 0.0000 (  4347 PWs)   bands (ev):

   -40.1382 -39.6239 -38.2778 -37.9264 -37.9171 -37.8949 -37.7308 -37.7269
    -1.2258   1.0938   4.0921   4.4767   4.6426   6.0610   6.2933   8.1715
     8.3482   9.5324  11.2651  11.3807

          k = 0.0000 0.2204 0.1330 (  4371 PWs)   bands (ev):

   -40.1293 -39.6343 -38.2778 -37.9260 -37.9173 -37.8957 -37.7312 -37.7273
    -1.1791   1.0059   4.1381   4.2479   4.8688   6.0734   6.2348   7.7237
     8.6747   9.5317  10.6688  11.2702

          k = 0.0000 0.2204 0.2660 (  4370 PWs)   bands (ev):

   -40.1041 -39.6616 -38.2767 -37.9239 -37.9169 -37.8972 -37.7315 -37.7269
[...]

     total cpu time spent up to now is      152.3 secs

     total energy              =    -131.55794389 Ry
     estimated scf accuracy    <       0.00000002 Ry

     iteration #  8     ecut=    60.00 Ry     beta= 0.80
     Davidson diagonalization with overlap
     ethr =  4.77E-11,  avg # of iterations =  3.6

     total cpu time spent up to now is      153.1 secs

     total energy              =    -131.55794389 Ry
     estimated scf accuracy    <          1.7E-09 Ry

     iteration #  9     ecut=    60.00 Ry     beta= 0.80
     Davidson diagonalization with overlap
     ethr =  5.35E-12,  avg # of iterations =  2.3

     total cpu time spent up to now is      153.9 secs

     End of self-consistent calculation

          k = 0.0000 0.0000 0.0000 (  4339 PWs)   bands (ev):

   -39.4561 -39.0487 -38.0630 -38.0225 -37.7810 -37.7810 -37.7528 -37.7528
    -1.2152   2.3353   4.1717   4.6412   4.6412   6.1518   6.1518   7.9802
     9.5102   9.8024  11.0174  12.1146

          k = 0.0000 0.0000 0.1262 (  4333 PWs)   bands (ev):

   -39.4469 -39.0598 -38.0602 -38.0234 -37.7805 -37.7805 -37.7530 -37.7530
    -1.1643   1.9948   4.5058   4.6864   4.6867   6.1143   6.1147   7.9021
     9.4907   9.7880  11.2212  11.8951

          k = 0.0000 0.0000 0.2524 (  4297 PWs)   bands (ev):

   -39.4204 -39.0897 -38.0545 -38.0235 -37.7776 -37.7775 -37.7550 -37.7549
    -1.0103   1.3472   4.8183   4.8188   5.1330   6.0002   6.0011   7.6695
     9.4438   9.7392  11.3761  11.3832

          k = 0.0000 0.0000 0.3787 (  4298 PWs)   bands (ev):

   -39.3837 -39.1314 -38.0475 -38.0253 -37.7738 -37.7738 -37.7584 -37.7584
    -0.7523   0.6929   5.0245   5.0253   5.7611   5.8099   5.8110   7.3041
     9.4213   9.6533  10.8831  10.8870

          k = 0.0000 0.0000 0.5049 (  4304 PWs)   bands (ev):

   -39.3519 -39.1671 -38.0423 -38.0276 -37.7694 -37.7694 -37.7625 -37.7624
    -0.3974   0.1263   5.2814   5.2824   5.5605   5.5617   6.3325   6.8486
     9.4446   9.5635  10.6722  10.6758

          k = 0.0000 0.2294 0.0000 (  4335 PWs)   bands (ev):

   -39.4504 -39.0481 -38.0672 -38.0495 -37.7830 -37.7610 -37.7510 -37.7481
    -1.0831   1.5919   4.3509   4.4053   4.9751   6.4524   6.9028   8.5177
     8.5808   9.9654  10.9570  11.1109

          k = 0.0000 0.2294 0.1262 (  4333 PWs)   bands (ev):

   -39.4413 -39.0589 -38.0656 -38.0496 -37.7822 -37.7602 -37.7520 -37.7485
    -1.0358   1.4451   4.2737   4.4036   5.2469   6.3954   6.8016   7.8956
     9.1820   9.9488  10.8713  11.1974

          k = 0.0000 0.2294 0.2524 (  4310 PWs)   bands (ev):

   -39.4154 -39.0884 -38.0624 -38.0484 -37.7790 -37.7578 -37.7541 -37.7495
    -0.8939   1.0662   4.2136   4.5636   5.6101   6.2247   6.5116   7.3983
     9.6306  10.0239  10.5957  11.2607

          k = 0.0000 0.2294 0.3787 (  4308 PWs)   bands (ev):

   -39.3796 -39.1291 -38.0594 -38.0470 -37.7746 -37.7582 -37.7557 -37.7508
    -0.6579   0.5852   4.3489   4.8266   5.4767   6.0912   6.3097   7.0901
     9.7576  10.2961  10.5770  11.1097

          k = 0.0000 0.2294 0.5049 (  4321 PWs)   bands (ev):

   -39.3485 -39.1637 -38.0581 -38.0457 -37.7705 -37.7629 -37.7554 -37.7512
    -0.3372   0.1177   4.6428   5.0363   5.1811   5.6323   6.5925   6.8378
     9.9121  10.2218  10.8206  11.3202

          k = 0.0000 0.4588 0.0000 (  4326 PWs)   bands (ev):

   -39.4415 -39.0468 -38.0976 -38.0607 -37.7849 -37.7534 -37.7491 -37.7231
    -0.7283   0.5837   4.0736   5.0164   5.1459   6.9651   7.0698   8.4504
     9.4552  10.3665  10.4437  10.9841

          k = 0.0000 0.4588 0.1262 (  4326 PWs)   bands (ev):

   -39.4327 -39.0570 -38.0960 -38.0617 -37.7841 -37.7518 -37.7498 -37.7240
    -0.6920   0.5536   4.1355   4.6014   5.4853   6.3848   7.3800   8.0163
     9.7536  10.4126  10.5623  11.2893

          k = 0.0000 0.4588 0.2524 (  4336 PWs)   bands (ev):

   -39.4078 -39.0860 -38.0927 -38.0644 -37.7812 -37.7529 -37.7480 -37.7258
    -0.5854   0.4578   4.2060   4.3233   5.4072   6.0733   7.1984   7.3995
    10.2698  10.5850  11.1309  11.8952

          k = 0.0000 0.4588 0.3787 (  4339 PWs)   bands (ev):

   -39.3728 -39.1252 -38.0878 -38.0678 -37.7768 -37.7576 -37.7424 -37.7289
    -0.4146   0.2882   4.0138   4.6385   4.8243   6.3036   6.3904   7.1877
    10.6888  10.9662  11.7514  12.2496

          k = 0.0000 0.4588 0.5049 (  4333 PWs)   bands (ev):

   -39.3425 -39.1578 -38.0833 -38.0706 -37.7716 -37.7631 -37.7377 -37.7320
    -0.1974   0.0652   4.0672   4.3435   5.0808   5.6814   6.5962   6.8905
    11.1183  11.5255  11.5670  12.2823

          k = 0.1987 0.3441 0.0000 (  4333 PWs)   bands (ev):

   -39.4430 -39.0473 -38.0842 -38.0676 -37.7805 -37.7570 -37.7492 -37.7294
    -0.8194   0.7809   3.9183   4.8571   5.7043   6.7971   7.3196   7.4898
     9.4396  10.2499  10.6091  10.8881

          k = 0.1987 0.3441 0.1262 (  4324 PWs)   bands (ev):

   -39.4339 -39.0577 -38.0834 -38.0676 -37.7793 -37.7574 -37.7483 -37.7294
    -0.7804   0.7357   3.9728   4.5867   6.0003   6.4886   7.2003   7.2806
     9.8486  10.4069  10.7141  10.8269

          k = 0.1987 0.3441 0.2524 (  4338 PWs)   bands (ev):

   -39.4096 -39.0865 -38.0821 -38.0672 -37.7770 -37.7590 -37.7467 -37.7310
    -0.6646   0.5952   4.1338   4.2520   5.8208   6.4385   6.6090   7.2589
    10.5190  10.5330  10.7031  11.1205

          k = 0.1987 0.3441 0.3787 (  4343 PWs)   bands (ev):

   -39.3743 -39.1261 -38.0804 -38.0670 -37.7737 -37.7617 -37.7437 -37.7328
    -0.4765   0.3640   4.1204   4.3948   5.1798   5.9506   6.7918   7.2513
    10.3449  10.3923  11.3569  11.8152

          k = 0.1987 0.3441 0.5049 (  4331 PWs)   bands (ev):

   -39.3438 -39.1589 -38.0787 -38.0664 -37.7700 -37.7644 -37.7409 -37.7349
    -0.2319   0.0834   4.2332   4.5156   4.9151   5.3673   7.0404   7.1907
    10.2022  10.2531  12.0532  12.4393

          k = 0.1987 0.5735 0.0000 (  4345 PWs)   bands (ev):

   -39.4387 -39.0471 -38.0986 -38.0739 -37.7765 -37.7589 -37.7489 -37.7172
    -0.4593   0.1460   3.7228   5.4517   6.1240   6.3688   7.2304   8.0506
     9.1001   9.9309  10.1091  10.4482

          k = 0.1987 0.5735 0.1262 (  4336 PWs)   bands (ev):

   -39.4300 -39.0569 -38.0978 -38.0742 -37.7759 -37.7589 -37.7474 -37.7174
    -0.4331   0.1445   3.7770   5.0965   5.9188   6.4243   7.1567   7.9278
     9.1902  10.1916  10.6172  10.7601

          k = 0.1987 0.5735 0.2524 (  4335 PWs)   bands (ev):

   -39.4050 -39.0854 -38.0956 -38.0753 -37.7744 -37.7598 -37.7440 -37.7192
    -0.3579   0.1326   3.9341   4.6032   5.2341   6.5360   6.7820   7.9341
     9.4178  10.6203  11.5932  11.6438

          k = 0.1987 0.5735 0.3787 (  4326 PWs)   bands (ev):

   -39.3704 -39.1236 -38.0929 -38.0771 -37.7719 -37.7619 -37.7379 -37.7221
    -0.2446   0.0929   4.1032   4.3627   4.6434   5.8247   7.0885   7.8390
     9.7365  10.6608  12.4724  12.8703

          k = 0.1987 0.5735 0.5049 (  4326 PWs)   bands (ev):

   -39.3407 -39.1560 -38.0905 -38.0785 -37.7698 -37.7647 -37.7327 -37.7251
    -0.1158   0.0128   4.0767   4.2452   4.6701   5.2025   7.3709   7.6338
    10.1085  10.4546  12.5921  12.8726

          k =-0.1987 0.1147 0.1262 (  4333 PWs)   bands (ev):

   -39.4413 -39.0589 -38.0665 -38.0486 -37.7823 -37.7612 -37.7518 -37.7476
    -1.0360   1.4468   4.2572   4.4064   5.2694   6.3778   6.7994   7.9048
     9.2178   9.9479  10.8646  11.0673

          k =-0.1987 0.1147 0.2524 (  4310 PWs)   bands (ev):

   -39.4153 -39.0884 -38.0639 -38.0467 -37.7790 -37.7597 -37.7541 -37.7478
    -0.8943   1.0684   4.1950   4.5691   5.6597   6.1720   6.5060   7.4239
     9.6927   9.9853  10.5963  11.1710

          k =-0.1987 0.1147 0.3787 (  4308 PWs)   bands (ev):

   -39.3797 -39.1290 -38.0608 -38.0456 -37.7748 -37.7583 -37.7579 -37.7485
    -0.6585   0.5870   4.3297   4.8345   5.5150   6.0823   6.2668   7.1176
     9.8241  10.2151  10.5896  11.1023

          k =-0.1987 0.1147 0.5049 (  4321 PWs)   bands (ev):

   -39.3485 -39.1636 -38.0587 -38.0451 -37.7706 -37.7628 -37.7566 -37.7501
    -0.3380   0.1189   4.6225   5.0600   5.1905   5.6223   6.5651   6.8629
     9.9855  10.1358  10.8453  11.2841

          k =-0.3974 0.2294 0.1262 (  4326 PWs)   bands (ev):

   -39.4327 -39.0571 -38.0967 -38.0610 -37.7842 -37.7526 -37.7497 -37.7232
    -0.6927   0.5555   4.1367   4.5768   5.5420   6.3120   7.4382   8.0205
     9.7520  10.3701  10.5411  11.2839

          k =-0.3974 0.2294 0.2524 (  4336 PWs)   bands (ev):

   -39.4077 -39.0860 -38.0939 -38.0630 -37.7811 -37.7530 -37.7493 -37.7248
    -0.5868   0.4612   4.1823   4.3255   5.4716   6.0058   7.1982   7.4381
    10.2818  10.5622  11.1433  11.7837

          k =-0.3974 0.2294 0.3787 (  4339 PWs)   bands (ev):

   -39.3729 -39.1251 -38.0891 -38.0664 -37.7768 -37.7577 -37.7440 -37.7274
    -0.4168   0.2923   3.9903   4.6417   4.8531   6.2801   6.3865   7.2106
    10.7189  10.9599  11.7539  12.2101

          k =-0.3974 0.2294 0.5049 (  4333 PWs)   bands (ev):

   -39.3426 -39.1578 -38.0841 -38.0698 -37.7716 -37.7631 -37.7390 -37.7308
    -0.2003   0.0688   4.0443   4.3669   5.0846   5.6776   6.5802   6.9064
    11.1501  11.5312  11.5477  12.2607

          k = 0.1987-0.3441-0.1262 (  4324 PWs)   bands (ev):

   -39.4339 -39.0577 -38.0834 -38.0676 -37.7793 -37.7574 -37.7483 -37.7294
    -0.7804   0.7357   3.9728   4.5869   5.9971   6.4917   7.2100   7.2715
     9.8473  10.4062  10.7154  10.8174

          k = 0.1987-0.3441-0.2524 (  4338 PWs)   bands (ev):

   -39.4096 -39.0865 -38.0821 -38.0672 -37.7770 -37.7590 -37.7467 -37.7309
    -0.6646   0.5952   4.1341   4.2518   5.8182   6.4412   6.6100   7.2583
    10.5190  10.5263  10.7050  11.1218

          k = 0.1987-0.3441-0.3787 (  4343 PWs)   bands (ev):

   -39.3743 -39.1261 -38.0804 -38.0670 -37.7737 -37.7618 -37.7437 -37.7328
    -0.4765   0.3640   4.1208   4.3944   5.1791   5.9511   6.7926   7.2510
    10.3419  10.3937  11.3568  11.8156

          k = 0.1987-0.3441-0.5049 (  4331 PWs)   bands (ev):

   -39.3438 -39.1589 -38.0788 -38.0664 -37.7700 -37.7644 -37.7409 -37.7349
    -0.2319   0.0834   4.2335   4.5152   4.9149   5.3675   7.0409   7.1904
    10.2016  10.2533  12.0540  12.4370

          k = 0.1987-0.5735-0.1262 (  4336 PWs)   bands (ev):

   -39.4300 -39.0569 -38.0978 -38.0742 -37.7759 -37.7589 -37.7475 -37.7174
    -0.4331   0.1445   3.7770   5.0968   5.9170   6.4260   7.1577   7.9270
     9.1908  10.1900  10.6122  10.7637

          k = 0.1987-0.5735-0.2524 (  4335 PWs)   bands (ev):

   -39.4050 -39.0854 -38.0956 -38.0753 -37.7744 -37.7598 -37.7440 -37.7192
    -0.3578   0.1326   3.9341   4.6033   5.2335   6.5357   6.7836   7.9334
     9.4182  10.6176  11.5853  11.6507

          k = 0.1987-0.5735-0.3787 (  4326 PWs)   bands (ev):

   -39.3704 -39.1236 -38.0929 -38.0771 -37.7719 -37.7619 -37.7380 -37.7221
    -0.2446   0.0929   4.1031   4.3630   4.6429   5.8250   7.0891   7.8385
     9.7369  10.6586  12.4733  12.8693

          k = 0.1987-0.5735-0.5049 (  4326 PWs)   bands (ev):

   -39.3407 -39.1559 -38.0905 -38.0785 -37.7698 -37.7647 -37.7327 -37.7251
    -0.1158   0.0128   4.0767   4.2452   4.6698   5.2028   7.3713   7.6334
    10.1093  10.4532  12.5928  12.8720

     the Fermi energy is     8.5914 ev

!    total energy              =    -131.55794389 Ry
     estimated scf accuracy    <          6.7E-11 Ry
     smearing contrib. (-TS)   =       0.00011010 Ry
     internal energy E=F+TS    =    -131.55805399 Ry

     The total energy is F=E-TS. E is the sum of the following terms:
     one-electron contribution =     -43.02145490 Ry
     hartree contribution      =      23.14494868 Ry
     xc contribution           =     -34.65615811 Ry
     ewald contribution        =     -77.02538967 Ry

     convergence has been achieved in   9 iterations

     Forces acting on atoms (cartesian axes, Ry/au):

     atom    1 type  1   force =     0.00000000    0.00000000   -0.00347815
     atom    2 type  1   force =     0.00000000    0.00000000    0.00285667
     atom    3 type  2   force =     0.00246958    0.00013677   -0.00387726
     atom    4 type  2   force =    -0.00135324    0.00207033   -0.00387726
     atom    5 type  2   force =    -0.00111634   -0.00220710   -0.00387726
     atom    6 type  2   force =    -0.00104973   -0.00056658    0.00158281
     atom    7 type  2   force =     0.00101553   -0.00062580    0.00158281
     atom    8 type  2   force =     0.00003419    0.00119238    0.00158281
     atom    9 type  2   force =     0.00000000    0.00000000    0.00428878
     atom   10 type  2   force =     0.00000000    0.00000000    0.00321605
     The non-local contrib.  to forces
     atom    1 type  1   force =    -0.00000000   -0.00000000   -0.00532110
     atom    2 type  1   force =     0.00000000    0.00000000    0.00305412
     atom    3 type  2   force =    -0.01642776    0.01197063    0.00286565
     atom    4 type  2   force =    -0.00215299   -0.02021218    0.00286565
     atom    5 type  2   force =     0.01858075    0.00824154    0.00286565
     atom    6 type  2   force =    -0.01580055   -0.00861598    0.00185149
     atom    7 type  2   force =     0.01536193   -0.00937569    0.00185149
     atom    8 type  2   force =     0.00043862    0.01799166    0.00185149
     atom    9 type  2   force =     0.00000000    0.00000000   -0.00479558
     atom   10 type  2   force =    -0.00000000   -0.00000000   -0.00343138
     The ionic contribution  to forces
     atom    1 type  1   force =     0.00000008   -0.00000005    0.03869717
     atom    2 type  1   force =    -0.00000008    0.00000005   -0.03317372
     atom    3 type  2   force =     0.12392205   -0.07551967   -0.06165560
     atom    4 type  2   force =     0.00344098    0.14507950   -0.06165560
     atom    5 type  2   force =    -0.12736296   -0.06955988   -0.06165560
     atom    6 type  2   force =     0.10134746    0.05426551    0.03912425
     atom    7 type  2   force =    -0.09766899    0.06063677    0.03912425
     atom    8 type  2   force =    -0.00367854   -0.11490223    0.03912425
     atom    9 type  2   force =     0.00000000   -0.00000000    0.03589744
     atom   10 type  2   force =    -0.00000000    0.00000000    0.02617318
     The local contribution  to forces
     atom    1 type  1   force =    -0.00000002    0.00000001   -0.03710168
     atom    2 type  1   force =     0.00000002   -0.00000001    0.03311340
     atom    3 type  2   force =    -0.10502873    0.06368805    0.05491424
     atom    4 type  2   force =    -0.00264110   -0.12280157    0.05491424
     atom    5 type  2   force =     0.10766983    0.05911353    0.05491424
     atom    6 type  2   force =    -0.08659855   -0.04621711   -0.03939594
     atom    7 type  2   force =     0.08332446   -0.05188799   -0.03939594
     atom    8 type  2   force =     0.00327409    0.09810510   -0.03939594
     atom    9 type  2   force =    -0.00000000   -0.00000000   -0.02681319
     atom   10 type  2   force =    -0.00000000    0.00000000   -0.01952704
     The core correction contribution to forces
     atom    1 type  1   force =    -0.00000000    0.00000000    0.00024445
     atom    2 type  1   force =     0.00000000   -0.00000000   -0.00013526
     atom    3 type  2   force =     0.00000000    0.00000000    0.00000000
     atom    4 type  2   force =     0.00000000    0.00000000    0.00000000
     atom    5 type  2   force =     0.00000000    0.00000000    0.00000000
     atom    6 type  2   force =     0.00000000    0.00000000    0.00000000
     atom    7 type  2   force =     0.00000000    0.00000000    0.00000000
     atom    8 type  2   force =     0.00000000    0.00000000    0.00000000
     atom    9 type  2   force =     0.00000000    0.00000000    0.00000000
     atom   10 type  2   force =     0.00000000    0.00000000    0.00000000
     The Hubbard contrib.    to forces
     atom    1 type  1   force =     0.00000000    0.00000000    0.00000000
     atom    2 type  1   force =     0.00000000    0.00000000    0.00000000
     atom    3 type  2   force =     0.00000000    0.00000000    0.00000000
     atom    4 type  2   force =     0.00000000    0.00000000    0.00000000
     atom    5 type  2   force =     0.00000000    0.00000000    0.00000000
     atom    6 type  2   force =     0.00000000    0.00000000    0.00000000
     atom    7 type  2   force =     0.00000000    0.00000000    0.00000000
     atom    8 type  2   force =     0.00000000    0.00000000    0.00000000
     atom    9 type  2   force =     0.00000000    0.00000000    0.00000000
     atom   10 type  2   force =     0.00000000    0.00000000    0.00000000
     The SCF correction term to forces
     atom    1 type  1   force =     0.00000000   -0.00000000    0.00000236
     atom    2 type  1   force =    -0.00000000    0.00000000   -0.00000251
     atom    3 type  2   force =     0.00000400   -0.00000224   -0.00000220
     atom    4 type  2   force =    -0.00000006    0.00000459   -0.00000220
     atom    5 type  2   force =    -0.00000394   -0.00000235   -0.00000220
     atom    6 type  2   force =     0.00000188    0.00000105    0.00000236
     atom    7 type  2   force =    -0.00000185    0.00000111    0.00000236
     atom    8 type  2   force =    -0.00000003   -0.00000216    0.00000236
     atom    9 type  2   force =     0.00000000   -0.00000000   -0.00000054
     atom   10 type  2   force =    -0.00000000    0.00000000    0.00000064

     Total force =     0.011146     Total SCF correction =     0.000011


     Computing stress (Cartesian axis) and pressure

          total   stress  (Ry/bohr**3)                   (kbar)     P=      497.82
   0.00339720   0.00000000   0.00000000          499.75        0.00        0.00
   0.00000000   0.00339720   0.00000000            0.00      499.75        0.00
   0.00000000   0.00000000   0.00335788            0.00        0.00      493.96


     Writing all to output data dir ./output/SiLi.save/

     init_run     :      1.35s CPU      2.04s WALL (       2 calls)
     electrons    :    114.63s CPU    120.90s WALL (      14 calls)
     update_pot   :      4.36s CPU      4.43s WALL (      12 calls)
     forces       :      4.04s CPU      4.15s WALL (      14 calls)
     stress       :     22.74s CPU     23.65s WALL (      14 calls)

     Called by init_run:
     wfcinit      :      0.67s CPU      0.69s WALL (       2 calls)
     potinit      :      0.37s CPU      0.83s WALL (       2 calls)
     hinit0       :      0.28s CPU      0.42s WALL (       2 calls)

     Called by electrons:
     c_bands      :    101.51s CPU    106.44s WALL (     120 calls)
     sum_band     :     12.02s CPU     12.77s WALL (     120 calls)
     v_of_rho     :      1.12s CPU      1.98s WALL (     133 calls)
     mix_rho      :      0.10s CPU      0.18s WALL (     120 calls)

     Called by c_bands:
     init_us_2    :      2.02s CPU      2.24s WALL (   11070 calls)
     init_us_2:cp :      2.00s CPU      2.23s WALL (   11070 calls)
     cegterg      :     96.63s CPU     99.81s WALL (    4920 calls)

     Called by *egterg:
     cdiaghg      :      9.27s CPU      9.57s WALL (   21926 calls)
     h_psi        :     76.35s CPU     78.89s WALL (   22541 calls)
     g_psi        :      0.37s CPU      0.39s WALL (   17539 calls)

     Called by h_psi:
     h_psi:calbec :      6.87s CPU      7.10s WALL (   22541 calls)
     vloc_psi     :     63.30s CPU     65.41s WALL (   22541 calls)
     add_vuspsi   :      5.91s CPU      6.07s WALL (   22541 calls)

     General routines
     calbec       :      8.53s CPU      8.80s WALL (   25411 calls)
     fft          :      1.00s CPU      2.20s WALL (    1679 calls)
     ffts         :      0.05s CPU      0.12s WALL (     120 calls)
     fftw         :     65.91s CPU     68.06s WALL (  682980 calls)

     Parallel routines

     PWSCF        :   2m27.53s CPU   2m36.03s WALL


   This run was terminated on:  10:48: 8  22Jan2025            

=------------------------------------------------------------------------------=
   JOB DONE.
=------------------------------------------------------------------------------=
