
     Program PWSCF v.7.2 starts on 22Jan2025 at 13:21:58 

     This program is part of the open-source Quantum ESPRESSO suite
     for quantum simulation of materials; please cite
         "P. Giannozzi et al., J. Phys.:Condens. Matter 21 395502 (2009);
         "P. Giannozzi et al., J. Phys.:Condens. Matter 29 465901 (2017);
         "P. Giannozzi et al., J. Chem. Phys. 152 154105 (2020);
          URL http://www.quantum-espresso.org", 
     in publications or presentations arising from this work. More details at
     http://www.quantum-espresso.org/quote

     Parallel version (MPI & OpenMP), running on       8 processor cores
     Number of MPI processes:                 8
     Threads/MPI process:                     1

     MPI processes distributed on     1 nodes
     481540 MiB available memory on the printing compute node when the environment starts

     Waiting for input...
     Reading input from standard input

     Current dimensions of program PWSCF are:
     Max number of different atomic species (ntypx) = 10
     Max number of k-points (npk) =  40000
     Max angular momentum in pseudopotentials (lmaxx) =  4

     R & G space division:  proc/nbgrp/npool/nimage =       8
     Subspace diagonalization in iterative solution of the eigenvalue problem:
     a serial algorithm will be used


     Parallelization info
     --------------------
     sticks:   dense  smooth     PW     G-vecs:    dense   smooth      PW
     Min         151     151     51                 2251     2251     451
     Max         152     152     52                 2252     2252     453
     Sum        1211    1211    415                18009    18009    3619

     Using Slab Decomposition



     bravais-lattice index     =            7
     lattice parameter (alat)  =      10.7109  a.u.
     unit-cell volume          =     286.7236 (a.u.)^3
     number of atoms/cell      =            5
     number of atomic types    =            2
     number of electrons       =        16.00
     number of Kohn-Sham states=           12
     kinetic-energy cutoff     =      60.0000  Ry
     charge density cutoff     =     240.0000  Ry
     scf convergence threshold =      1.0E-08
     mixing beta               =       0.8000
     number of iterations used =            8  plain     mixing
     energy convergence thresh.=      5.0E-03
     force convergence thresh. =      1.0E-02
     press convergence thresh. =      2.0E+00
     Exchange-correlation= PBE
                           (   1   4   3   4   0   0   0)
     nstep                     =           50


     celldm(1)=  10.710900  celldm(2)=   0.000000  celldm(3)=   0.466676
     celldm(4)=   0.000000  celldm(5)=   0.000000  celldm(6)=   0.000000

     crystal axes: (cart. coord. in units of alat)
               a(1) = (   0.500000  -0.500000   0.233338 )  
               a(2) = (   0.500000   0.500000   0.233338 )  
               a(3) = (  -0.500000  -0.500000   0.233338 )  

     reciprocal axes: (cart. coord. in units 2 pi/alat)
               b(1) = (  1.000000 -1.000000  0.000000 )  
               b(2) = (  0.000000  1.000000  2.142814 )  
               b(3) = ( -1.000000  0.000000  2.142814 )  


     PseudoPot. # 1 for Si read from file:
     ../pseudo/Si_ONCV_PBE_sr.upf
     MD5 check sum: e543d271109d17c80368dfa7c482276d
     Pseudo is Norm-conserving + core correction, Zval =  4.0
     Generated using ONCVPSP code by D. R. Hamann
     Using radial grid of 1510 points,  6 beta functions with: 
                l(1) =   0
                l(2) =   0
                l(3) =   1
                l(4) =   1
                l(5) =   2
                l(6) =   2

     PseudoPot. # 2 for Li read from file:
     ../pseudo/Li_ONCV_PBE_sr.upf
     MD5 check sum: 50ff420e78310ffa21704f3361e624a4
     Pseudo is Norm-conserving, Zval =  3.0
     Generated using ONCVPSP code by D. R. Hamann
     Using radial grid of 1944 points,  4 beta functions with: 
                l(1) =   0
                l(2) =   0
                l(3) =   1
                l(4) =   1

     atomic species   valence    mass     pseudopotential
        Si             4.00    28.08550     Si( 1.00)
        Li             3.00     6.94100     Li( 1.00)

      8 Sym. Ops., with inversion, found



   Cartesian axes

     site n.     atom                  positions (alat units)
         1           Si  tau(   1) = (   0.0000000   0.0000000   0.2333380  )
         2           Li  tau(   2) = (   0.1026280   0.6884385  -0.0000000  )
         3           Li  tau(   3) = (   0.8973720   0.3115615   0.0000000  )
         4           Li  tau(   4) = (   0.3115615   0.1026280  -0.0000000  )
         5           Li  tau(   5) = (   0.6884385   0.8973720   0.0000000  )

     number of k points=    92  Marzari-Vanderbilt smearing, width (Ry)=  0.0200
                       cart. coord. in units 2pi/alat
        k(    1) = (   0.0000000   0.0000000   0.0000000), wk =   0.0178571
        k(    2) = (  -0.1428571   0.0000000   0.3061163), wk =   0.0357143
        k(    3) = (  -0.2857143   0.0000000   0.6122325), wk =   0.0357143
        k(    4) = (  -0.4285714   0.0000000   0.9183488), wk =   0.0357143
        k(    5) = (   0.0000000   0.2500000   0.5357035), wk =   0.0714286
        k(    6) = (  -0.1428571   0.2500000   0.8418198), wk =   0.0178571
        k(    7) = (  -0.2857143   0.2500000   1.1479360), wk =   0.0178571
        k(    8) = (  -0.4285714   0.2500000   1.4540523), wk =   0.0178571
        k(    9) = (   0.4285714   0.2500000  -0.3826453), wk =   0.0178571
        k(   10) = (   0.2857143   0.2500000  -0.0765291), wk =   0.0178571
        k(   11) = (   0.1428571   0.2500000   0.2295872), wk =   0.0178571
        k(   12) = (   0.0000000  -0.5000000  -1.0714070), wk =   0.0357143
        k(   13) = (  -0.1428571  -0.5000000  -0.7652907), wk =   0.0178571
        k(   14) = (  -0.2857143  -0.5000000  -0.4591744), wk =   0.0178571
        k(   15) = (  -0.4285714  -0.5000000  -0.1530581), wk =   0.0178571
        k(   16) = (   0.2500000  -0.2500000   0.0000000), wk =   0.0357143
        k(   17) = (   0.1071429  -0.2500000   0.3061163), wk =   0.0178571
        k(   18) = (  -0.0357143  -0.2500000   0.6122325), wk =   0.0178571
        k(   19) = (  -0.1785714  -0.2500000   0.9183488), wk =   0.0178571
        k(   20) = (   0.6785714  -0.2500000  -0.9183488), wk =   0.0178571
        k(   21) = (   0.5357143  -0.2500000  -0.6122325), wk =   0.0178571
        k(   22) = (   0.3928571  -0.2500000  -0.3061163), wk =   0.0178571
        k(   23) = (   0.1071429   0.0000000   0.8418198), wk =   0.0357143
        k(   24) = (  -0.0357143   0.0000000   1.1479360), wk =   0.0357143
        k(   25) = (  -0.1785714   0.0000000   1.4540523), wk =   0.0357143
        k(   26) = (   0.6785714   0.0000000  -0.3826453), wk =   0.0357143
        k(   27) = (   0.5357143   0.0000000  -0.0765291), wk =   0.0357143
        k(   28) = (   0.3928571   0.0000000   0.2295872), wk =   0.0357143
        k(   29) = (   0.2500000  -0.7500000  -1.0714070), wk =   0.0357143
        k(   30) = (   0.1071429  -0.7500000  -0.7652907), wk =   0.0178571
        k(   31) = (  -0.0357143  -0.7500000  -0.4591744), wk =   0.0178571
        k(   32) = (  -0.1785714  -0.7500000  -0.1530581), wk =   0.0178571
        k(   33) = (   0.6785714  -0.7500000  -1.9897558), wk =   0.0178571
        k(   34) = (   0.5357143  -0.7500000  -1.6836395), wk =   0.0178571
        k(   35) = (   0.3928571  -0.7500000  -1.3775232), wk =   0.0178571
        k(   36) = (   0.2500000  -0.5000000  -0.5357035), wk =   0.0357143
        k(   37) = (   0.1071429  -0.5000000  -0.2295872), wk =   0.0178571
        k(   38) = (  -0.0357143  -0.5000000   0.0765291), wk =   0.0178571
        k(   39) = (  -0.1785714  -0.5000000   0.3826453), wk =   0.0178571
        k(   40) = (   0.6785714  -0.5000000  -1.4540523), wk =   0.0178571
        k(   41) = (   0.5357143  -0.5000000  -1.1479360), wk =   0.0178571
        k(   42) = (   0.3928571  -0.5000000  -0.8418198), wk =   0.0178571
        k(   43) = (  -0.5000000   0.5000000   0.0000000), wk =   0.0178571
        k(   44) = (  -0.6428571   0.5000000   0.3061163), wk =   0.0178571
        k(   45) = (  -0.7857143   0.5000000   0.6122325), wk =   0.0178571
        k(   46) = (  -0.9285714   0.5000000   0.9183488), wk =   0.0178571
        k(   47) = (  -0.6428571   0.7500000   0.8418198), wk =   0.0178571
        k(   48) = (  -0.7857143   0.7500000   1.1479360), wk =   0.0178571
        k(   49) = (  -0.9285714   0.7500000   1.4540523), wk =   0.0178571
        k(   50) = (  -0.0714286   0.7500000  -0.3826453), wk =   0.0178571
        k(   51) = (  -0.2142857   0.7500000  -0.0765291), wk =   0.0178571
        k(   52) = (  -0.3571429   0.7500000   0.2295872), wk =   0.0178571
        k(   53) = (  -0.6428571   0.0000000  -0.7652907), wk =   0.0357143
        k(   54) = (  -0.7857143   0.0000000  -0.4591744), wk =   0.0357143
        k(   55) = (  -0.9285714   0.0000000  -0.1530581), wk =   0.0357143
        k(   56) = (   0.2500000  -0.1428571  -0.8418198), wk =   0.0178571
        k(   57) = (   0.2500000  -0.2857143  -1.1479360), wk =   0.0178571
        k(   58) = (   0.2500000  -0.4285714  -1.4540523), wk =   0.0178571
        k(   59) = (   0.2500000   0.4285714   0.3826453), wk =   0.0178571
        k(   60) = (   0.2500000   0.2857143   0.0765291), wk =   0.0178571
        k(   61) = (   0.2500000   0.1428571  -0.2295872), wk =   0.0178571
        k(   62) = (  -0.5000000  -0.1428571   0.7652907), wk =   0.0178571
        k(   63) = (  -0.5000000  -0.2857143   0.4591744), wk =   0.0178571
        k(   64) = (  -0.5000000  -0.4285714   0.1530581), wk =   0.0178571
        k(   65) = (  -0.2500000   0.1071429  -0.3061163), wk =   0.0178571
        k(   66) = (  -0.2500000  -0.0357143  -0.6122325), wk =   0.0178571
        k(   67) = (  -0.2500000  -0.1785714  -0.9183488), wk =   0.0178571
        k(   68) = (  -0.2500000   0.6785714   0.9183488), wk =   0.0178571
        k(   69) = (  -0.2500000   0.5357143   0.6122325), wk =   0.0178571
        k(   70) = (  -0.2500000   0.3928571   0.3061163), wk =   0.0178571
        k(   71) = (  -0.7500000   0.1071429   0.7652907), wk =   0.0178571
        k(   72) = (  -0.7500000  -0.0357143   0.4591744), wk =   0.0178571
        k(   73) = (  -0.7500000  -0.1785714   0.1530581), wk =   0.0178571
        k(   74) = (  -0.7500000   0.6785714   1.9897558), wk =   0.0178571
        k(   75) = (  -0.7500000   0.5357143   1.6836395), wk =   0.0178571
        k(   76) = (  -0.7500000   0.3928571   1.3775232), wk =   0.0178571
        k(   77) = (  -0.5000000   0.2500000   0.5357035), wk =   0.0357143
        k(   78) = (  -0.5000000   0.1071429   0.2295872), wk =   0.0178571
        k(   79) = (  -0.5000000  -0.0357143  -0.0765291), wk =   0.0178571
        k(   80) = (  -0.5000000  -0.1785714  -0.3826453), wk =   0.0178571
        k(   81) = (  -0.5000000   0.6785714   1.4540523), wk =   0.0178571
        k(   82) = (  -0.5000000   0.5357143   1.1479360), wk =   0.0178571
        k(   83) = (  -0.5000000   0.3928571   0.8418198), wk =   0.0178571
        k(   84) = (   0.5000000  -0.6428571  -0.3061163), wk =   0.0178571
        k(   85) = (   0.5000000  -0.7857143  -0.6122325), wk =   0.0178571
        k(   86) = (   0.5000000  -0.9285714  -0.9183488), wk =   0.0178571
        k(   87) = (   0.7500000  -0.6428571  -0.8418198), wk =   0.0178571
        k(   88) = (   0.7500000  -0.7857143  -1.1479360), wk =   0.0178571
        k(   89) = (   0.7500000  -0.9285714  -1.4540523), wk =   0.0178571
        k(   90) = (   0.7500000  -0.0714286   0.3826453), wk =   0.0178571
        k(   91) = (   0.7500000  -0.2142857   0.0765291), wk =   0.0178571
        k(   92) = (   0.7500000  -0.3571429  -0.2295872), wk =   0.0178571

     Dense  grid:    18009 G-vectors     FFT dimensions: (  40,  40,  40)

     Estimated max dynamical RAM per process >      16.75 MB

     Estimated total dynamical RAM >     133.98 MB

     Initial potential from superposition of free atoms

     starting charge      15.9811, renormalised to      16.0000
     Starting wfcs are   12 randomized atomic wfcs

     total cpu time spent up to now is        1.7 secs

     Self-consistent Calculation

     iteration #  1     ecut=    60.00 Ry     beta= 0.80
     Davidson diagonalization with overlap
     ethr =  1.00E-02,  avg # of iterations =  5.4

     Threshold (ethr) on eigenvalues was too large:
     Diagonalizing with lowered threshold

     Davidson diagonalization with overlap
     ethr =  1.16E-04,  avg # of iterations =  3.6

     total cpu time spent up to now is        3.9 secs

     total energy              =     -65.89627228 Ry
     estimated scf accuracy    <       0.01878162 Ry

     iteration #  2     ecut=    60.00 Ry     beta= 0.80
     Davidson diagonalization with overlap
     ethr =  1.17E-04,  avg # of iterations =  1.1

     total cpu time spent up to now is        4.8 secs

     total energy              =     -65.89663930 Ry
     estimated scf accuracy    <       0.00233394 Ry

     iteration #  3     ecut=    60.00 Ry     beta= 0.80
     Davidson diagonalization with overlap
     ethr =  1.46E-05,  avg # of iterations =  2.5

     total cpu time spent up to now is        5.7 secs

     total energy              =     -65.89716064 Ry
     estimated scf accuracy    <       0.00198372 Ry

     iteration #  4     ecut=    60.00 Ry     beta= 0.80
     Davidson diagonalization with overlap
     ethr =  1.24E-05,  avg # of iterations =  2.1

     total cpu time spent up to now is        6.6 secs

     total energy              =     -65.89753539 Ry
     estimated scf accuracy    <       0.00000268 Ry

     iteration #  5     ecut=    60.00 Ry     beta= 0.80
     Davidson diagonalization with overlap
     ethr =  1.67E-08,  avg # of iterations =  3.5

     total cpu time spent up to now is        7.5 secs

     total energy              =     -65.89753710 Ry
     estimated scf accuracy    <       0.00000009 Ry

     iteration #  6     ecut=    60.00 Ry     beta= 0.80
     Davidson diagonalization with overlap
     ethr =  5.64E-10,  avg # of iterations =  2.0

     total cpu time spent up to now is        8.3 secs

     End of self-consistent calculation

          k = 0.0000 0.0000 0.0000 (  2235 PWs)   bands (ev):

   -38.1757 -37.7869 -37.7869 -37.7621  -2.3073   5.1927   5.1927   6.6989
     7.4444  13.6256  13.8339  16.0432

          k =-0.1429 0.0000 0.3061 (  2240 PWs)   bands (ev):

   -38.1389 -37.8075 -37.7909 -37.7488  -1.9410   5.1824   5.2514   7.1620
     8.0042  11.7437  12.8687  14.5471

          k =-0.2857 0.0000 0.6122 (  2259 PWs)   bands (ev):

   -38.0418 -37.8265 -37.8028 -37.7586  -0.8408   5.3085   5.4975   6.9820
     9.0183   9.5240  11.0940  12.5925

          k =-0.4286 0.0000 0.9183 (  2260 PWs)   bands (ev):

   -37.9207 -37.8326 -37.8189 -37.8098   0.9344   3.9020   5.5952   6.1560
     8.1186  10.2767  11.3122  12.7392

          k = 0.0000 0.2500 0.5357 (  2252 PWs)   bands (ev):

   -38.0700 -37.8229 -37.7992 -37.7521  -1.1844   5.2774   5.4019   7.4270
     8.7564   9.7549  11.3307  12.9757

          k =-0.1429 0.2500 0.8418 (  2251 PWs)   bands (ev):

   -37.9600 -37.8268 -37.8041 -37.7982   0.3696   4.7038   5.5970   6.5618
     8.1920  10.4908  11.0064  11.3344

          k =-0.2857 0.2500 1.1479 (  2261 PWs)   bands (ev):

   -37.8760 -37.8500 -37.8355 -37.8153   1.5236   3.2069   5.3879   5.9857
     8.1210  10.9597  11.4514  13.3180

          k =-0.4286 0.2500 1.4541 (  2250 PWs)   bands (ev):

   -37.9746 -37.8707 -37.8088 -37.7593  -0.2871   4.2739   5.8808   5.9675
     7.9100  11.1135  12.5958  13.4642

          k = 0.4286 0.2500-0.3826 (  2242 PWs)   bands (ev):

   -38.0750 -37.8859 -37.7950 -37.7173  -1.6189   3.7490   5.3449   8.1193
     8.5925  10.9396  12.7681  13.0206

          k = 0.2857 0.2500-0.0765 (  2256 PWs)   bands (ev):

   -38.1376 -37.8753 -37.7868 -37.7130  -2.2091   3.7378   5.1375   7.4710
     8.8563  12.3995  12.9568  15.0479

          k = 0.1429 0.2500 0.2296 (  2243 PWs)   bands (ev):

   -38.1367 -37.8451 -37.7899 -37.7259  -2.0575   4.2575   5.2732   7.1758
     8.9653  11.7553  12.5667  14.4151

          k = 0.0000-0.5000-1.0714 (  2252 PWs)   bands (ev):

   -37.8698 -37.8619 -37.8250 -37.8172   1.6349   3.0405   5.6055   6.3689
     7.7617  10.2740  11.9235  12.4062

          k =-0.1429-0.5000-0.7653 (  2252 PWs)   bands (ev):

   -37.9625 -37.8482 -37.8130 -37.7767   0.0871   4.9249   5.1020   5.8241
     8.5747  10.4251  11.5457  13.4127

          k =-0.2857-0.5000-0.4592 (  2250 PWs)   bands (ev):

   -38.0452 -37.8934 -37.7987 -37.7223  -1.3387   3.7219   5.5324   7.4997
     8.7706  11.2099  12.0172  13.0595

          k =-0.4286-0.5000-0.1531 (  2253 PWs)   bands (ev):

   -38.0914 -37.9304 -37.7870 -37.6984  -2.0740   3.1472   5.1889   7.8219
     8.9734  12.3222  13.2527  15.2308

          k = 0.2500-0.2500 0.0000 (  2249 PWs)   bands (ev):

   -38.1436 -37.8687 -37.7862 -37.7149  -2.2400   3.8156   5.1578   7.3038
     8.8847  12.4437  12.9626  15.3216

          k = 0.1071-0.2500 0.3061 (  2242 PWs)   bands (ev):

   -38.1257 -37.8372 -37.7928 -37.7307  -1.9060   4.5124   5.2012   7.6022
     8.5674  11.1647  12.8603  13.7508

          k =-0.0357-0.2500 0.6122 (  2255 PWs)   bands (ev):

   -38.0452 -37.8223 -37.8002 -37.7615  -0.8566   5.4129   5.5830   7.0079
     8.7884   9.6714  11.0620  12.3187

          k =-0.1786-0.2500 0.9183 (  2247 PWs)   bands (ev):

   -37.9305 -37.8286 -37.8154 -37.8056   0.8407   4.0616   5.7451   6.2346
     8.4906  10.2662  10.7555  12.0616

          k = 0.6786-0.2500-0.9183 (  2259 PWs)   bands (ev):

   -37.8993 -37.8472 -37.8234 -37.8119   1.1063   3.7213   5.1336   5.9062
     8.1686  10.9499  11.7206  14.0984

          k = 0.5357-0.2500-0.6122 (  2254 PWs)   bands (ev):

   -38.0015 -37.8766 -37.8061 -37.7446  -0.6873   4.1284   5.6333   6.7878
     8.0814  11.4537  12.0571  12.6057

          k = 0.3929-0.2500-0.3061 (  2243 PWs)   bands (ev):

   -38.0954 -37.8861 -37.7920 -37.7131  -1.8367   3.6835   5.3582   7.3735
    10.0053  10.8375  12.0560  13.9500

          k = 0.1071 0.0000 0.8418 (  2249 PWs)   bands (ev):

   -37.9695 -37.8128 -37.8053 -37.8013   0.2997   4.8825   6.2891   6.3648
     8.0813   9.7883  10.8552  11.1263

          k =-0.0357 0.0000 1.1479 (  2251 PWs)   bands (ev):

   -37.8561 -37.8527 -37.8333 -37.8331   1.6430   3.1786   5.6934   5.7019
     7.2543  11.3541  11.8787  11.9283

          k =-0.1786 0.0000 1.4541 (  2256 PWs)   bands (ev):

   -37.9332 -37.8696 -37.8571 -37.7539  -0.0840   4.6260   4.6739   5.7424
     6.6993  12.9824  13.8841  15.2484

          k = 0.6786 0.0000-0.3826 (  2241 PWs)   bands (ev):

   -38.0277 -37.8922 -37.8572 -37.6956  -1.4774   3.9736   4.0299   6.6177
     9.3219  13.1951  13.8385  15.8169

          k = 0.5357 0.0000-0.0765 (  2248 PWs)   bands (ev):

   -38.1007 -37.8878 -37.8390 -37.6839  -2.1206   3.8284   3.9558   6.8720
    10.8607  12.6999  13.9890  14.9442

          k = 0.3929 0.0000 0.2296 (  2240 PWs)   bands (ev):

   -38.1183 -37.8578 -37.8139 -37.7071  -2.0096   4.2880   4.4245   7.4669
     9.5166  11.6235  12.8393  14.9601

          k = 0.2500-0.7500-1.0714 (  2260 PWs)   bands (ev):

   -37.8737 -37.8549 -37.8317 -37.8145   1.6266   3.0865   5.7222   5.8939
     8.2735  10.6756  11.1651  12.8813

          k = 0.1071-0.7500-0.7653 (  2249 PWs)   bands (ev):

   -37.9275 -37.8611 -37.8359 -37.7751   0.2860   4.6563   5.0459   5.3044
     7.1519  11.7660  13.4604  14.4826

          k =-0.0357-0.7500-0.4592 (  2247 PWs)   bands (ev):

   -37.9966 -37.8926 -37.8651 -37.7043  -1.1776   3.9985   4.1625   6.4666
     8.3700  13.8972  14.5387  15.3490

          k =-0.1786-0.7500-0.1531 (  2250 PWs)   bands (ev):

   -38.0471 -37.9277 -37.8592 -37.6727  -1.9625   3.3227   4.0326   6.2523
    11.9555  13.2091  14.4734  15.6769

          k = 0.6786-0.7500-1.9898 (  2244 PWs)   bands (ev):

   -38.0655 -37.9281 -37.8321 -37.6801  -2.0054   3.2608   4.3659   6.7218
    10.8261  13.1978  14.0135  15.3867

          k = 0.5357-0.7500-1.6836 (  2251 PWs)   bands (ev):

   -38.0410 -37.8931 -37.8063 -37.7192  -1.3218   3.7444   5.2972   7.8094
     8.2190  11.2502  12.7696  13.3755

          k = 0.3929-0.7500-1.3775 (  2248 PWs)   bands (ev):

   -37.9707 -37.8493 -37.7997 -37.7804   0.0267   4.7035   5.3004   6.5523
     8.2912  10.9446  11.6241  11.8624

          k = 0.2500-0.5000-0.5357 (  2251 PWs)   bands (ev):

   -38.0271 -37.8815 -37.8023 -37.7331  -1.0435   3.9458   5.6196   7.4598
     8.1179  10.8973  12.3083  13.1579

          k = 0.1071-0.5000-0.2296 (  2244 PWs)   bands (ev):

   -38.0943 -37.8855 -37.8225 -37.6952  -1.9550   3.7891   4.3944   7.3514
     9.8062  12.1786  13.3477  14.6317

          k =-0.0357-0.5000 0.0765 (  2240 PWs)   bands (ev):

   -38.1090 -37.8826 -37.8312 -37.6876  -2.1392   3.8012   4.1559   6.9591
    10.6716  12.3824  13.8361  14.8566

          k =-0.1786-0.5000 0.3826 (  2247 PWs)   bands (ev):

   -38.0658 -37.8862 -37.8112 -37.7106  -1.5884   3.7863   5.0116   7.3058
     9.6015  11.3124  12.1738  14.0180

          k = 0.6786-0.5000-1.4541 (  2253 PWs)   bands (ev):

   -37.9817 -37.8710 -37.7988 -37.7623  -0.3284   4.2614   5.7939   6.3470
     8.4529  11.1579  11.5106  12.4196

          k = 0.5357-0.5000-1.1479 (  2271 PWs)   bands (ev):

   -37.8853 -37.8458 -37.8399 -37.8074   1.4304   3.2980   5.2283   5.8505
     9.9670  11.0131  11.5960  12.1438

          k = 0.3929-0.5000-0.8418 (  2257 PWs)   bands (ev):

   -37.9334 -37.8577 -37.8013 -37.7975   0.5355   4.4743   4.6813   6.3973
     8.7240  11.5024  11.7096  12.5336

          k =-0.5000 0.5000 0.0000 (  2254 PWs)   bands (ev):

   -38.0970 -37.9361 -37.7849 -37.6961  -2.1667   3.0777   5.1219   8.0571
     8.6218  12.3675  14.9358  14.9467

          k =-0.6429 0.5000 0.3061 (  2241 PWs)   bands (ev):

   -38.0736 -37.9148 -37.7916 -37.7065  -1.7969   3.3645   5.3004   8.0407
     8.7317  11.7452  12.6191  13.7771

          k =-0.7857 0.5000 0.6122 (  2256 PWs)   bands (ev):

   -38.0072 -37.8700 -37.8058 -37.7461  -0.7058   4.1997   5.7424   6.7412
     8.1319  10.8290  12.1885  13.3521

          k =-0.9286 0.5000 0.9183 (  2261 PWs)   bands (ev):

   -37.9139 -37.8373 -37.8179 -37.8130   0.9947   3.8250   5.3648   6.2629
     7.8762  10.4683  11.7641  12.9769

          k =-0.6429 0.7500 0.8418 (  2249 PWs)   bands (ev):

   -37.9480 -37.8408 -37.8049 -37.7954   0.4513   4.5827   5.1244   6.3058
     9.1295  10.0509  11.0893  12.4007

          k =-0.7857 0.7500 1.1479 (  2262 PWs)   bands (ev):

   -37.8735 -37.8497 -37.8357 -37.8179   1.5476   3.1931   5.4884   5.8894
     7.9645  10.7832  11.5207  13.2806

          k =-0.9286 0.7500 1.4541 (  2243 PWs)   bands (ev):

   -37.9459 -37.8677 -37.8445 -37.7540  -0.1343   4.5784   4.8378   5.7995
     6.9897  12.5746  13.2383  15.4132

          k =-0.0714 0.7500-0.3826 (  2251 PWs)   bands (ev):

   -38.0119 -37.9027 -37.8666 -37.6928  -1.4418   3.7806   4.0730   6.3763
     9.2806  13.7959  14.5883  16.1251

          k =-0.2143 0.7500-0.0765 (  2246 PWs)   bands (ev):

   -38.0552 -37.9316 -37.8533 -37.6713  -2.0431   3.2599   4.0500   6.3272
    11.8616  13.7413  14.6287  15.6834

          k =-0.3571 0.7500 0.2296 (  2249 PWs)   bands (ev):

   -38.0640 -37.9224 -37.8248 -37.6870  -1.9010   3.3182   4.5963   6.8047
    10.7420  12.3303  13.2431  15.4968

          k =-0.6429 0.0000-0.7653 (  2254 PWs)   bands (ev):

   -37.9430 -37.8512 -37.8310 -37.7751   0.2115   4.8415   5.0932   5.3210
     7.5768  11.2381  12.6187  14.8011

          k =-0.7857 0.0000-0.4592 (  2249 PWs)   bands (ev):

   -37.9885 -37.8944 -37.8730 -37.7031  -1.1576   4.0295   4.0576   6.3390
     8.3438  14.2763  14.8592  15.8352

          k =-0.9286 0.0000-0.1531 (  2266 PWs)   bands (ev):

   -37.9954 -37.9273 -37.9220 -37.6637  -1.8850   3.4846   3.4895   5.6753
    12.2440  15.7116  16.0081  16.7647

          k = 0.2500-0.1429-0.8418 (  2251 PWs)   bands (ev):

   -37.9602 -37.8265 -37.8058 -37.7968   0.3694   4.7115   5.6770   6.3250
     8.6294  10.0505  10.6944  11.8295

          k = 0.2500-0.2857-1.1479 (  2261 PWs)   bands (ev):

   -37.8763 -37.8490 -37.8362 -37.8153   1.5235   3.2071   5.4361   5.9030
     8.2085  10.8102  11.4735  13.4774

          k = 0.2500-0.4286-1.4541 (  2250 PWs)   bands (ev):

   -37.9751 -37.8699 -37.8093 -37.7591  -0.2874   4.3270   5.6048   6.1070
     8.0935  11.5464  11.7198  13.1751

          k = 0.2500 0.4286 0.3826 (  2242 PWs)   bands (ev):

   -38.0745 -37.8861 -37.7954 -37.7173  -1.6189   3.7410   5.4305   7.4516
     9.6658  10.7476  11.8978  13.4923

          k = 0.2500 0.2857 0.0765 (  2256 PWs)   bands (ev):

   -38.1378 -37.8755 -37.7866 -37.7128  -2.2091   3.7282   5.1882   7.2747
     9.1156  12.3158  12.8240  15.0977

          k = 0.2500 0.1429-0.2296 (  2243 PWs)   bands (ev):

   -38.1365 -37.8450 -37.7903 -37.7258  -2.0575   4.2892   5.1664   7.5216
     8.5540  11.6763  13.3080  13.8763

          k =-0.5000-0.1429 0.7653 (  2252 PWs)   bands (ev):

   -37.9623 -37.8490 -37.8119 -37.7772   0.0875   4.7142   5.2801   6.0367
     8.0660  10.6274  12.2156  13.2247

          k =-0.5000-0.2857 0.4592 (  2250 PWs)   bands (ev):

   -38.0453 -37.8932 -37.7986 -37.7225  -1.3387   3.7193   5.5014   8.0560
     8.1283  10.9768  12.6466  12.9571

          k =-0.5000-0.4286 0.1531 (  2253 PWs)   bands (ev):

   -38.0912 -37.9304 -37.7871 -37.6984  -2.0740   3.1495   5.1681   8.0406
     8.6999  12.4118  13.3364  15.0533

          k =-0.2500 0.1071-0.3061 (  2242 PWs)   bands (ev):

   -38.1256 -37.8375 -37.7926 -37.7308  -1.9059   4.4780   5.2960   7.2926
     8.9384  11.2467  12.3005  14.0595

          k =-0.2500-0.0357-0.6122 (  2255 PWs)   bands (ev):

   -38.0452 -37.8225 -37.8000 -37.7615  -0.8566   5.3131   5.7298   6.9261
     8.9982   9.4153  11.0981  12.5119

          k =-0.2500-0.1786-0.9183 (  2247 PWs)   bands (ev):

   -37.9303 -37.8296 -37.8133 -37.8070   0.8409   4.0600   5.6554   6.4227
     8.2314  10.3703  11.1789  11.6616

          k =-0.2500 0.6786 0.9183 (  2259 PWs)   bands (ev):

   -37.8990 -37.8486 -37.8209 -37.8132   1.1067   3.7200   5.0676   6.0661
     7.9590  11.0475  12.0661  13.6639

          k =-0.2500 0.5357 0.6122 (  2254 PWs)   bands (ev):

   -38.0012 -37.8769 -37.8057 -37.7449  -0.6871   4.0934   5.7768   6.7059
     8.0141  11.0401  12.3540  13.2823

          k =-0.2500 0.3929 0.3061 (  2243 PWs)   bands (ev):

   -38.0958 -37.8859 -37.7920 -37.7129  -1.8367   3.6986   5.2459   8.0316
     8.7663  11.3340  12.9779  13.2184

          k =-0.7500 0.1071 0.7653 (  2249 PWs)   bands (ev):

   -37.9283 -37.8601 -37.8364 -37.7748   0.2858   4.7334   5.0021   5.2302
     7.2143  11.9856  12.7246  15.1016

          k =-0.7500-0.0357 0.4592 (  2247 PWs)   bands (ev):

   -37.9966 -37.8928 -37.8648 -37.7044  -1.1775   3.9989   4.1603   6.4761
     8.3579  13.8432  14.4277  15.9664

          k =-0.7500-0.1786 0.1531 (  2250 PWs)   bands (ev):

   -38.0470 -37.9275 -37.8593 -37.6728  -1.9625   3.3361   4.0041   6.2883
    11.7096  13.3213  14.9798  15.7121

          k =-0.7500 0.6786 1.9898 (  2244 PWs)   bands (ev):

   -38.0657 -37.9283 -37.8320 -37.6800  -2.0054   3.2489   4.4062   6.6389
    11.1685  12.9802  13.5919  15.6012

          k =-0.7500 0.5357 1.6836 (  2251 PWs)   bands (ev):

   -38.0409 -37.8930 -37.8064 -37.7194  -1.3218   3.7475   5.3246   7.4009
     8.7065  11.5108  12.2620  13.2683

          k =-0.7500 0.3929 1.3775 (  2248 PWs)   bands (ev):

   -37.9708 -37.8487 -37.8005 -37.7800   0.0265   4.8021   5.2135   6.3513
     8.9278  10.3302  11.2085  12.2415

          k =-0.5000 0.2500 0.5357 (  2251 PWs)   bands (ev):

   -38.0273 -37.8816 -37.8023 -37.7328  -1.0436   3.9637   5.5761   7.3692
     8.2552  11.3466  12.0471  12.5613

          k =-0.5000 0.1071 0.2296 (  2244 PWs)   bands (ev):

   -38.0944 -37.8858 -37.8223 -37.6950  -1.9550   3.7298   4.5241   7.0462
    10.9225  11.4042  12.6811  15.0394

          k =-0.5000-0.0357-0.0765 (  2240 PWs)   bands (ev):

   -38.1088 -37.8825 -37.8312 -37.6879  -2.1392   3.8993   4.0289   7.0670
    10.3216  12.6528  14.1082  14.9118

          k =-0.5000-0.1786-0.3826 (  2247 PWs)   bands (ev):

   -38.0665 -37.8861 -37.8110 -37.7102  -1.5884   3.8010   4.9330   7.7532
     8.8524  11.3468  12.8279  13.9230

          k =-0.5000 0.6786 1.4541 (  2253 PWs)   bands (ev):

   -37.9816 -37.8713 -37.7986 -37.7624  -0.3282   4.2294   5.9297   6.3179
     8.2534  10.9555  12.0265  12.5646

          k =-0.5000 0.5357 1.1479 (  2271 PWs)   bands (ev):

   -37.8853 -37.8459 -37.8397 -37.8074   1.4305   3.2979   5.2241   5.8579
     9.9046  11.2319  11.4414  12.1611

          k =-0.5000 0.3929 0.8418 (  2257 PWs)   bands (ev):

   -37.9335 -37.8573 -37.8027 -37.7965   0.5353   4.4871   4.6868   6.3097
     8.9989  11.0767  11.5020  12.7458

          k = 0.5000-0.6429-0.3061 (  2241 PWs)   bands (ev):

   -38.0735 -37.9149 -37.7917 -37.7064  -1.7969   3.3591   5.3593   7.5781
     9.4167  11.5601  12.2095  14.1540

          k = 0.5000-0.7857-0.6122 (  2256 PWs)   bands (ev):

   -38.0075 -37.8697 -37.8062 -37.7456  -0.7060   4.2471   5.5706   6.8505
     8.1859  11.2023  12.1011  12.4022

          k = 0.5000-0.9286-0.9183 (  2261 PWs)   bands (ev):

   -37.9142 -37.8343 -37.8238 -37.8097   0.9943   3.8277   5.6180   5.8069
     8.3489  10.1425  11.4686  13.3197

          k = 0.7500-0.6429-0.8418 (  2249 PWs)   bands (ev):

   -37.9478 -37.8415 -37.8021 -37.7976   0.4516   4.5663   5.0787   6.5634
     8.3584  11.0180  11.4872  11.6211

          k = 0.7500-0.7857-1.1479 (  2262 PWs)   bands (ev):

   -37.8732 -37.8508 -37.8349 -37.8180   1.5477   3.1929   5.4366   5.9739
     7.8935  10.8820  11.5243  13.1509

          k = 0.7500-0.9286-1.4541 (  2243 PWs)   bands (ev):

   -37.9457 -37.8684 -37.8442 -37.7539  -0.1343   4.5128   4.9269   5.7947
     6.9624  12.3251  13.8905  15.2394

          k = 0.7500-0.0714 0.3826 (  2251 PWs)   bands (ev):

   -38.0117 -37.9029 -37.8667 -37.6927  -1.4418   3.7683   4.0924   6.3545
     9.3120  13.9073  14.5378  15.6690

          k = 0.7500-0.2143 0.0765 (  2246 PWs)   bands (ev):

   -38.0553 -37.9316 -37.8533 -37.6713  -2.0431   3.2527   4.0669   6.3036
    12.0299  13.6700  14.3847  15.4034

          k = 0.7500-0.3571-0.2296 (  2249 PWs)   bands (ev):

   -38.0642 -37.9223 -37.8247 -37.6869  -1.9010   3.3323   4.5392   6.9472
    10.2728  12.6003  13.8668  14.7744

     the Fermi energy is     7.6289 ev

!    total energy              =     -65.89753712 Ry
     estimated scf accuracy    <          1.2E-09 Ry
     smearing contrib. (-TS)   =       0.00036573 Ry
     internal energy E=F+TS    =     -65.89790285 Ry

     The total energy is F=E-TS. E is the sum of the following terms:
     one-electron contribution =     -21.33634850 Ry
     hartree contribution      =      11.41206998 Ry
     xc contribution           =     -17.31268072 Ry
     ewald contribution        =     -38.66094361 Ry

     convergence has been achieved in   6 iterations

     Forces acting on atoms (cartesian axes, Ry/au):

     atom    1 type  1   force =     0.00000000    0.00000000   -0.00000000
     atom    2 type  2   force =     0.01737121    0.02201750    0.00000000
     atom    3 type  2   force =    -0.01737121   -0.02201750    0.00000000
     atom    4 type  2   force =    -0.02201750    0.01737121   -0.00000000
     atom    5 type  2   force =     0.02201750   -0.01737121   -0.00000000
     The non-local contrib.  to forces
     atom    1 type  1   force =     0.00000000    0.00000000    0.00000000
     atom    2 type  2   force =     0.00479658    0.00546278    0.00000000
     atom    3 type  2   force =    -0.00479658   -0.00546278    0.00000000
     atom    4 type  2   force =    -0.00546278    0.00479658   -0.00000000
     atom    5 type  2   force =     0.00546278   -0.00479658    0.00000000
     The ionic contribution  to forces
     atom    1 type  1   force =     0.00000000    0.00000000    0.00000000
     atom    2 type  2   force =     0.05999025    0.02717686    0.00000000
     atom    3 type  2   force =    -0.05999025   -0.02717686    0.00000000
     atom    4 type  2   force =    -0.02717686    0.05999025    0.00000000
     atom    5 type  2   force =     0.02717686   -0.05999025    0.00000000
     The local contribution  to forces
     atom    1 type  1   force =     0.00000000    0.00000000    0.00000000
     atom    2 type  2   force =    -0.04741698   -0.01062119    0.00000000
     atom    3 type  2   force =     0.04741698    0.01062119    0.00000000
     atom    4 type  2   force =     0.01062119   -0.04741698    0.00000000
     atom    5 type  2   force =    -0.01062119    0.04741698   -0.00000000
     The core correction contribution to forces
     atom    1 type  1   force =    -0.00000000   -0.00000000   -0.00000000
     atom    2 type  2   force =     0.00000000    0.00000000    0.00000000
     atom    3 type  2   force =     0.00000000    0.00000000    0.00000000
     atom    4 type  2   force =     0.00000000    0.00000000    0.00000000
     atom    5 type  2   force =     0.00000000    0.00000000    0.00000000
     The Hubbard contrib.    to forces
     atom    1 type  1   force =     0.00000000    0.00000000    0.00000000
     atom    2 type  2   force =     0.00000000    0.00000000    0.00000000
     atom    3 type  2   force =     0.00000000    0.00000000    0.00000000
     atom    4 type  2   force =     0.00000000    0.00000000    0.00000000
     atom    5 type  2   force =     0.00000000    0.00000000    0.00000000
     The SCF correction term to forces
     atom    1 type  1   force =    -0.00000000    0.00000000   -0.00000000
     atom    2 type  2   force =     0.00000136   -0.00000095   -0.00000000
     atom    3 type  2   force =    -0.00000136    0.00000095    0.00000000
     atom    4 type  2   force =     0.00000095    0.00000136   -0.00000000
     atom    5 type  2   force =    -0.00000095   -0.00000136    0.00000000

     Total force =     0.056090     Total SCF correction =     0.000003


     Computing stress (Cartesian axis) and pressure

          total   stress  (Ry/bohr**3)                   (kbar)     P=      471.09
   0.00322770   0.00000000  -0.00000000          474.81        0.00       -0.00
  -0.00000000   0.00322770  -0.00000000           -0.00      474.81       -0.00
   0.00000000   0.00000000   0.00315173            0.00        0.00      463.64


     BFGS Geometry Optimization
     Energy error            =      0.0E+00 Ry
     Gradient error          =      2.2E-02 Ry/Bohr
     Cell gradient error     =      3.6E+01 kbar

     number of scf cycles    =   1
     number of bfgs steps    =   0

     enthalpy           new  =     -64.9229835316 Ry

     new trust radius        =       0.0280451252 bohr
ibrav =      7
 celldm(1) =     10.66504854
 celldm(3) =      0.46578593
Input lattice vectors:
     0.49785961    -0.49785961     0.23189600
     0.49785961     0.49785961     0.23189600
    -0.49785961    -0.49785961     0.23189600
New lattice vectors in INITIAL alat:
     0.49785961    -0.49785961     0.23189600
     0.49785961     0.49785961     0.23189600
    -0.49785961    -0.49785961     0.23189600
New lattice vectors in NEW alat (for information only):
     0.50000000    -0.50000000     0.23289297
     0.50000000     0.50000000     0.23289297
    -0.50000000    -0.50000000     0.23289297
Discrepancy in bohr =     0.000000    0.000000    0.000000
     new conv_thr            =       0.0000000100 Ry

     new unit-cell volume =    282.51719 a.u.^3 (    41.86473 Ang^3 )
     density =      2.21524 g/cm^3

CELL_PARAMETERS (alat= 10.71089956)
   0.497859609  -0.497859609   0.231896003
   0.497859609   0.497859609   0.231896003
  -0.497859609  -0.497859609   0.231896003

ATOMIC_POSITIONS (crystal)
Si            0.0000000000        0.5000000000        0.5000000000
Li           -0.5862442904        0.6904941159       -0.1042498255
Li            0.5862442904        0.3095058841       -0.8957501745
Li            0.2052560586        0.1042498255       -0.3095058841
Li           -0.2052560586        0.8957501745       -0.6904941159



     Writing config-only to output data dir ./output/SiLi.save/
     NEW-OLD atomic charge density approx. for the potential
     extrapolated charge   15.76206, renormalised to   16.00000

     total cpu time spent up to now is        9.8 secs

     Self-consistent Calculation

     iteration #  1     ecut=    60.00 Ry     beta= 0.80
     Davidson diagonalization with overlap
     ethr =  1.00E-06,  avg # of iterations =  4.9

     total cpu time spent up to now is       11.4 secs

     total energy              =     -65.88583002 Ry
     estimated scf accuracy    <       0.00024706 Ry

     iteration #  2     ecut=    60.00 Ry     beta= 0.80
     Davidson diagonalization with overlap
     ethr =  1.54E-06,  avg # of iterations =  2.0

     total cpu time spent up to now is       12.5 secs

     total energy              =     -65.88632177 Ry
     estimated scf accuracy    <       0.00008566 Ry

     iteration #  3     ecut=    60.00 Ry     beta= 0.80
     Davidson diagonalization with overlap
     ethr =  5.35E-07,  avg # of iterations =  1.0

     total cpu time spent up to now is       13.2 secs

     total energy              =     -65.88631461 Ry
     estimated scf accuracy    <       0.00001422 Ry

     iteration #  4     ecut=    60.00 Ry     beta= 0.80
     Davidson diagonalization with overlap
     ethr =  8.89E-08,  avg # of iterations =  2.0

     total cpu time spent up to now is       14.1 secs

     total energy              =     -65.88631580 Ry
     estimated scf accuracy    <       0.00000012 Ry

     iteration #  5     ecut=    60.00 Ry     beta= 0.80
     Davidson diagonalization with overlap
     ethr =  7.48E-10,  avg # of iterations =  3.4

     total cpu time spent up to now is       15.1 secs

     total energy              =     -65.88631584 Ry
     estimated scf accuracy    <       0.00000018 Ry

     iteration #  6     ecut=    60.00 Ry     beta= 0.80
     Davidson diagonalization with overlap
     ethr =  7.48E-10,  avg # of iterations =  2.0

     total cpu time spent up to now is       15.9 secs

     End of self-consistent calculation

          k = 0.0000 0.0000 0.0000 (  2235 PWs)   bands (ev):

   -38.0402 -37.6365 -37.6365 -37.6295  -2.2200   5.2732   5.2732   6.8331
     7.5864  13.8204  14.0640  16.2373

          k =-0.1435-0.0000 0.3080 (  2240 PWs)   bands (ev):

   -38.0019 -37.6653 -37.6412 -37.6068  -1.8527   5.2702   5.3448   7.2972
     8.1361  11.9151  13.0782  14.6520

          k =-0.2869-0.0000 0.6160 (  2259 PWs)   bands (ev):

   -37.9012 -37.6853 -37.6548 -37.6133  -0.7484   5.4081   5.6050   7.1082
     9.1513   9.6978  11.2719  12.7696

          k =-0.4304-0.0000 0.9241 (  2260 PWs)   bands (ev):

   -37.7767 -37.6894 -37.6738 -37.6637   1.0399   4.0000   5.7103   6.2717
     8.2622  10.4308  11.5261  12.9386

          k = 0.0000 0.2511 0.5390 (  2252 PWs)   bands (ev):

   -37.9304 -37.6817 -37.6507 -37.6074  -1.0934   5.3740   5.5077   7.5561
     8.8831   9.9344  11.5078  13.1617

          k =-0.1435 0.2511 0.8471 (  2251 PWs)   bands (ev):

   -37.8174 -37.6839 -37.6578 -37.6524   0.4725   4.8028   5.7112   6.6744
     8.3366  10.7012  11.1606  11.4926

          k =-0.2869 0.2511 1.1551 (  2261 PWs)   bands (ev):

   -37.7295 -37.7065 -37.6917 -37.6703   1.6357   3.2968   5.5079   6.1019
     8.2584  11.1687  11.6022  13.5677

          k =-0.4304 0.2511 1.4631 (  2250 PWs)   bands (ev):

   -37.8298 -37.7323 -37.6621 -37.6131  -0.2007   4.3890   6.0042   6.0758
     8.0547  11.2887  12.7851  13.6704

          k = 0.4304 0.2511-0.3850 (  2242 PWs)   bands (ev):

   -37.9336 -37.7492 -37.6461 -37.5724  -1.5394   3.8626   5.4361   8.2837
     8.7018  11.1080  12.9777  13.2235

          k = 0.2869 0.2511-0.0770 (  2256 PWs)   bands (ev):

   -37.9991 -37.7379 -37.6364 -37.5698  -2.1296   3.8464   5.2157   7.6225
     8.9728  12.5719  13.1788  15.3040

          k = 0.1435 0.2511 0.2310 (  2243 PWs)   bands (ev):

   -37.9989 -37.7056 -37.6401 -37.5827  -1.9739   4.3590   5.3602   7.3122
     9.0916  11.9213  12.7757  14.6753

          k =-0.0000-0.5021-1.0781 (  2252 PWs)   bands (ev):

   -37.7256 -37.7158 -37.6815 -37.6720   1.7550   3.1240   5.7196   6.4865
     7.9008  10.4424  12.1238  12.6335

          k =-0.1435-0.5021-0.7700 (  2252 PWs)   bands (ev):

   -37.8187 -37.7076 -37.6667 -37.6305   0.1798   5.0424   5.2028   5.9520
     8.7135  10.5784  11.7644  13.5782

          k =-0.2869-0.5021-0.4620 (  2250 PWs)   bands (ev):

   -37.9021 -37.7573 -37.6503 -37.5769  -1.2595   3.8367   5.6323   7.6233
     8.9243  11.3809  12.1962  13.2845

          k =-0.4304-0.5021-0.1540 (  2253 PWs)   bands (ev):

   -37.9481 -37.7983 -37.6368 -37.5543  -2.0012   3.2652   5.2674   7.9731
     9.1065  12.5329  13.4393  15.4625

          k = 0.2511-0.2511 0.0000 (  2249 PWs)   bands (ev):

   -38.0056 -37.7309 -37.6357 -37.5720  -2.1598   3.9225   5.2356   7.4514
     9.0036  12.6212  13.1835  15.5800

          k = 0.1076-0.2511 0.3080 (  2242 PWs)   bands (ev):

   -37.9876 -37.6973 -37.6434 -37.5872  -1.8207   4.6149   5.2901   7.7490
     8.6817  11.3325  13.0787  13.9597

          k =-0.0359-0.2511 0.6160 (  2255 PWs)   bands (ev):

   -37.9048 -37.6806 -37.6521 -37.6165  -0.7633   5.5123   5.6888   7.1319
     8.9227   9.8549  11.2296  12.4968

          k =-0.1793-0.2511 0.9241 (  2247 PWs)   bands (ev):

   -37.7871 -37.6852 -37.6698 -37.6598   0.9484   4.1565   5.8580   6.3537
     8.6289  10.4338  10.9519  12.2416

          k = 0.6815-0.2511-0.9241 (  2259 PWs)   bands (ev):

   -37.7529 -37.7063 -37.6778 -37.6662   1.2076   3.8222   5.2530   6.0235
     8.3053  11.1494  11.8888  14.3176

          k = 0.5380-0.2511-0.6160 (  2254 PWs)   bands (ev):

   -37.8575 -37.7388 -37.6588 -37.5986  -0.6034   4.2436   5.7395   6.9171
     8.2205  11.6197  12.2657  12.7930

          k = 0.3945-0.2511-0.3080 (  2243 PWs)   bands (ev):

   -37.9549 -37.7494 -37.6426 -37.5688  -1.7578   3.7947   5.4481   7.5063
    10.1511  10.9913  12.2579  14.1934

          k = 0.1076-0.0000 0.8471 (  2249 PWs)   bands (ev):

   -37.8274 -37.6691 -37.6591 -37.6555   0.4048   4.9807   6.3980   6.4722
     8.2227  10.0178  11.0020  11.2769

          k =-0.0359-0.0000 1.1551 (  2251 PWs)   bands (ev):

   -37.7079 -37.7071 -37.6910 -37.6906   1.7557   3.2645   5.8141   5.8226
     7.3871  11.6109  12.0374  12.1007

          k =-0.1793-0.0000 1.4631 (  2256 PWs)   bands (ev):

   -37.7851 -37.7315 -37.7138 -37.6073  -0.0077   4.7493   4.8004   5.8716
     6.8197  13.2008  14.0856  15.4987

          k = 0.6815 0.0000-0.3850 (  2241 PWs)   bands (ev):

   -37.8835 -37.7570 -37.7115 -37.5488  -1.4095   4.0871   4.1586   6.7323
     9.4798  13.3467  14.0447  16.0832

          k = 0.5380 0.0000-0.0770 (  2248 PWs)   bands (ev):

   -37.9600 -37.7529 -37.6913 -37.5378  -2.0504   3.9317   4.0774   6.9859
    10.9976  12.8813  14.2188  15.1756

          k = 0.3945 0.0000 0.2310 (  2240 PWs)   bands (ev):

   -37.9794 -37.7204 -37.6651 -37.5620  -1.9305   4.3827   4.5380   7.5920
     9.6427  11.7962  13.0522  15.2155

          k = 0.2511-0.7532-1.0781 (  2260 PWs)   bands (ev):

   -37.7292 -37.7084 -37.6886 -37.6697   1.7469   3.1681   5.8426   6.0093
     8.4106  10.8627  11.3366  13.1162

          k = 0.1076-0.7532-0.7700 (  2249 PWs)   bands (ev):

   -37.7808 -37.7218 -37.6912 -37.6288   0.3704   4.7727   5.1724   5.4231
     7.2812  11.9689  13.6514  14.7276

          k =-0.0359-0.7532-0.4620 (  2247 PWs)   bands (ev):

   -37.8505 -37.7571 -37.7207 -37.5575  -1.1103   4.1213   4.2889   6.5795
     8.5223  14.0580  14.7470  15.5978

          k =-0.1793-0.7532-0.1540 (  2250 PWs)   bands (ev):

   -37.9013 -37.7953 -37.7144 -37.5258  -1.9010   3.4482   4.1532   6.3578
    12.1262  13.3938  14.6912  15.8760

          k = 0.6815-0.7532-2.0021 (  2244 PWs)   bands (ev):

   -37.9210 -37.7959 -37.6855 -37.5338  -1.9395   3.3839   4.4727   6.8392
    10.9746  13.4063  14.2314  15.5849

          k = 0.5380-0.7532-1.6941 (  2251 PWs)   bands (ev):

   -37.8977 -37.7570 -37.6585 -37.5734  -1.2438   3.8607   5.3980   7.9440
     8.3594  11.4211  12.9708  13.5782

          k = 0.3945-0.7532-1.3861 (  2248 PWs)   bands (ev):

   -37.8273 -37.7085 -37.6527 -37.6346   0.1217   4.8120   5.4150   6.6644
     8.4406  11.0974  11.8407  12.0262

          k = 0.2511-0.5021-0.5390 (  2251 PWs)   bands (ev):

   -37.8839 -37.7442 -37.6545 -37.5874  -0.9616   4.0604   5.7214   7.5831
     8.2718  11.0588  12.5090  13.3549

          k = 0.1076-0.5021-0.2310 (  2244 PWs)   bands (ev):

   -37.9536 -37.7495 -37.6747 -37.5495  -1.8812   3.9038   4.4967   7.4781
     9.9384  12.3505  13.5703  14.8573

          k =-0.0359-0.5021 0.0770 (  2240 PWs)   bands (ev):

   -37.9689 -37.7471 -37.6833 -37.5418  -2.0670   3.9068   4.2710   7.0736
    10.8063  12.5666  14.0535  15.0970

          k =-0.1793-0.5021 0.3850 (  2247 PWs)   bands (ev):

   -37.9240 -37.7497 -37.6634 -37.5648  -1.5114   3.8991   5.1178   7.4282
     9.7558  11.4664  12.3624  14.2635

          k = 0.6815-0.5021-1.4631 (  2253 PWs)   bands (ev):

   -37.8372 -37.7326 -37.6514 -37.6165  -0.2400   4.3764   5.8996   6.4712
     8.5925  11.3274  11.7070  12.6147

          k = 0.5380-0.5021-1.1551 (  2271 PWs)   bands (ev):

   -37.7392 -37.7044 -37.6937 -37.6620   1.5429   3.3868   5.3471   5.9728
    10.1040  11.1650  11.7535  12.3449

          k = 0.3945-0.5021-0.8471 (  2257 PWs)   bands (ev):

   -37.7878 -37.7179 -37.6550 -37.6515   0.6328   4.5783   4.7982   6.5192
     8.8590  11.6801  11.8759  12.7656

          k =-0.5021 0.5021-0.0000 (  2254 PWs)   bands (ev):

   -37.9536 -37.8046 -37.6345 -37.5521  -2.0947   3.1964   5.1972   8.2307
     8.7339  12.5793  15.0896  15.1856

          k =-0.6456 0.5021 0.3080 (  2241 PWs)   bands (ev):

   -37.9305 -37.7810 -37.6422 -37.5618  -1.7217   3.4816   5.3865   8.1955
     8.8546  11.9379  12.8149  13.9948

          k =-0.7891 0.5021 0.6160 (  2256 PWs)   bands (ev):

   -37.8638 -37.7315 -37.6585 -37.6001  -0.6209   4.3132   5.8493   6.8642
     8.2831  10.9861  12.3897  13.5422

          k =-0.9326 0.5021 0.9241 (  2261 PWs)   bands (ev):

   -37.7694 -37.6945 -37.6727 -37.6669   1.0988   3.9243   5.4806   6.3793
     8.0174  10.6334  11.9738  13.1836

          k =-0.6456 0.7532 0.8471 (  2249 PWs)   bands (ev):

   -37.8043 -37.6990 -37.6588 -37.6493   0.5515   4.6842   5.2387   6.4274
     9.2643  10.2045  11.3017  12.5746

          k =-0.7891 0.7532 1.1551 (  2262 PWs)   bands (ev):

   -37.7269 -37.7056 -37.6925 -37.6730   1.6597   3.2827   5.6092   6.0049
     8.1006  10.9865  11.6834  13.5230

          k =-0.9326 0.7532 1.4631 (  2243 PWs)   bands (ev):

   -37.7994 -37.7294 -37.6998 -37.6076  -0.0554   4.7009   4.9574   5.9297
     7.1144  12.7820  13.4334  15.5853

          k =-0.0717 0.7532-0.3850 (  2251 PWs)   bands (ev):

   -37.8659 -37.7680 -37.7224 -37.5458  -1.3770   3.9064   4.1964   6.4868
     9.4406  13.9598  14.7957  16.3471

          k =-0.2152 0.7532-0.0770 (  2246 PWs)   bands (ev):

   -37.9097 -37.7998 -37.7081 -37.5245  -1.9814   3.3860   4.1660   6.4351
    12.0157  13.9667  14.8511  15.8505

          k =-0.3587 0.7532 0.2310 (  2249 PWs)   bands (ev):

   -37.9199 -37.7895 -37.6777 -37.5408  -1.8326   3.4385   4.7037   6.9222
    10.8970  12.5129  13.4496  15.7269

          k =-0.6456-0.0000-0.7700 (  2254 PWs)   bands (ev):

   -37.7979 -37.7113 -37.6853 -37.6289   0.2991   4.9496   5.2163   5.4451
     7.7103  11.4175  12.8311  14.9687

          k =-0.7891-0.0000-0.4620 (  2249 PWs)   bands (ev):

   -37.8415 -37.7591 -37.7293 -37.5561  -1.0919   4.1518   4.1884   6.4495
     8.4968  14.4448  15.0683  16.0825

          k =-0.9326-0.0000-0.1540 (  2266 PWs)   bands (ev):

   -37.8415 -37.7950 -37.7857 -37.5163  -1.8318   3.6195   3.6254   5.7660
    12.4460  15.8857  16.2032  16.9535

          k = 0.2511-0.1435-0.8471 (  2251 PWs)   bands (ev):

   -37.8175 -37.6835 -37.6598 -37.6507   0.4723   4.8108   5.7890   6.4424
     8.7684  10.2258  10.8885  11.9836

          k = 0.2511-0.2869-1.1551 (  2261 PWs)   bands (ev):

   -37.7298 -37.7051 -37.6927 -37.6702   1.6355   3.2970   5.5567   6.0189
     8.3454  11.0061  11.6406  13.7250

          k = 0.2511-0.4304-1.4631 (  2250 PWs)   bands (ev):

   -37.8302 -37.7316 -37.6626 -37.6129  -0.2009   4.4434   5.7085   6.2393
     8.2296  11.7060  11.9334  13.3649

          k = 0.2511 0.4304 0.3850 (  2242 PWs)   bands (ev):

   -37.9331 -37.7494 -37.6464 -37.5725  -1.5394   3.8532   5.5259   7.5798
     9.8211  10.8997  12.0880  13.7277

          k = 0.2511 0.2869 0.0770 (  2256 PWs)   bands (ev):

   -37.9994 -37.7381 -37.6361 -37.5696  -2.1297   3.8362   5.2669   7.4197
     9.2389  12.4898  13.0413  15.3555

          k = 0.2511 0.1435-0.2310 (  2243 PWs)   bands (ev):

   -37.9987 -37.7055 -37.6405 -37.5826  -1.9738   4.3928   5.2510   7.6705
     8.6674  11.8475  13.5213  14.1122

          k =-0.5021-0.1435 0.7700 (  2252 PWs)   bands (ev):

   -37.8185 -37.7084 -37.6655 -37.6311   0.1802   4.8212   5.4028   6.1487
     8.2124  10.7880  12.4336  13.3791

          k =-0.5021-0.2869 0.4620 (  2250 PWs)   bands (ev):

   -37.9022 -37.7571 -37.6502 -37.5770  -1.2594   3.8348   5.5979   8.1736
     8.2878  11.1484  12.8441  13.1616

          k =-0.5021-0.4304 0.1540 (  2253 PWs)   bands (ev):

   -37.9479 -37.7983 -37.6369 -37.5543  -2.0012   3.2677   5.2463   8.2059
     8.8181  12.6251  13.5236  15.2798

          k =-0.2511 0.1076-0.3080 (  2242 PWs)   bands (ev):

   -37.9876 -37.6975 -37.6432 -37.5872  -1.8207   4.5781   5.3883   7.4264
     9.0661  11.4117  12.5009  14.3101

          k =-0.2511-0.0359-0.6160 (  2255 PWs)   bands (ev):

   -37.9048 -37.6808 -37.6519 -37.6164  -0.7633   5.4149   5.8324   7.0498
     9.1295   9.5973  11.2751  12.6778

          k =-0.2511-0.1793-0.9241 (  2247 PWs)   bands (ev):

   -37.7869 -37.6861 -37.6675 -37.6614   0.9486   4.1549   5.7686   6.5415
     8.3688  10.5591  11.3534  11.8410

          k =-0.2511 0.6815 0.9241 (  2259 PWs)   bands (ev):

   -37.7525 -37.7077 -37.6752 -37.6678   1.2079   3.8208   5.1869   6.1834
     8.0961  11.2514  12.2239  13.9194

          k =-0.2511 0.5380 0.6160 (  2254 PWs)   bands (ev):

   -37.8571 -37.7391 -37.6584 -37.5989  -0.6033   4.2083   5.8842   6.8278
     8.1640  11.2050  12.5515  13.4816

          k =-0.2511 0.3945 0.3080 (  2243 PWs)   bands (ev):

   -37.9552 -37.7492 -37.6426 -37.5686  -1.7578   3.8113   5.3326   8.1955
     8.8741  11.5017  13.1823  13.4444

          k =-0.7532 0.1076 0.7700 (  2249 PWs)   bands (ev):

   -37.7816 -37.7209 -37.6916 -37.6286   0.3702   4.8555   5.1116   5.3607
     7.3429  12.2006  12.9018  15.3623

          k =-0.7532-0.0359 0.4620 (  2247 PWs)   bands (ev):

   -37.8506 -37.7573 -37.7204 -37.5575  -1.1103   4.1231   4.2850   6.5895
     8.5099  14.0102  14.6347  16.2200

          k =-0.7532-0.1793 0.1540 (  2250 PWs)   bands (ev):

   -37.9013 -37.7952 -37.7144 -37.5260  -1.9010   3.4628   4.1224   6.3955
    11.8718  13.5224  15.2067  15.9040

          k =-0.7532 0.6815 2.0021 (  2244 PWs)   bands (ev):

   -37.9212 -37.7961 -37.6853 -37.5336  -1.9395   3.3709   4.5154   6.7533
    11.3225  13.1743  13.8053  15.8070

          k =-0.7532 0.5380 1.6941 (  2251 PWs)   bands (ev):

   -37.8976 -37.7569 -37.6585 -37.5735  -1.2438   3.8628   5.4292   7.5241
     8.8579  11.6802  12.4417  13.4973

          k =-0.7532 0.3945 1.3861 (  2248 PWs)   bands (ev):

   -37.8274 -37.7079 -37.6537 -37.6341   0.1215   4.9144   5.3199   6.4739
     9.0636  10.4881  11.4220  12.4086

          k =-0.5021 0.2511 0.5390 (  2251 PWs)   bands (ev):

   -37.8841 -37.7443 -37.6545 -37.5870  -0.9617   4.0778   5.6806   7.4925
     8.4039  11.5173  12.2160  12.7856

          k =-0.5021 0.1076 0.2310 (  2244 PWs)   bands (ev):

   -37.9537 -37.7498 -37.6745 -37.5493  -1.8812   3.8400   4.6342   7.1632
    11.0634  11.5693  12.8914  15.2919

          k =-0.5021-0.0359-0.0770 (  2240 PWs)   bands (ev):

   -37.9687 -37.7470 -37.6833 -37.5420  -2.0670   4.0070   4.1406   7.1846
    10.4552  12.8355  14.3388  15.1482

          k =-0.5021-0.1793-0.3850 (  2247 PWs)   bands (ev):

   -37.9247 -37.7495 -37.6632 -37.5645  -1.5114   3.9162   5.0332   7.8934
     8.9820  11.5157  13.0337  14.1291

          k =-0.5021 0.6815 1.4631 (  2253 PWs)   bands (ev):

   -37.8370 -37.7330 -37.6511 -37.6166  -0.2399   4.3437   6.0468   6.4256
     8.4039  11.1222  12.2131  12.7729

          k =-0.5021 0.5380 1.1551 (  2271 PWs)   bands (ev):

   -37.7392 -37.7045 -37.6936 -37.6621   1.5429   3.3867   5.3428   5.9802
    10.0418  11.3833  11.5983  12.3614

          k =-0.5021 0.3945 0.8471 (  2257 PWs)   bands (ev):

   -37.7879 -37.7175 -37.6565 -37.6503   0.6326   4.5920   4.8024   6.4322
     9.1317  11.2350  11.7038  12.9578

          k = 0.5021-0.6456-0.3080 (  2241 PWs)   bands (ev):

   -37.9304 -37.7812 -37.6422 -37.5617  -1.7217   3.4756   5.4469   7.7142
     9.5610  11.7456  12.4023  14.3834

          k = 0.5021-0.7891-0.6160 (  2256 PWs)   bands (ev):

   -37.8641 -37.7312 -37.6589 -37.5997  -0.6211   4.3610   5.6765   6.9816
     8.3236  11.3659  12.3216  12.5726

          k = 0.5021-0.9326-0.9241 (  2261 PWs)   bands (ev):

   -37.7697 -37.6917 -37.6784 -37.6637   1.0983   3.9271   5.7325   5.9257
     8.4899  10.3001  11.6816  13.5347

          k = 0.7532-0.6456-0.8471 (  2249 PWs)   bands (ev):

   -37.8041 -37.6997 -37.6558 -37.6518   0.5518   4.6668   5.1953   6.6821
     8.4990  11.1840  11.6462  11.8345

          k = 0.7532-0.7891-1.1551 (  2262 PWs)   bands (ev):

   -37.7265 -37.7070 -37.6914 -37.6731   1.6598   3.2825   5.5570   6.0898
     8.0301  11.0931  11.6759  13.3956

          k = 0.7532-0.9326-1.4631 (  2243 PWs)   bands (ev):

   -37.7992 -37.7300 -37.6995 -37.6074  -0.0554   4.6332   5.0501   5.9225
     7.0881  12.5253  14.1006  15.4279

          k = 0.7532-0.0717 0.3850 (  2251 PWs)   bands (ev):

   -37.8657 -37.7682 -37.7224 -37.5457  -1.3771   3.8923   4.2183   6.4638
     9.4732  14.0582  14.7502  15.9257

          k = 0.7532-0.2152 0.0770 (  2246 PWs)   bands (ev):

   -37.9097 -37.7998 -37.7081 -37.5245  -1.9814   3.3781   4.1842   6.4105
    12.1864  13.8870  14.6025  15.5882

          k = 0.7532-0.3587-0.2310 (  2249 PWs)   bands (ev):

   -37.9200 -37.7894 -37.6777 -37.5408  -1.8326   3.4539   4.6432   7.0696
    10.4184  12.7979  14.0823  14.9790

     the Fermi energy is     7.7631 ev

!    total energy              =     -65.88631586 Ry
     estimated scf accuracy    <          2.9E-09 Ry
     smearing contrib. (-TS)   =       0.00039274 Ry
     internal energy E=F+TS    =     -65.88670860 Ry

     The total energy is F=E-TS. E is the sum of the following terms:
     one-electron contribution =     -21.05542852 Ry
     hartree contribution      =      11.36245561 Ry
     xc contribution           =     -17.33951910 Ry
     ewald contribution        =     -38.85421658 Ry

     convergence has been achieved in   6 iterations

     Forces acting on atoms (cartesian axes, Ry/au):

     atom    1 type  1   force =     0.00000000    0.00000000    0.00000000
     atom    2 type  2   force =     0.01371832    0.01416521    0.00000000
     atom    3 type  2   force =    -0.01371832   -0.01416521    0.00000000
     atom    4 type  2   force =    -0.01416521    0.01371832   -0.00000000
     atom    5 type  2   force =     0.01416521   -0.01371832    0.00000000
     The non-local contrib.  to forces
     atom    1 type  1   force =     0.00000000    0.00000000    0.00000000
     atom    2 type  2   force =     0.00594105    0.00525129    0.00000000
     atom    3 type  2   force =    -0.00594105   -0.00525129   -0.00000000
     atom    4 type  2   force =    -0.00525129    0.00594105   -0.00000000
     atom    5 type  2   force =     0.00525129   -0.00594105    0.00000000
     The ionic contribution  to forces
     atom    1 type  1   force =    -0.00000000    0.00000000    0.00000000
     atom    2 type  2   force =     0.02275867   -0.04149148    0.00000000
     atom    3 type  2   force =    -0.02275867    0.04149148   -0.00000000
     atom    4 type  2   force =     0.04149148    0.02275867    0.00000000
     atom    5 type  2   force =    -0.04149148   -0.02275867   -0.00000000
     The local contribution  to forces
     atom    1 type  1   force =     0.00000000   -0.00000000    0.00000000
     atom    2 type  2   force =    -0.01497948    0.05038850    0.00000000
     atom    3 type  2   force =     0.01497948   -0.05038850   -0.00000000
     atom    4 type  2   force =    -0.05038850   -0.01497948    0.00000000
     atom    5 type  2   force =     0.05038850    0.01497948   -0.00000000
     The core correction contribution to forces
     atom    1 type  1   force =     0.00000000    0.00000000   -0.00000000
     atom    2 type  2   force =     0.00000000    0.00000000    0.00000000
     atom    3 type  2   force =     0.00000000    0.00000000    0.00000000
     atom    4 type  2   force =     0.00000000    0.00000000    0.00000000
     atom    5 type  2   force =     0.00000000    0.00000000    0.00000000
     The Hubbard contrib.    to forces
     atom    1 type  1   force =     0.00000000    0.00000000    0.00000000
     atom    2 type  2   force =     0.00000000    0.00000000    0.00000000
     atom    3 type  2   force =     0.00000000    0.00000000    0.00000000
     atom    4 type  2   force =     0.00000000    0.00000000    0.00000000
     atom    5 type  2   force =     0.00000000    0.00000000    0.00000000
     The SCF correction term to forces
     atom    1 type  1   force =     0.00000000   -0.00000000    0.00000000
     atom    2 type  2   force =    -0.00000192    0.00001689    0.00000000
     atom    3 type  2   force =     0.00000192   -0.00001689   -0.00000000
     atom    4 type  2   force =    -0.00001689   -0.00000192   -0.00000000
     atom    5 type  2   force =     0.00001689    0.00000192    0.00000000

     Total force =     0.039438     Total SCF correction =     0.000034


     Computing stress (Cartesian axis) and pressure

          total   stress  (Ry/bohr**3)                   (kbar)     P=      502.68
   0.00344012  -0.00000000  -0.00000000          506.06       -0.00       -0.00
   0.00000000   0.00344012   0.00000000            0.00      506.06        0.00
   0.00000000   0.00000000   0.00337112            0.00        0.00      495.91

     Energy error            =      3.1E-03 Ry
     Gradient error          =      1.4E-02 Ry/Bohr
     Cell gradient error     =      6.1E+00 kbar

     number of scf cycles    =   2
     number of bfgs steps    =   1

     enthalpy           old  =     -64.9229835316 Ry
     enthalpy           new  =     -64.9260594363 Ry

     CASE: enthalpy          _new < enthalpy          _old

     new trust radius        =       0.0418876053 bohr
ibrav =      7
 celldm(1) =     10.66569204
 celldm(3) =      0.46416290
Input lattice vectors:
     0.49788965    -0.49788965     0.23110191
     0.49788965     0.49788965     0.23110191
    -0.49788965    -0.49788965     0.23110191
New lattice vectors in INITIAL alat:
     0.49788965    -0.49788965     0.23110191
     0.49788965     0.49788965     0.23110191
    -0.49788965    -0.49788965     0.23110191
New lattice vectors in NEW alat (for information only):
     0.50000000    -0.50000000     0.23208145
     0.50000000     0.50000000     0.23208145
    -0.50000000    -0.50000000     0.23208145
Discrepancy in bohr =     0.000000    0.000000    0.000000
     new conv_thr            =            1.0E-10 Ry

     new unit-cell volume =    281.58373 a.u.^3 (    41.72640 Ang^3 )
     density =      2.22258 g/cm^3

CELL_PARAMETERS (alat= 10.71089956)
   0.497889649  -0.497889649   0.231101906
   0.497889649   0.497889649   0.231101906
  -0.497889649  -0.497889649   0.231101906

ATOMIC_POSITIONS (crystal)
Si           -0.0000000000        0.5000000000        0.5000000000
Li           -0.5864721197        0.6933828968       -0.1069107771
Li            0.5864721197        0.3066171032       -0.8930892229
Li            0.1997063261        0.1069107771       -0.3066171032
Li           -0.1997063261        0.8930892229       -0.6933828968



     Writing config-only to output data dir ./output/SiLi.save/
     NEW-OLD atomic charge density approx. for the potential
     extrapolated charge   15.94702, renormalised to   16.00000

     total cpu time spent up to now is       17.2 secs

     Self-consistent Calculation

     iteration #  1     ecut=    60.00 Ry     beta= 0.80
     Davidson diagonalization with overlap
     ethr =  1.00E-06,  avg # of iterations =  5.5

     total cpu time spent up to now is       18.7 secs

     total energy              =     -65.88515615 Ry
     estimated scf accuracy    <       0.00068344 Ry

     iteration #  2     ecut=    60.00 Ry     beta= 0.80
     Davidson diagonalization with overlap
     ethr =  4.27E-06,  avg # of iterations =  2.1

     total cpu time spent up to now is       19.6 secs

     total energy              =     -65.88529851 Ry
     estimated scf accuracy    <       0.00077247 Ry

     iteration #  3     ecut=    60.00 Ry     beta= 0.80
     Davidson diagonalization with overlap
     ethr =  4.27E-06,  avg # of iterations =  2.0

     total cpu time spent up to now is       20.4 secs

     total energy              =     -65.88545384 Ry
     estimated scf accuracy    <       0.00000339 Ry

     iteration #  4     ecut=    60.00 Ry     beta= 0.80
     Davidson diagonalization with overlap
     ethr =  2.12E-08,  avg # of iterations =  2.1

     total cpu time spent up to now is       21.3 secs

     total energy              =     -65.88545441 Ry
     estimated scf accuracy    <       0.00000030 Ry

     iteration #  5     ecut=    60.00 Ry     beta= 0.80
     Davidson diagonalization with overlap
     ethr =  1.87E-09,  avg # of iterations =  2.0

     total cpu time spent up to now is       22.2 secs

     total energy              =     -65.88545449 Ry
     estimated scf accuracy    <       0.00000001 Ry

     iteration #  6     ecut=    60.00 Ry     beta= 0.80
     Davidson diagonalization with overlap
     ethr =  9.36E-11,  avg # of iterations =  2.4

     total cpu time spent up to now is       23.0 secs

     total energy              =     -65.88545449 Ry
     estimated scf accuracy    <          2.9E-10 Ry

     iteration #  7     ecut=    60.00 Ry     beta= 0.80
     Davidson diagonalization with overlap
     ethr =  1.83E-12,  avg # of iterations =  3.1

     total cpu time spent up to now is       24.0 secs

     End of self-consistent calculation

          k = 0.0000 0.0000 0.0000 (  2235 PWs)   bands (ev):

   -38.0071 -37.6221 -37.5987 -37.5987  -2.2087   5.2311   5.2311   6.8469
     7.6536  13.8751  14.1675  16.2351

          k =-0.1435-0.0000 0.3091 (  2240 PWs)   bands (ev):

   -37.9686 -37.6447 -37.6044 -37.5804  -1.8421   5.2377   5.3238   7.3194
     8.1803  11.9436  13.1593  14.7146

          k =-0.2869-0.0000 0.6182 (  2259 PWs)   bands (ev):

   -37.8676 -37.6622 -37.6205 -37.5847  -0.7385   5.4007   5.6094   7.1314
     9.1733   9.7528  11.3149  12.7996

          k =-0.4304-0.0000 0.9272 (  2260 PWs)   bands (ev):

   -37.7438 -37.6622 -37.6432 -37.6329   1.0530   4.0071   5.7323   6.2861
     8.3092  10.4562  11.5986  13.0111

          k =-0.0000 0.2511 0.5409 (  2252 PWs)   bands (ev):

   -37.8968 -37.6594 -37.6157 -37.5794  -1.0835   5.3572   5.5101   7.5826
     8.9051   9.9801  11.5570  13.1982

          k =-0.1435 0.2511 0.8500 (  2251 PWs)   bands (ev):

   -37.7844 -37.6573 -37.6266 -37.6222   0.4872   4.8071   5.7270   6.6783
     8.3886  10.7642  11.1953  11.5179

          k =-0.2869 0.2511 1.1590 (  2261 PWs)   bands (ev):

   -37.6956 -37.6779 -37.6621 -37.6408   1.6481   3.3022   5.5369   6.1251
     8.2961  11.2334  11.6205  13.6873

          k =-0.4304 0.2511 1.4681 (  2250 PWs)   bands (ev):

   -37.7941 -37.7099 -37.6295 -37.5837  -0.2005   4.4107   6.0235   6.0853
     8.1045  11.3250  12.8212  13.7318

          k = 0.4304 0.2511-0.3863 (  2242 PWs)   bands (ev):

   -37.8980 -37.7290 -37.6106 -37.5461  -1.5397   3.8763   5.4172   8.3493
     8.6999  11.1375  13.0409  13.2826

          k = 0.2869 0.2511-0.0773 (  2256 PWs)   bands (ev):

   -37.9644 -37.7180 -37.5988 -37.5458  -2.1271   3.8503   5.1779   7.6707
     8.9760  12.6001  13.2529  15.3872

          k = 0.1435 0.2511 0.2318 (  2243 PWs)   bands (ev):

   -37.9650 -37.6848 -37.6033 -37.5576  -1.9676   4.3521   5.3297   7.3476
     9.1061  11.9550  12.8468  14.7603

          k = 0.0000-0.5021-1.0818 (  2252 PWs)   bands (ev):

   -37.6947 -37.6828 -37.6538 -37.6422   1.7744   3.1246   5.7447   6.5016
     7.9457  10.4737  12.1791  12.7529

          k =-0.1435-0.5021-0.7727 (  2252 PWs)   bands (ev):

   -37.7846 -37.6833 -37.6346 -37.6004   0.1846   5.0624   5.2099   5.9819
     8.7478  10.6096  11.8355  13.5996

          k =-0.2869-0.5021-0.4636 (  2250 PWs)   bands (ev):

   -37.8655 -37.7375 -37.6155 -37.5498  -1.2614   3.8533   5.6255   7.6463
     8.9688  11.4125  12.2378  13.3656

          k =-0.4304-0.5021-0.1545 (  2253 PWs)   bands (ev):

   -37.9089 -37.7824 -37.5996 -37.5300  -2.0062   3.2841   5.2339   8.0213
     9.1286  12.5831  13.4782  15.5320

          k = 0.2511-0.2511 0.0000 (  2249 PWs)   bands (ev):

   -37.9712 -37.7108 -37.5980 -37.5482  -2.1564   3.9236   5.1963   7.4966
     9.0094  12.6527  13.2585  15.6655

          k = 0.1076-0.2511 0.3091 (  2242 PWs)   bands (ev):

   -37.9538 -37.6762 -37.6070 -37.5614  -1.8135   4.6083   5.2649   7.7878
     8.6916  11.3703  13.1534  14.0140

          k =-0.0359-0.2511 0.6182 (  2255 PWs)   bands (ev):

   -37.8713 -37.6574 -37.6179 -37.5879  -0.7524   5.5008   5.6938   7.1512
     8.9523   9.9085  11.2702  12.5315

          k =-0.1793-0.2511 0.9272 (  2247 PWs)   bands (ev):

   -37.7545 -37.6576 -37.6390 -37.6296   0.9652   4.1584   5.8739   6.3757
     8.6680  10.4671  11.0114  12.2928

          k = 0.6814-0.2511-0.9272 (  2259 PWs)   bands (ev):

   -37.7183 -37.6812 -37.6467 -37.6358   1.2138   3.8342   5.2800   6.0490
     8.3418  11.2026  11.9285  14.3491

          k = 0.5380-0.2511-0.6182 (  2254 PWs)   bands (ev):

   -37.8216 -37.7173 -37.6254 -37.5699  -0.6038   4.2623   5.7467   6.9420
     8.2572  11.6470  12.3269  12.8518

          k = 0.3945-0.2511-0.3091 (  2243 PWs)   bands (ev):

   -37.9194 -37.7294 -37.6064 -37.5433  -1.7575   3.8043   5.4253   7.5401
    10.1784  11.0174  12.3156  14.2725

          k = 0.1076 0.0000 0.8500 (  2249 PWs)   bands (ev):

   -37.7947 -37.6427 -37.6279 -37.6249   0.4222   4.9813   6.4028   6.4750
     8.2777  10.1079  11.0182  11.2936

          k =-0.0359-0.0000 1.1590 (  2251 PWs)   bands (ev):

   -37.6765 -37.6708 -37.6645 -37.6633   1.7638   3.2658   5.8468   5.8553
     7.4268  11.7282  12.0509  12.1393

          k =-0.1793 0.0000 1.4681 (  2256 PWs)   bands (ev):

   -37.7489 -37.7098 -37.6814 -37.5775  -0.0233   4.7865   4.8429   5.9023
     6.8340  13.2727  14.1347  15.5967

          k = 0.6814-0.0000-0.3863 (  2241 PWs)   bands (ev):

   -37.8474 -37.7389 -37.6760 -37.5210  -1.4252   4.1028   4.2050   6.7340
     9.5248  13.3355  14.1005  16.1756

          k = 0.5380 0.0000-0.0773 (  2248 PWs)   bands (ev):

   -37.9245 -37.7357 -37.6543 -37.5112  -2.0593   3.9288   4.1102   6.9876
    11.0006  12.9113  14.3014  15.2554

          k = 0.3945-0.0000 0.2318 (  2240 PWs)   bands (ev):

   -37.9450 -37.7016 -37.6282 -37.5355  -1.9296   4.3638   4.5556   7.6079
     9.6510  11.8328  13.1215  15.3090

          k = 0.2511-0.7532-1.0818 (  2260 PWs)   bands (ev):

   -37.6976 -37.6754 -37.6608 -37.6406   1.7670   3.1659   5.8711   6.0317
     8.4480  10.9027  11.3805  13.2235

          k = 0.1076-0.7532-0.7727 (  2249 PWs)   bands (ev):

   -37.7454 -37.6986 -37.6594 -37.5986   0.3625   4.8012   5.2025   5.4518
     7.3113  12.0326  13.6860  14.8278

          k =-0.0359-0.7532-0.4636 (  2247 PWs)   bands (ev):

   -37.8139 -37.7384 -37.6861 -37.5292  -1.1288   4.1543   4.3316   6.5791
     8.5656  14.0513  14.7999  15.6850

          k =-0.1793-0.7532-0.1545 (  2250 PWs)   bands (ev):

   -37.8624 -37.7794 -37.6798 -37.4988  -1.9211   3.4838   4.1860   6.3451
    12.1651  13.4257  14.7433  15.8998

          k = 0.6814-0.7532-2.0090 (  2244 PWs)   bands (ev):

   -37.8820 -37.7801 -37.6505 -37.5072  -1.9537   3.4132   4.4839   6.8437
    10.9959  13.4654  14.2878  15.6195

          k = 0.5380-0.7532-1.6999 (  2251 PWs)   bands (ev):

   -37.8612 -37.7371 -37.6240 -37.5460  -1.2474   3.8804   5.3940   7.9704
     8.4005  11.4429  13.0356  13.6350

          k = 0.3945-0.7532-1.3909 (  2248 PWs)   bands (ev):

   -37.7932 -37.6837 -37.6206 -37.6051   0.1301   4.8261   5.4321   6.6660
     8.4956  11.1176  11.9105  12.0560

          k = 0.2511-0.5021-0.5409 (  2251 PWs)   bands (ev):

   -37.8480 -37.7232 -37.6204 -37.5595  -0.9622   4.0783   5.7159   7.6029
     8.3274  11.0778  12.5711  13.4085

          k = 0.1076-0.5021-0.2318 (  2244 PWs)   bands (ev):

   -37.9183 -37.7309 -37.6387 -37.5228  -1.8866   3.9180   4.4998   7.4941
     9.9515  12.3791  13.6415  14.9247

          k =-0.0359-0.5021 0.0773 (  2240 PWs)   bands (ev):

   -37.9338 -37.7295 -37.6463 -37.5153  -2.0734   3.9085   4.2909   7.0773
    10.8092  12.6008  14.1273  15.1817

          k =-0.1793-0.5021 0.3863 (  2247 PWs)   bands (ev):

   -37.8884 -37.7298 -37.6283 -37.5377  -1.5149   3.9126   5.1222   7.4462
     9.7936  11.4855  12.4100  14.3474

          k = 0.6814-0.5021-1.4681 (  2253 PWs)   bands (ev):

   -37.8013 -37.7103 -37.6186 -37.5875  -0.2368   4.3954   5.9087   6.4886
     8.6320  11.3595  11.7585  12.6843

          k = 0.5380-0.5021-1.1590 (  2271 PWs)   bands (ev):

   -37.7052 -37.6783 -37.6615 -37.6328   1.5592   3.3903   5.3735   6.0025
    10.1173  11.1879  11.7751  12.3873

          k = 0.3945-0.5021-0.8500 (  2257 PWs)   bands (ev):

   -37.7525 -37.6938 -37.6241 -37.6207   0.6409   4.5897   4.8211   6.5422
     8.8869  11.7058  11.9131  12.8437

          k =-0.5021 0.5021-0.0000 (  2254 PWs)   bands (ev):

   -37.9139 -37.7894 -37.5969 -37.5283  -2.1001   3.2158   5.1603   8.3055
     8.7300  12.6290  15.0704  15.2681

          k =-0.6456 0.5021 0.3091 (  2241 PWs)   bands (ev):

   -37.8925 -37.7635 -37.6062 -37.5363  -1.7255   3.5001   5.3624   8.2449
     8.8721  11.9831  12.8580  14.0756

          k =-0.7890 0.5021 0.6182 (  2256 PWs)   bands (ev):

   -37.8286 -37.7093 -37.6251 -37.5714  -0.6200   4.3312   5.8498   6.8862
     8.3369  11.0069  12.4460  13.5849

          k =-0.9325 0.5021 0.9272 (  2261 PWs)   bands (ev):

   -37.7364 -37.6675 -37.6424 -37.6359   1.1095   3.9336   5.5049   6.3929
     8.0647  10.6674  12.0378  13.2653

          k =-0.6456 0.7532 0.8500 (  2249 PWs)   bands (ev):

   -37.7708 -37.6730 -37.6277 -37.6187   0.5631   4.6921   5.2565   6.4498
     9.2887  10.2414  11.3633  12.6198

          k =-0.7890 0.7532 1.1590 (  2262 PWs)   bands (ev):

   -37.6932 -37.6760 -37.6639 -37.6434   1.6711   3.2880   5.6386   6.0290
     8.1395  11.0435  11.7168  13.6323

          k =-0.9325 0.7532 1.4681 (  2243 PWs)   bands (ev):

   -37.7637 -37.7074 -37.6672 -37.5778  -0.0669   4.7335   4.9907   5.9612
     7.1353  12.8443  13.4804  15.5870

          k =-0.0717 0.7532-0.3863 (  2251 PWs)   bands (ev):

   -37.8288 -37.7500 -37.6879 -37.5178  -1.3967   3.9442   4.2340   6.4817
     9.4883  13.9493  14.8521  16.4036

          k =-0.2152 0.7532-0.0773 (  2246 PWs)   bands (ev):

   -37.8703 -37.7843 -37.6734 -37.4976  -2.0007   3.4215   4.1924   6.4255
    12.0311  14.0456  14.9078  15.8513

          k =-0.3587 0.7532 0.2318 (  2249 PWs)   bands (ev):

   -37.8815 -37.7729 -37.6427 -37.5140  -1.8445   3.4637   4.7138   6.9299
    10.9296  12.5506  13.4992  15.7755

          k =-0.6456 0.0000-0.7727 (  2254 PWs)   bands (ev):

   -37.7636 -37.6879 -37.6526 -37.5988   0.2962   4.9685   5.2398   5.4776
     7.7451  11.4634  12.8940  14.9686

          k =-0.7890 0.0000-0.4636 (  2249 PWs)   bands (ev):

   -37.8045 -37.7406 -37.6950 -37.5277  -1.1125   4.1847   4.2389   6.4448
     8.5410  14.4412  15.1176  16.1659

          k =-0.9325 0.0000-0.1545 (  2266 PWs)   bands (ev):

   -37.7995 -37.7794 -37.7541 -37.4889  -1.8629   3.6755   3.6837   5.7258
    12.5210  15.8699  16.2153  16.9612

          k = 0.2511-0.1435-0.8500 (  2251 PWs)   bands (ev):

   -37.7845 -37.6569 -37.6287 -37.6203   0.4871   4.8152   5.8008   6.4579
     8.8088  10.2708  10.9474  12.0046

          k = 0.2511-0.2869-1.1590 (  2261 PWs)   bands (ev):

   -37.6961 -37.6763 -37.6633 -37.6406   1.6480   3.3024   5.5854   6.0431
     8.3824  11.0546  11.6809  13.8366

          k = 0.2511-0.4304-1.4681 (  2250 PWs)   bands (ev):

   -37.7944 -37.7093 -37.6300 -37.5835  -0.2007   4.4646   5.7173   6.2687
     8.2642  11.7305  11.9987  13.4220

          k = 0.2511 0.4304 0.3863 (  2242 PWs)   bands (ev):

   -37.8975 -37.7291 -37.6109 -37.5462  -1.5397   3.8650   5.5112   7.6086
     9.8612  10.9222  12.1372  13.8078

          k = 0.2511 0.2869 0.0773 (  2256 PWs)   bands (ev):

   -37.9646 -37.7181 -37.5986 -37.5457  -2.1271   3.8394   5.2285   7.4639
     9.2470  12.5171  13.1153  15.4389

          k = 0.2511 0.1435-0.2318 (  2243 PWs)   bands (ev):

   -37.9648 -37.6847 -37.6037 -37.5575  -1.9675   4.3880   5.2201   7.7119
     8.6744  11.8874  13.5957  14.1775

          k =-0.5021-0.1435 0.7727 (  2252 PWs)   bands (ev):

   -37.7844 -37.6839 -37.6334 -37.6011   0.1850   4.8365   5.4260   6.1571
     8.2643  10.8204  12.4993  13.3770

          k =-0.5021-0.2869 0.4636 (  2250 PWs)   bands (ev):

   -37.8657 -37.7372 -37.6155 -37.5500  -1.2613   3.8529   5.5862   8.1810
     8.3533  11.1734  12.9025  13.2255

          k =-0.5021-0.4304 0.1545 (  2253 PWs)   bands (ev):

   -37.9087 -37.7825 -37.5997 -37.5300  -2.0062   3.2868   5.2129   8.2685
     8.8245  12.6783  13.5604  15.3513

          k =-0.2511 0.1076-0.3091 (  2242 PWs)   bands (ev):

   -37.9537 -37.6765 -37.6068 -37.5613  -1.8135   4.5689   5.3653   7.4576
     9.0844  11.4438  12.5683  14.3939

          k =-0.2511-0.0359-0.6182 (  2255 PWs)   bands (ev):

   -37.8713 -37.6576 -37.6177 -37.5879  -0.7524   5.4120   5.8256   7.0727
     9.1571   9.6508  11.3185  12.6998

          k =-0.2511-0.1793-0.9272 (  2247 PWs)   bands (ev):

   -37.7543 -37.6584 -37.6368 -37.6313   0.9653   4.1569   5.7868   6.5586
     8.4105  10.6046  11.3951  11.8955

          k =-0.2511 0.6814 0.9272 (  2259 PWs)   bands (ev):

   -37.7179 -37.6825 -37.6442 -37.6374   1.2141   3.8328   5.2150   6.2061
     8.1348  11.3161  12.2396  14.0409

          k =-0.2511 0.5380 0.6182 (  2254 PWs)   bands (ev):

   -37.8213 -37.7175 -37.6251 -37.5703  -0.6037   4.2282   5.8858   6.8483
     8.2177  11.2287  12.6050  13.5379

          k =-0.2511 0.3945 0.3091 (  2243 PWs)   bands (ev):

   -37.9197 -37.7292 -37.6065 -37.5431  -1.7575   3.8229   5.3076   8.2583
     8.8685  11.5343  13.2362  13.5202

          k =-0.7532 0.1076 0.7727 (  2249 PWs)   bands (ev):

   -37.7461 -37.6978 -37.6597 -37.5983   0.3624   4.8880   5.1274   5.4011
     7.3712  12.2718  12.9366  15.4813

          k =-0.7532-0.0359 0.4636 (  2247 PWs)   bands (ev):

   -37.8139 -37.7385 -37.6860 -37.5292  -1.1288   4.1585   4.3248   6.5896
     8.5532  14.0085  14.6875  16.3074

          k =-0.7532-0.1793 0.1545 (  2250 PWs)   bands (ev):

   -37.8624 -37.7793 -37.6798 -37.4989  -1.9211   3.5000   4.1523   6.3846
    11.9029  13.5697  15.2698  15.9260

          k =-0.7532 0.6814 2.0090 (  2244 PWs)   bands (ev):

   -37.8823 -37.7802 -37.6504 -37.5069  -1.9537   3.3990   4.5295   6.7554
    11.3470  13.2227  13.8580  15.8334

          k =-0.7532 0.5380 1.6999 (  2251 PWs)   bands (ev):

   -37.8611 -37.7371 -37.6241 -37.5461  -1.2474   3.8807   5.4309   7.5449
     8.8989  11.7070  12.4855  13.5793

          k =-0.7532 0.3945 1.3909 (  2248 PWs)   bands (ev):

   -37.7933 -37.6832 -37.6217 -37.6044   0.1299   4.9290   5.3318   6.4924
     9.0921  10.5285  11.4843  12.4467

          k =-0.5021 0.2511 0.5409 (  2251 PWs)   bands (ev):

   -37.8483 -37.7233 -37.6204 -37.5592  -0.9623   4.0941   5.6819   7.5127
     8.4463  11.5482  12.2541  12.8653

          k =-0.5021 0.1076 0.2318 (  2244 PWs)   bands (ev):

   -37.9184 -37.7311 -37.6385 -37.5226  -1.8866   3.8493   4.6451   7.1720
    11.0744  11.6029  12.9536  15.3670

          k =-0.5021-0.0359-0.0773 (  2240 PWs)   bands (ev):

   -37.9336 -37.7295 -37.6464 -37.5155  -2.0734   4.0042   4.1638   7.1907
    10.4600  12.8673  14.4226  15.2327

          k =-0.5021-0.1793-0.3863 (  2247 PWs)   bands (ev):

   -37.8890 -37.7295 -37.6281 -37.5375  -1.5149   3.9330   5.0302   7.9255
     9.0048  11.5384  13.0988  14.1827

          k =-0.5021 0.6814 1.4681 (  2253 PWs)   bands (ev):

   -37.8012 -37.7106 -37.6182 -37.5877  -0.2367   4.3630   6.0646   6.4251
     8.4612  11.1461  12.2586  12.8448

          k =-0.5021 0.5380 1.1590 (  2271 PWs)   bands (ev):

   -37.7051 -37.6784 -37.6614 -37.6329   1.5592   3.3902   5.3693   6.0099
    10.0562  11.4033  11.6220  12.4006

          k =-0.5021 0.3945 0.8500 (  2257 PWs)   bands (ev):

   -37.7526 -37.6935 -37.6256 -37.6195   0.6408   4.6038   4.8241   6.4575
     9.1540  11.2646  11.7518  13.0494

          k = 0.5021-0.6456-0.3091 (  2241 PWs)   bands (ev):

   -37.8924 -37.7636 -37.6061 -37.5363  -1.7256   3.4933   5.4238   7.7492
     9.5955  11.7888  12.4452  14.4667

          k = 0.5021-0.7890-0.6182 (  2256 PWs)   bands (ev):

   -37.8289 -37.7091 -37.6254 -37.5710  -0.6202   4.3772   5.6839   7.0076
     8.3571  11.3981  12.3905  12.6140

          k = 0.5021-0.9325-0.9272 (  2261 PWs)   bands (ev):

   -37.7367 -37.6652 -37.6473 -37.6330   1.1091   3.9365   5.7515   5.9502
     8.5317  10.3282  11.7539  13.6222

          k = 0.7532-0.6456-0.8500 (  2249 PWs)   bands (ev):

   -37.7705 -37.6737 -37.6245 -37.6215   0.5634   4.6743   5.2162   6.6951
     8.5406  11.2115  11.6646  11.9193

          k = 0.7532-0.7890-1.1590 (  2262 PWs)   bands (ev):

   -37.6926 -37.6779 -37.6625 -37.6436   1.6713   3.2878   5.5867   6.1129
     8.0699  11.1612  11.6926  13.5104

          k = 0.7532-0.9325-1.4681 (  2243 PWs)   bands (ev):

   -37.7635 -37.7080 -37.6669 -37.5778  -0.0668   4.6660   5.0844   5.9515
     7.1109  12.5843  14.1525  15.4095

          k = 0.7532-0.0717 0.3863 (  2251 PWs)   bands (ev):

   -37.8286 -37.7501 -37.6879 -37.5177  -1.3968   3.9275   4.2595   6.4574
     9.5214  14.0382  14.8092  16.0078

          k = 0.7532-0.2152 0.0773 (  2246 PWs)   bands (ev):

   -37.8704 -37.7843 -37.6734 -37.4976  -2.0007   3.4129   4.2121   6.3999
    12.2028  13.9569  14.6547  15.6084

          k = 0.7532-0.3587-0.2318 (  2249 PWs)   bands (ev):

   -37.8815 -37.7728 -37.6427 -37.5141  -1.8444   3.4808   4.6495   7.0811
    10.4446  12.8436  14.1392  15.0314

     the Fermi energy is     7.7964 ev

!    total energy              =     -65.88545449 Ry
     estimated scf accuracy    <          1.1E-11 Ry
     smearing contrib. (-TS)   =       0.00041838 Ry
     internal energy E=F+TS    =     -65.88587287 Ry

     The total energy is F=E-TS. E is the sum of the following terms:
     one-electron contribution =     -21.00786650 Ry
     hartree contribution      =      11.35650295 Ry
     xc contribution           =     -17.34912395 Ry
[...]
     9.0657  12.4733  13.4021  15.4550

          k = 0.2501-0.2501-0.0000 (  2227 PWs)   bands (ev):

   -38.0376 -37.7951 -37.6658 -37.6274  -2.2160   3.8408   5.0736   7.4538
     8.9334  12.5622  13.1619  15.6150

          k = 0.1072-0.2501 0.3092 (  2214 PWs)   bands (ev):

   -38.0200 -37.7611 -37.6757 -37.6384  -1.8708   4.5175   5.1564   7.7343
     8.6288  11.2973  13.0825  13.9207

          k =-0.0357-0.2501 0.6184 (  2233 PWs)   bands (ev):

   -37.9397 -37.7402 -37.6886 -37.6634  -0.8081   5.4110   5.6178   7.0969
     8.8918   9.8356  11.1952  12.4451

          k =-0.1787-0.2501 0.9277 (  2225 PWs)   bands (ev):

   -37.8252 -37.7348 -37.7132 -37.7047   0.9121   4.0962   5.8141   6.3204
     8.6083  10.3814  10.9328  12.2177

          k = 0.6790-0.2501-0.9277 (  2237 PWs)   bands (ev):

   -37.7893 -37.7591 -37.7204 -37.7104   1.1523   3.7783   5.2305   6.0009
     8.2798  11.1161  11.8533  14.2131

          k = 0.5360-0.2501-0.6184 (  2224 PWs)   bands (ev):

   -37.8896 -37.7980 -37.6971 -37.6459  -0.6676   4.2019   5.6760   6.8882
     8.1996  11.5525  12.2552  12.7837

          k = 0.3931-0.2501-0.3092 (  2219 PWs)   bands (ev):

   -37.9860 -37.8123 -37.6756 -37.6219  -1.8197   3.7319   5.3174   7.4939
    10.1064  10.9485  12.2241  14.1988

          k = 0.1072-0.0000 0.8504 (  2225 PWs)   bands (ev):

   -37.8648 -37.7220 -37.7013 -37.6992   0.3701   4.9199   6.3285   6.3996
     8.2392  10.0514  10.9206  11.1942

          k =-0.0357-0.0000 1.1596 (  2234 PWs)   bands (ev):

   -37.7490 -37.7438 -37.7422 -37.7380   1.7015   3.2028   5.8035   5.8118
     7.3748  11.6831  11.9400  12.0560

          k =-0.1787-0.0000 1.4688 (  2229 PWs)   bands (ev):

   -37.8206 -37.7913 -37.7508 -37.6515  -0.0999   4.7439   4.8054   5.8554
     6.7608  13.2019  14.0469  15.5264

          k = 0.6790 0.0000-0.3865 (  2221 PWs)   bands (ev):

   -37.9167 -37.8230 -37.7433 -37.5979  -1.4998   4.0367   4.1671   6.6509
     9.4813  13.2034  14.0145  16.0979

          k = 0.5360 0.0000-0.0773 (  2217 PWs)   bands (ev):

   -37.9919 -37.8210 -37.7207 -37.5887  -2.1280   3.8430   4.0579   6.9064
    10.9053  12.8135  14.2413  15.1793

          k = 0.3931-0.0000 0.2319 (  2213 PWs)   bands (ev):

   -38.0118 -37.7867 -37.6957 -37.6130  -1.9914   4.2635   4.4879   7.5377
     9.5744  11.7543  13.0480  15.2292

          k = 0.2501-0.7504-1.0823 (  2232 PWs)   bands (ev):

   -37.7698 -37.7478 -37.7365 -37.7167   1.7144   3.1012   5.8235   5.9816
     8.3863  10.8093  11.3008  13.1836

          k = 0.1072-0.7504-0.7731 (  2223 PWs)   bands (ev):

   -37.8164 -37.7787 -37.7310 -37.6726   0.2914   4.7548   5.1540   5.4033
     7.2505  11.9631  13.5830  14.7685

          k =-0.0357-0.7504-0.4638 (  2221 PWs)   bands (ev):

   -37.8840 -37.8218 -37.7531 -37.6055  -1.2060   4.1042   4.2920   6.4942
     8.5226  13.9156  14.7114  15.6181

          k =-0.1787-0.7504-0.1546 (  2224 PWs)   bands (ev):

   -37.9296 -37.8642 -37.7472 -37.5765  -1.9983   3.4345   4.1339   6.2520
    12.0991  13.3363  14.6351  15.7728

          k = 0.6790-0.7504-2.0099 (  2217 PWs)   bands (ev):

   -37.9481 -37.8650 -37.7187 -37.5848  -2.0263   3.3575   4.4129   6.7635
    10.9188  13.4024  14.1782  15.5085

          k = 0.5360-0.7504-1.7007 (  2228 PWs)   bands (ev):

   -37.9286 -37.8197 -37.6944 -37.6231  -1.3128   3.8191   5.3087   7.9050
     8.3603  11.3504  12.9690  13.5417

          k = 0.3931-0.7504-1.3915 (  2232 PWs)   bands (ev):

   -37.8631 -37.7630 -37.6941 -37.6805   0.0721   4.7674   5.3762   6.5878
     8.4494  11.0303  11.8360  11.9614

          k = 0.2501-0.5003-0.5411 (  2227 PWs)   bands (ev):

   -37.9162 -37.8045 -37.6914 -37.6362  -1.0258   4.0166   5.6286   7.5504
     8.2816  10.9882  12.5002  13.3163

          k = 0.1072-0.5003-0.2319 (  2214 PWs)   bands (ev):

   -37.9853 -37.8151 -37.7065 -37.6003  -1.9530   3.8467   4.4233   7.4197
     9.8784  12.2941  13.5665  14.8225

          k =-0.0357-0.5003 0.0773 (  2210 PWs)   bands (ev):

   -38.0008 -37.8150 -37.7129 -37.5928  -2.1403   3.8271   4.2256   6.9994
    10.7146  12.5070  14.0547  15.1188

          k =-0.1787-0.5003 0.3865 (  2222 PWs)   bands (ev):

   -37.9559 -37.8126 -37.6978 -37.6151  -1.5801   3.8447   5.0422   7.3826
     9.7411  11.3941  12.3204  14.2781

          k = 0.6790-0.5003-1.4688 (  2228 PWs)   bands (ev):

   -37.8698 -37.7906 -37.6913 -37.6630  -0.2983   4.3364   5.8493   6.4212
     8.5753  11.2710  11.6787  12.6250

          k = 0.5360-0.5003-1.1596 (  2244 PWs)   bands (ev):

   -37.7763 -37.7550 -37.7343 -37.7091   1.5049   3.3297   5.3248   5.9566
    10.0229  11.0958  11.6763  12.2909

          k = 0.3931-0.5003-0.8504 (  2240 PWs)   bands (ev):

   -37.8222 -37.7727 -37.6990 -37.6952   0.5823   4.5337   4.7676   6.4867
     8.8139  11.6085  11.8276  12.7564

          k =-0.5003 0.5003 0.0000 (  2214 PWs)   bands (ev):

   -37.9775 -37.8742 -37.6642 -37.6082  -2.1656   3.1511   5.0450   8.2671
     8.6576  12.5166  14.9198  15.2195

          k =-0.6432 0.5003 0.3092 (  2224 PWs)   bands (ev):

   -37.9582 -37.8474 -37.6758 -37.6152  -1.7905   3.4359   5.2580   8.1916
     8.8155  11.9110  12.7518  14.0198

          k =-0.7862 0.5003 0.6184 (  2224 PWs)   bands (ev):

   -37.8970 -37.7899 -37.6966 -37.6471  -0.6829   4.2711   5.7682   6.8355
     8.2903  10.9206  12.3664  13.4840

          k =-0.9291 0.5003 0.9277 (  2233 PWs)   bands (ev):

   -37.8078 -37.7448 -37.7162 -37.7101   1.0518   3.8761   5.4548   6.3304
     8.0133  10.5799  11.9597  13.2166

          k =-0.6432 0.7504 0.8504 (  2225 PWs)   bands (ev):

   -37.8410 -37.7510 -37.7018 -37.6935   0.5069   4.6344   5.1974   6.3924
     9.2120  10.1686  11.2817  12.5449

          k =-0.7862 0.7504 1.1596 (  2238 PWs)   bands (ev):

   -37.7652 -37.7508 -37.7386 -37.7189   1.6123   3.2282   5.5915   5.9808
     8.0811  10.9590  11.6338  13.5886

          k =-0.9291 0.7504 1.4688 (  2222 PWs)   bands (ev):

   -37.8346 -37.7888 -37.7376 -37.6525  -0.1402   4.6856   4.9467   5.9145
     7.0670  12.7677  13.3957  15.4589

          k =-0.0715 0.7504-0.3865 (  2222 PWs)   bands (ev):

   -37.8980 -37.8337 -37.7546 -37.5946  -1.4744   3.8977   4.1891   6.3931
     9.4466  13.8107  14.7673  16.2904

          k =-0.2144 0.7504-0.0773 (  2221 PWs)   bands (ev):

   -37.9370 -37.8696 -37.7409 -37.5754  -2.0770   3.3713   4.1349   6.3344
    11.9393  14.0003  14.7962  15.7103

          k =-0.3573 0.7504 0.2319 (  2215 PWs)   bands (ev):

   -37.9474 -37.8567 -37.7113 -37.5919  -1.9154   3.4054   4.6400   6.8548
    10.8654  12.4722  13.3938  15.6686

          k =-0.6432-0.0000-0.7731 (  2226 PWs)   bands (ev):

   -37.8341 -37.7682 -37.7239 -37.6732   0.2290   4.9174   5.1818   5.4322
     7.6868  11.3861  12.8148  14.8394

          k =-0.7862 0.0000-0.4638 (  2218 PWs)   bands (ev):

   -37.8750 -37.8241 -37.7608 -37.6041  -1.1914   4.1352   4.2058   6.3565
     8.4987  14.3042  15.0249  16.0939

          k =-0.9291-0.0000-0.1546 (  2244 PWs)   bands (ev):

   -37.8756 -37.8647 -37.8130 -37.5664  -1.9484   3.6453   3.6559   5.6074
    12.4883  15.7157  16.0876  16.8104

          k = 0.2501-0.1429-0.8504 (  2227 PWs)   bands (ev):

   -37.8545 -37.7354 -37.7025 -37.6951   0.4332   4.7559   5.7347   6.3935
     8.7514  10.1959  10.8701  11.9114

          k = 0.2501-0.2859-1.1596 (  2235 PWs)   bands (ev):

   -37.7678 -37.7517 -37.7375 -37.7162   1.5900   3.2428   5.5377   5.9949
     8.3205  10.9645  11.6040  13.7895

          k = 0.2501-0.4288-1.4688 (  2226 PWs)   bands (ev):

   -37.8635 -37.7897 -37.7024 -37.6588  -0.2645   4.4072   5.6563   6.2141
     8.2040  11.6354  11.9270  13.3534

          k = 0.2501 0.4288 0.3865 (  2223 PWs)   bands (ev):

   -37.9649 -37.8119 -37.6806 -37.6242  -1.6024   3.7953   5.4117   7.5587
     9.8056  10.8422  12.0459  13.7400

          k = 0.2501 0.2859 0.0773 (  2220 PWs)   bands (ev):

   -38.0305 -37.8016 -37.6661 -37.6248  -2.1873   3.7592   5.1065   7.4225
     9.1695  12.4258  13.0218  15.3811

          k = 0.2501 0.1429-0.2319 (  2222 PWs)   bands (ev):

   -38.0315 -37.7694 -37.6722 -37.6354  -2.0254   4.2987   5.1060   7.6600
     8.6083  11.8127  13.5126  14.0962

          k =-0.5003-0.1429 0.7731 (  2236 PWs)   bands (ev):

   -37.8544 -37.7638 -37.7065 -37.6762   0.1240   4.7810   5.3712   6.0876
     8.2175  10.7412  12.4150  13.2533

          k =-0.5003-0.2859 0.4638 (  2233 PWs)   bands (ev):

   -37.9330 -37.8199 -37.6862 -37.6274  -1.3255   3.7900   5.4929   8.1142
     8.3192  11.0863  12.8289  13.1420

          k =-0.5003-0.4288 0.1546 (  2219 PWs)   bands (ev):

   -37.9731 -37.8669 -37.6675 -37.6097  -2.0716   3.2221   5.1005   8.2230
     8.7585  12.5697  13.4822  15.2784

          k =-0.2501 0.1072-0.3092 (  2214 PWs)   bands (ev):

   -38.0203 -37.7609 -37.6755 -37.6385  -1.8709   4.4772   5.2550   7.4083
     9.0198  11.3691  12.4915  14.3224

          k =-0.2501-0.0357-0.6184 (  2233 PWs)   bands (ev):

   -37.9396 -37.7402 -37.6887 -37.6634  -0.8080   5.3314   5.7359   7.0239
     9.0963   9.5797  11.2409  12.6031

          k =-0.2501-0.1787-0.9277 (  2225 PWs)   bands (ev):

   -37.8251 -37.7353 -37.7110 -37.7065   0.9122   4.0946   5.7299   6.4982
     8.3542  10.5181  11.3097  11.8261

          k =-0.2501 0.6790 0.9277 (  2237 PWs)   bands (ev):

   -37.7887 -37.7605 -37.7181 -37.7120   1.1526   3.7769   5.1672   6.1547
     8.0748  11.2447  12.1340  13.9950

          k =-0.2501 0.5360 0.6184 (  2224 PWs)   bands (ev):

   -37.8895 -37.7981 -37.6967 -37.6462  -0.6675   4.1699   5.8055   6.7962
     8.1722  11.1414  12.5238  13.4483

          k =-0.2501 0.3931 0.3092 (  2219 PWs)   bands (ev):

   -37.9860 -37.8122 -37.6758 -37.6218  -1.8197   3.7518   5.2018   8.2186
     8.7901  11.4605  13.1373  13.4514

          k =-0.7504 0.1072 0.7731 (  2223 PWs)   bands (ev):

   -37.8168 -37.7782 -37.7314 -37.6724   0.2912   4.8420   5.0730   5.3596
     7.3084  12.2000  12.8495  15.4409

          k =-0.7504-0.0357 0.4638 (  2221 PWs)   bands (ev):

   -37.8841 -37.8218 -37.7529 -37.6056  -1.2060   4.1102   4.2832   6.5051
     8.5104  13.8769  14.6008  16.2345

          k =-0.7504-0.1787 0.1546 (  2224 PWs)   bands (ev):

   -37.9298 -37.8644 -37.7469 -37.5764  -1.9983   3.4514   4.0986   6.2921
    11.8311  13.4930  15.1608  15.8008

          k =-0.7504 0.6790 2.0099 (  2217 PWs)   bands (ev):

   -37.9484 -37.8650 -37.7187 -37.5846  -2.0263   3.3426   4.4597   6.6752
    11.2693  13.1544  13.7500  15.7099

          k =-0.7504 0.5360 1.7007 (  2228 PWs)   bands (ev):

   -37.9288 -37.8198 -37.6942 -37.6230  -1.3129   3.8175   5.3495   7.4851
     8.8491  11.6149  12.4000  13.5176

          k =-0.7504 0.3931 1.3915 (  2232 PWs)   bands (ev):

   -37.8632 -37.7625 -37.6953 -37.6796   0.0718   4.8673   5.2763   6.4276
     9.0225  10.4562  11.4045  12.3697

          k =-0.5003 0.2501 0.5411 (  2227 PWs)   bands (ev):

   -37.9158 -37.8050 -37.6917 -37.6358  -1.0259   4.0305   5.6017   7.4571
     8.3930  11.4572  12.1750  12.8014

          k =-0.5003 0.1072 0.2319 (  2214 PWs)   bands (ev):

   -37.9853 -37.8152 -37.7062 -37.6004  -1.9529   3.7762   4.5707   7.0997
    10.9884  11.5310  12.8657  15.2769

          k =-0.5003-0.0357-0.0773 (  2210 PWs)   bands (ev):

   -38.0006 -37.8148 -37.7129 -37.5931  -2.1403   3.9146   4.1067   7.1119
    10.3709  12.7686  14.3639  15.1562

          k =-0.5003-0.1787-0.3865 (  2222 PWs)   bands (ev):

   -37.9560 -37.8124 -37.6978 -37.6150  -1.5801   3.8675   4.9467   7.8604
     8.9516  11.4481  13.0278  14.0808

          k =-0.5003 0.6790 1.4688 (  2228 PWs)   bands (ev):

   -37.8699 -37.7911 -37.6906 -37.6631  -0.2981   4.3052   6.0098   6.3447
     8.4187  11.0580  12.1719  12.7713

          k =-0.5003 0.5360 1.1596 (  2244 PWs)   bands (ev):

   -37.7762 -37.7551 -37.7341 -37.7091   1.5049   3.3297   5.3207   5.9639
     9.9633  11.3079  11.5258  12.3008

          k =-0.5003 0.3931 0.8504 (  2240 PWs)   bands (ev):

   -37.8224 -37.7723 -37.7002 -37.6943   0.5821   4.5476   4.7700   6.4043
     9.0752  11.1764  11.6646  13.0102

          k = 0.5003-0.6432-0.3092 (  2224 PWs)   bands (ev):

   -37.9583 -37.8473 -37.6756 -37.6154  -1.7906   3.4286   5.3183   7.6989
     9.5386  11.7188  12.3411  14.4090

          k = 0.5003-0.7862-0.6184 (  2224 PWs)   bands (ev):

   -37.8971 -37.7897 -37.6969 -37.6468  -0.6830   4.3143   5.6140   6.9542
     8.2964  11.3105  12.3201  12.5372

          k = 0.5003-0.9291-0.9277 (  2233 PWs)   bands (ev):

   -37.8080 -37.7428 -37.7204 -37.7075   1.0513   3.8789   5.6961   5.8981
     8.4749  10.2375  11.6873  13.5746

          k = 0.7504-0.6432-0.8504 (  2225 PWs)   bands (ev):

   -37.8408 -37.7515 -37.6989 -37.6962   0.5071   4.6167   5.1593   6.6291
     8.4818  11.1194  11.5656  11.8619

          k = 0.7504-0.7862-1.1596 (  2238 PWs)   bands (ev):

   -37.7644 -37.7528 -37.7369 -37.7193   1.6124   3.2280   5.5404   6.0634
     8.0118  11.0865  11.5935  13.4765

          k = 0.7504-0.9291-1.4688 (  2222 PWs)   bands (ev):

   -37.8343 -37.7892 -37.7375 -37.6525  -0.1402   4.6204   5.0381   5.9034
     7.0442  12.5110  14.0594  15.2517

          k = 0.7504-0.0715 0.3865 (  2222 PWs)   bands (ev):

   -37.8981 -37.8336 -37.7545 -37.5948  -1.4745   3.8792   4.2172   6.3683
     9.4795  13.8933  14.7222  15.9255

          k = 0.7504-0.2144 0.0773 (  2221 PWs)   bands (ev):

   -37.9369 -37.8696 -37.7410 -37.5754  -2.0770   3.3623   4.1555   6.3085
    12.1102  13.9039  14.5456  15.4857

          k = 0.7504-0.3573-0.2319 (  2215 PWs)   bands (ev):

   -37.9470 -37.8569 -37.7114 -37.5920  -1.9154   3.4236   4.5742   7.0056
    10.3789  12.7677  14.0326  14.9442

     the Fermi energy is     7.7456 ev

!    total energy              =     -65.89224969 Ry
     estimated scf accuracy    <          2.6E-11 Ry
     smearing contrib. (-TS)   =       0.00038673 Ry
     internal energy E=F+TS    =     -65.89263642 Ry

     The total energy is F=E-TS. E is the sum of the following terms:
     one-electron contribution =     -21.16435607 Ry
     hartree contribution      =      11.38809276 Ry
     xc contribution           =     -17.34044966 Ry
     ewald contribution        =     -38.77592345 Ry

     convergence has been achieved in   7 iterations

     Forces acting on atoms (cartesian axes, Ry/au):

     atom    1 type  1   force =    -0.00000000   -0.00000000    0.00000000
     atom    2 type  2   force =     0.00218517   -0.00284308   -0.00000000
     atom    3 type  2   force =    -0.00218517    0.00284308    0.00000000
     atom    4 type  2   force =     0.00284308    0.00218517    0.00000000
     atom    5 type  2   force =    -0.00284308   -0.00218517    0.00000000
     The non-local contrib.  to forces
     atom    1 type  1   force =     0.00000000    0.00000000    0.00000000
     atom    2 type  2   force =     0.01218251    0.00604411    0.00000000
     atom    3 type  2   force =    -0.01218251   -0.00604411   -0.00000000
     atom    4 type  2   force =    -0.00604411    0.01218251    0.00000000
     atom    5 type  2   force =     0.00604411   -0.01218251   -0.00000000
     The ionic contribution  to forces
     atom    1 type  1   force =    -0.00000000   -0.00000000    0.00000000
     atom    2 type  2   force =    -0.08504575   -0.20942072    0.00000000
     atom    3 type  2   force =     0.08504575    0.20942072   -0.00000000
     atom    4 type  2   force =     0.20942072   -0.08504575    0.00000000
     atom    5 type  2   force =    -0.20942072    0.08504575    0.00000000
     The local contribution  to forces
     atom    1 type  1   force =    -0.00000000    0.00000000   -0.00000000
     atom    2 type  2   force =     0.07505075    0.20054025    0.00000000
     atom    3 type  2   force =    -0.07505075   -0.20054025   -0.00000000
     atom    4 type  2   force =    -0.20054025    0.07505075    0.00000000
     atom    5 type  2   force =     0.20054025   -0.07505075    0.00000000
     The core correction contribution to forces
     atom    1 type  1   force =    -0.00000000    0.00000000   -0.00000000
     atom    2 type  2   force =     0.00000000    0.00000000    0.00000000
     atom    3 type  2   force =     0.00000000    0.00000000    0.00000000
     atom    4 type  2   force =     0.00000000    0.00000000    0.00000000
     atom    5 type  2   force =     0.00000000    0.00000000    0.00000000
     The Hubbard contrib.    to forces
     atom    1 type  1   force =     0.00000000    0.00000000    0.00000000
     atom    2 type  2   force =     0.00000000    0.00000000    0.00000000
     atom    3 type  2   force =     0.00000000    0.00000000    0.00000000
     atom    4 type  2   force =     0.00000000    0.00000000    0.00000000
     atom    5 type  2   force =     0.00000000    0.00000000    0.00000000
     The SCF correction term to forces
     atom    1 type  1   force =    -0.00000000   -0.00000000    0.00000000
     atom    2 type  2   force =    -0.00000234   -0.00000672   -0.00000000
     atom    3 type  2   force =     0.00000234    0.00000672    0.00000000
     atom    4 type  2   force =     0.00000672   -0.00000234    0.00000000
     atom    5 type  2   force =    -0.00000672    0.00000234    0.00000000

     Total force =     0.007172     Total SCF correction =     0.000014


     Computing stress (Cartesian axis) and pressure

          total   stress  (Ry/bohr**3)                   (kbar)     P=      498.17
   0.00339672   0.00000000  -0.00000000          499.67        0.00       -0.00
  -0.00000000   0.00339672   0.00000000           -0.00      499.67        0.00
  -0.00000000   0.00000000   0.00336600           -0.00        0.00      495.16


     Writing all to output data dir ./output/SiLi.save/

     init_run     :      1.24s CPU      1.89s WALL (       2 calls)
     electrons    :     37.20s CPU     41.26s WALL (       6 calls)
     update_pot   :      0.96s CPU      1.05s WALL (       4 calls)
     forces       :      1.06s CPU      1.12s WALL (       6 calls)
     stress       :      4.73s CPU      4.96s WALL (       6 calls)

     Called by init_run:
     wfcinit      :      0.56s CPU      0.58s WALL (       2 calls)
     potinit      :      0.31s CPU      0.80s WALL (       2 calls)
     hinit0       :      0.35s CPU      0.48s WALL (       2 calls)

     Called by electrons:
     c_bands      :     31.70s CPU     34.81s WALL (      43 calls)
     sum_band     :      4.76s CPU      5.07s WALL (      43 calls)
     v_of_rho     :      0.77s CPU      1.83s WALL (      47 calls)
     mix_rho      :      0.14s CPU      0.22s WALL (      43 calls)

     Called by c_bands:
     init_us_2    :      0.79s CPU      0.89s WALL (    9200 calls)
     init_us_2:cp :      0.78s CPU      0.87s WALL (    9200 calls)
     cegterg      :     30.01s CPU     31.40s WALL (    3956 calls)

     Called by *egterg:
     cdiaghg      :      2.44s CPU      2.55s WALL (   14514 calls)
     h_psi        :     25.50s CPU     26.70s WALL (   15250 calls)
     g_psi        :      0.09s CPU      0.10s WALL (   11110 calls)

     Called by h_psi:
     h_psi:calbec :      1.40s CPU      1.46s WALL (   15250 calls)
     vloc_psi     :     23.04s CPU     24.13s WALL (   15250 calls)
     add_vuspsi   :      0.96s CPU      1.00s WALL (   15250 calls)

     General routines
     calbec       :      1.73s CPU      1.81s WALL (   18010 calls)
     fft          :      1.28s CPU      2.68s WALL (     620 calls)
     ffts         :      0.06s CPU      0.15s WALL (      43 calls)
     fftw         :     24.22s CPU     25.33s WALL (  311070 calls)

     Parallel routines

     PWSCF        :     45.58s CPU     51.15s WALL


   This run was terminated on:  13:22:50  22Jan2025            

=------------------------------------------------------------------------------=
   JOB DONE.
=------------------------------------------------------------------------------=
