
     Program PWSCF v.7.2 starts on 22Jan2025 at  1:29:22 

     This program is part of the open-source Quantum ESPRESSO suite
     for quantum simulation of materials; please cite
         "P. Giannozzi et al., J. Phys.:Condens. Matter 21 395502 (2009);
         "P. Giannozzi et al., J. Phys.:Condens. Matter 29 465901 (2017);
         "P. Giannozzi et al., J. Chem. Phys. 152 154105 (2020);
          URL http://www.quantum-espresso.org", 
     in publications or presentations arising from this work. More details at
     http://www.quantum-espresso.org/quote

     Parallel version (MPI & OpenMP), running on       8 processor cores
     Number of MPI processes:                 8
     Threads/MPI process:                     1

     MPI processes distributed on     1 nodes
     481829 MiB available memory on the printing compute node when the environment starts

     Waiting for input...
     Reading input from standard input

     Current dimensions of program PWSCF are:
     Max number of different atomic species (ntypx) = 10
     Max number of k-points (npk) =  40000
     Max angular momentum in pseudopotentials (lmaxx) =  4

     R & G space division:  proc/nbgrp/npool/nimage =       8
     Subspace diagonalization in iterative solution of the eigenvalue problem:
     a serial algorithm will be used


     Parallelization info
     --------------------
     sticks:   dense  smooth     PW     G-vecs:    dense   smooth      PW
     Min         250     250     77                 4773     4773     832
     Max         251     251     78                 4775     4775     834
     Sum        2005    2005    623                38189    38189    6667

     Using Slab Decomposition



     bravais-lattice index     =            5
     lattice parameter (alat)  =      12.3788  a.u.
     unit-cell volume          =     282.1616 (a.u.)^3
     number of atoms/cell      =            5
     number of atomic types    =            2
     number of electrons       =        16.00
     number of Kohn-Sham states=           12
     kinetic-energy cutoff     =     100.0000  Ry
     charge density cutoff     =     400.0000  Ry
     scf convergence threshold =      1.0E-08
     mixing beta               =       0.7000
     number of iterations used =            8  plain     mixing
     energy convergence thresh.=      5.0E-05
     force convergence thresh. =      5.0E-04
     press convergence thresh. =      5.0E-01
     Exchange-correlation= PBE
                           (   1   4   3   4   0   0   0)
     nstep                     =           50


     celldm(1)=  12.378811  celldm(2)=   0.000000  celldm(3)=   0.000000
     celldm(4)=   0.911466  celldm(5)=   0.000000  celldm(6)=   0.000000

     crystal axes: (cart. coord. in units of alat)
               a(1) = (   0.210397  -0.121473   0.970040 )  
               a(2) = (   0.000000   0.242946   0.970040 )  
               a(3) = (  -0.210397  -0.121473   0.970040 )  

     reciprocal axes: (cart. coord. in units 2 pi/alat)
               b(1) = (  2.376455 -1.372047  0.343629 )  
               b(2) = (  0.000000  2.744093  0.343629 )  
               b(3) = ( -2.376455 -1.372047  0.343629 )  


     PseudoPot. # 1 for Si read from file:
     ../pseudo/Si_ONCV_PBE_sr.upf
     MD5 check sum: e543d271109d17c80368dfa7c482276d
     Pseudo is Norm-conserving + core correction, Zval =  4.0
     Generated using ONCVPSP code by D. R. Hamann
     Using radial grid of 1510 points,  6 beta functions with: 
                l(1) =   0
                l(2) =   0
                l(3) =   1
                l(4) =   1
                l(5) =   2
                l(6) =   2

     PseudoPot. # 2 for Li read from file:
     ../pseudo/Li_ONCV_PBE_sr.upf
     MD5 check sum: 50ff420e78310ffa21704f3361e624a4
     Pseudo is Norm-conserving, Zval =  3.0
     Generated using ONCVPSP code by D. R. Hamann
     Using radial grid of 1944 points,  4 beta functions with: 
                l(1) =   0
                l(2) =   0
                l(3) =   1
                l(4) =   1

     atomic species   valence    mass     pseudopotential
        Si             4.00    28.08550     Si( 1.00)
        Li             3.00     6.94100     Li( 1.00)

     12 Sym. Ops., with inversion, found



   Cartesian axes

     site n.     atom                  positions (alat units)
         1           Si  tau(   1) = (   0.0000000   0.0000000   0.0000000  )
         2           Li  tau(   2) = (  -0.0000000  -0.0000000   0.3902674  )
         3           Li  tau(   3) = (   0.0000000  -0.0000000   2.5198520  )
         4           Li  tau(   4) = (   0.0000000  -0.0000000   1.2048826  )
         5           Li  tau(   5) = (   0.0000000  -0.0000000   1.7052368  )

     number of k points=    32  Marzari-Vanderbilt smearing, width (Ry)=  0.0200
                       cart. coord. in units 2pi/alat
        k(    1) = (   0.0000000   0.0000000   0.0000000), wk =   0.0092593
        k(    2) = (  -0.3960758  -0.2286744   0.0572714), wk =   0.0555556
        k(    3) = (  -0.7921515  -0.4573489   0.1145428), wk =   0.0555556
        k(    4) = (   1.1882273   0.6860233  -0.1718143), wk =   0.0277778
        k(    5) = (  -0.3960758   0.2286744   0.1145428), wk =   0.0555556
        k(    6) = (  -0.7921515   0.0000000   0.1718143), wk =   0.1111111
        k(    7) = (   1.1882273   1.1433722  -0.1145428), wk =   0.1111111
        k(    8) = (   0.7921515   0.9146978  -0.0572714), wk =   0.1111111
        k(    9) = (   0.3960758   0.6860233   0.0000000), wk =   0.0555556
        k(   10) = (  -0.7921515   0.4573489   0.2290857), wk =   0.0555556
        k(   11) = (   1.1882273   1.6007211  -0.0572714), wk =   0.1111111
        k(   12) = (   0.7921515   1.3720467   0.0000000), wk =   0.0555556
        k(   13) = (   1.1882273  -0.6860233  -0.3436285), wk =   0.0277778
        k(   14) = (  -0.0000000   0.0000000   0.1718143), wk =   0.0185185
        k(   15) = (  -0.3960758  -0.2286744   0.2290857), wk =   0.0555556
        k(   16) = (   1.5843031   0.9146978  -0.0572714), wk =   0.0555556
        k(   17) = (   1.1882273   0.6860233   0.0000000), wk =   0.0555556
        k(   18) = (   0.7921515   0.4573489   0.0572714), wk =   0.0555556
        k(   19) = (  -0.3960758   0.2286744   0.2863571), wk =   0.0555556
        k(   20) = (   1.5843031   1.3720467   0.0000000), wk =   0.1111111
        k(   21) = (   1.1882273   1.1433722   0.0572714), wk =   0.1111111
        k(   22) = (   0.7921515   0.9146978   0.1145428), wk =   0.1111111
        k(   23) = (   1.5843031  -0.9146978  -0.2863571), wk =   0.0555556
        k(   24) = (   1.1882273  -1.1433722  -0.2290857), wk =   0.1111111
        k(   25) = (   0.7921515  -1.3720467  -0.1718143), wk =   0.0555556
        k(   26) = (   1.1882273  -0.6860233  -0.1718143), wk =   0.0555556
        k(   27) = (  -0.0000000   0.0000000   0.3436285), wk =   0.0185185
        k(   28) = (   1.9803788   1.1433722   0.0572714), wk =   0.0555556
        k(   29) = (   1.5843031   0.9146978   0.1145428), wk =   0.0555556
        k(   30) = (   1.9803788  -1.1433722  -0.2290857), wk =   0.0555556
        k(   31) = (   1.5843031  -1.3720467  -0.1718143), wk =   0.0555556
        k(   32) = (   0.0000000   0.0000000  -0.5154428), wk =   0.0092593

     Dense  grid:    38189 G-vectors     FFT dimensions: (  80,  80,  80)

     Estimated max dynamical RAM per process >      23.89 MB

     Estimated total dynamical RAM >     191.11 MB

     Initial potential from superposition of free atoms

     starting charge      15.9811, renormalised to      16.0000
     Starting wfcs are   12 randomized atomic wfcs

     total cpu time spent up to now is        2.3 secs

     Self-consistent Calculation

     iteration #  1     ecut=   100.00 Ry     beta= 0.70
     Davidson diagonalization with overlap
     ethr =  1.00E-02,  avg # of iterations =  6.1

     total cpu time spent up to now is        4.5 secs

     total energy              =     -65.43443714 Ry
     estimated scf accuracy    <       0.39921282 Ry

     iteration #  2     ecut=   100.00 Ry     beta= 0.70
     Davidson diagonalization with overlap
     ethr =  2.50E-03,  avg # of iterations =  3.8

     total cpu time spent up to now is        6.2 secs

     total energy              =     -65.20503955 Ry
     estimated scf accuracy    <       3.48261298 Ry

     iteration #  3     ecut=   100.00 Ry     beta= 0.70
     Davidson diagonalization with overlap
     ethr =  2.50E-03,  avg # of iterations =  2.2

     total cpu time spent up to now is        7.8 secs

     total energy              =     -65.67025002 Ry
     estimated scf accuracy    <       0.01722946 Ry

     iteration #  4     ecut=   100.00 Ry     beta= 0.70
     Davidson diagonalization with overlap
     ethr =  1.08E-04,  avg # of iterations =  3.7

     total cpu time spent up to now is        9.3 secs

     total energy              =     -65.67320189 Ry
     estimated scf accuracy    <       0.00372614 Ry

     iteration #  5     ecut=   100.00 Ry     beta= 0.70
     Davidson diagonalization with overlap
     ethr =  2.33E-05,  avg # of iterations =  2.6

     total cpu time spent up to now is       10.7 secs

     total energy              =     -65.67365800 Ry
     estimated scf accuracy    <       0.00008861 Ry

     iteration #  6     ecut=   100.00 Ry     beta= 0.70
     Davidson diagonalization with overlap
     ethr =  5.54E-07,  avg # of iterations =  4.0

     total cpu time spent up to now is       12.2 secs

     total energy              =     -65.67367778 Ry
     estimated scf accuracy    <       0.00004073 Ry

     iteration #  7     ecut=   100.00 Ry     beta= 0.70
     Davidson diagonalization with overlap
     ethr =  2.55E-07,  avg # of iterations =  1.1

     total cpu time spent up to now is       13.5 secs

     total energy              =     -65.67368149 Ry
     estimated scf accuracy    <       0.00000004 Ry

     iteration #  8     ecut=   100.00 Ry     beta= 0.70
     Davidson diagonalization with overlap
     ethr =  2.77E-10,  avg # of iterations =  3.7

     total cpu time spent up to now is       15.1 secs

     total energy              =     -65.67368156 Ry
     estimated scf accuracy    <       0.00000002 Ry

     iteration #  9     ecut=   100.00 Ry     beta= 0.70
     Davidson diagonalization with overlap
     ethr =  1.04E-10,  avg # of iterations =  1.0

     total cpu time spent up to now is       16.3 secs

     total energy              =     -65.67368155 Ry
     estimated scf accuracy    <       0.00000003 Ry

     iteration # 10     ecut=   100.00 Ry     beta= 0.70
     Davidson diagonalization with overlap
     ethr =  1.04E-10,  avg # of iterations =  1.2

     total cpu time spent up to now is       17.5 secs

     End of self-consistent calculation

          k = 0.0000 0.0000 0.0000 (  4773 PWs)   bands (ev):

   -38.7693 -38.4641 -37.8834 -37.7075  -3.7968   3.4070   4.7911  10.7983
    11.6420  16.8014  16.8014  18.4223

          k =-0.3961-0.2287 0.0573 (  4771 PWs)   bands (ev):

   -38.6969 -38.4219 -37.9071 -37.7583  -3.1544   3.7484   5.0425  10.7245
    10.8677  13.6157  14.4734  16.3343

          k =-0.7922-0.4573 0.1145 (  4760 PWs)   bands (ev):

   -38.5153 -38.3225 -37.9750 -37.8905  -1.2525   4.5608   5.7364   6.6750
    10.4329  11.6336  12.6360  14.4168

          k = 1.1882 0.6860-0.1718 (  4772 PWs)   bands (ev):

   -38.3703 -38.2657 -38.0374 -37.9895   1.3949   2.3706   5.7333   7.2698
     7.9363  12.0163  12.1732  13.3080

          k =-0.3961 0.2287 0.1145 (  4786 PWs)   bands (ev):

   -38.6967 -38.4222 -37.9067 -37.7585  -3.1550   3.7167   5.1418   9.8232
    12.0241  13.2502  14.3916  16.2699

          k =-0.7922 0.0000 0.1718 (  4767 PWs)   bands (ev):

   -38.5683 -38.3498 -37.9528 -37.8526  -1.8817   4.3497   5.7493   8.6694
     9.6079  10.8434  13.3415  14.4607

          k = 1.1882 1.1434-0.1145 (  4761 PWs)   bands (ev):

   -38.3788 -38.2568 -38.0326 -37.9946   0.5995   4.2668   6.0236   6.5800
     8.1323   9.6657  10.7324  13.3345

          k = 0.7922 0.9147-0.0573 (  4773 PWs)   bands (ev):

   -38.3788 -38.2568 -38.0323 -37.9949   0.6053   4.2432   5.9506   6.7469
     8.0174   9.3474  11.3895  13.3049

          k = 0.3961 0.6860 0.0000 (  4766 PWs)   bands (ev):

   -38.5685 -38.3494 -37.9533 -37.8523  -1.8795   4.4053   5.5566   8.7814
     9.6239  11.6260  12.4977  14.3561

          k =-0.7922 0.4573 0.2291 (  4768 PWs)   bands (ev):

   -38.5149 -38.3233 -37.9736 -37.8915  -1.2573   4.3849   6.3272   6.6836
     9.0059  12.4629  13.3151  13.9957

          k = 1.1882 1.6007-0.0573 (  4761 PWs)   bands (ev):

   -38.3786 -38.2572 -38.0316 -37.9954   0.5926   4.2039   5.9370   7.2658
     8.1014   8.6903  11.0363  13.9356

          k = 0.7922 1.3720 0.0000 (  4772 PWs)   bands (ev):

   -38.2361 -38.2361 -38.0861 -38.0841   2.9981   4.1343   4.1368   7.0366
     8.1407   8.5680   8.5727  14.2699

          k = 1.1882-0.6860-0.3436 (  4780 PWs)   bands (ev):

   -38.3704 -38.2654 -38.0383 -37.9888   1.3571   2.3765   6.1135   6.5574
     9.3521  10.1421  11.8046  13.3202

          k =-0.0000 0.0000 0.1718 (  4769 PWs)   bands (ev):

   -38.7689 -38.4648 -37.8826 -37.7081  -3.7980   3.3629   4.9670   9.6283
    13.0609  16.7965  16.7965  18.3691

          k =-0.3961-0.2287 0.2291 (  4774 PWs)   bands (ev):

   -38.6964 -38.4228 -37.9060 -37.7589  -3.1566   3.6829   5.3095   9.3749
    11.5124  14.4879  14.8244  16.6213

          k = 1.5843 0.9147-0.0573 (  4760 PWs)   bands (ev):

   -38.5151 -38.3229 -37.9745 -37.8908  -1.2574   4.5358   5.9054   6.6824
     9.9661  11.6402  12.6144  14.3416

          k = 1.1882 0.6860 0.0000 (  4775 PWs)   bands (ev):

   -38.3703 -38.2656 -38.0376 -37.9893   1.3853   2.3722   5.8007   7.0560
     8.2478  11.6890  11.9555  13.2875

          k = 0.7922 0.4573 0.0573 (  4763 PWs)   bands (ev):

   -38.5152 -38.3227 -37.9745 -37.8909  -1.2524   4.4700   5.9334   6.6733
     9.7759  12.5523  12.6817  14.1687

          k =-0.3961 0.2287 0.2864 (  4782 PWs)   bands (ev):

   -38.6961 -38.4233 -37.9053 -37.7593  -3.1578   3.6336   5.5366   8.7330
    12.2409  14.3308  14.3654  16.4668

          k = 1.5843 1.3720 0.0000 (  4753 PWs)   bands (ev):

   -38.5679 -38.3506 -37.9517 -37.8533  -1.8861   4.2646   6.1941   8.2890
     9.5613  10.1971  14.0315  14.7542

          k = 1.1882 1.1434 0.0573 (  4751 PWs)   bands (ev):

   -38.3787 -38.2569 -38.0324 -37.9948   0.5902   4.2570   6.0313   6.7147
     8.2545   9.6069  10.2258  13.5702

          k = 0.7922 0.9147 0.1145 (  4763 PWs)   bands (ev):

   -38.3787 -38.2570 -38.0318 -37.9953   0.6019   4.2117   5.9183   7.0817
     7.9352   9.0020  11.4182  13.7098

          k = 1.5843-0.9147-0.2864 (  4761 PWs)   bands (ev):

   -38.5147 -38.3237 -37.9732 -37.8917  -1.2622   4.3750   6.5365   6.7457
     8.5941  12.4468  13.0296  13.9189

          k = 1.1882-1.1434-0.2291 (  4759 PWs)   bands (ev):

   -38.3786 -38.2572 -38.0319 -37.9952   0.5868   4.2257   5.9823   7.0373
     8.3809   8.8280  10.5755  13.7855

          k = 0.7922-1.3720-0.1718 (  4768 PWs)   bands (ev):

   -38.2361 -38.2361 -38.0861 -38.0841   2.9981   4.1338   4.1373   7.0366
     8.1410   8.5600   8.5804  14.2681

          k = 1.1882-0.6860-0.1718 (  4774 PWs)   bands (ev):

   -38.3704 -38.2655 -38.0381 -37.9889   1.3664   2.3752   5.9746   6.7403
     8.8484  10.7770  11.8507  13.3036

          k =-0.0000 0.0000 0.3436 (  4778 PWs)   bands (ev):

   -38.7681 -38.4663 -37.8808 -37.7091  -3.8002   3.2910   5.3754   8.4622
    15.0129  16.7874  16.7874  18.2696

          k = 1.9804 1.1434 0.0573 (  4773 PWs)   bands (ev):

   -38.6958 -38.4240 -37.9045 -37.7598  -3.1593   3.6085   5.7583   8.3308
    11.8467  14.4169  16.4294  16.7591

          k = 1.5843 0.9147 0.1145 (  4745 PWs)   bands (ev):

   -38.5148 -38.3235 -37.9736 -37.8914  -1.2622   4.4394   6.3120   6.7046
     9.0288  12.3265  12.5157  14.0833

          k = 1.9804-1.1434-0.2291 (  4784 PWs)   bands (ev):

   -38.6957 -38.4242 -37.9042 -37.7600  -3.1599   3.5881   5.9184   8.0416
    12.0664  14.3421  15.8365  16.8546

          k = 1.5843-1.3720-0.1718 (  4756 PWs)   bands (ev):

   -38.5677 -38.3510 -37.9512 -37.8537  -1.8883   4.2301   6.5044   7.9619
     9.5295  10.0293  14.2151  14.9795

          k = 0.0000 0.0000-0.5154 (  4760 PWs)   bands (ev):

   -38.7678 -38.4670 -37.8799 -37.7097  -3.8013   3.2606   5.6438   7.9430
    16.7362  16.7833  16.7833  17.7009

     the Fermi energy is     8.2356 ev

!    total energy              =     -65.67368155 Ry
     estimated scf accuracy    <          1.1E-09 Ry
     smearing contrib. (-TS)   =      -0.00156232 Ry
     internal energy E=F+TS    =     -65.67211923 Ry

     The total energy is F=E-TS. E is the sum of the following terms:
     one-electron contribution =     -22.17316766 Ry
     hartree contribution      =      11.85296375 Ry
     xc contribution           =     -17.33228434 Ry
     ewald contribution        =     -38.01963099 Ry

     convergence has been achieved in  10 iterations

     Forces acting on atoms (cartesian axes, Ry/au):

     atom    1 type  1   force =     0.00000000    0.00000000    0.00000000
     atom    2 type  2   force =     0.00000000   -0.00000000    0.00463622
     atom    3 type  2   force =     0.00000000    0.00000000   -0.00463622
     atom    4 type  2   force =    -0.00000000    0.00000000   -0.01299017
     atom    5 type  2   force =     0.00000000    0.00000000    0.01299017
     The non-local contrib.  to forces
     atom    1 type  1   force =     0.00000000    0.00000000    0.00000000
     atom    2 type  2   force =    -0.00000000    0.00000000   -0.05619881
     atom    3 type  2   force =     0.00000000   -0.00000000    0.05619881
     atom    4 type  2   force =     0.00000000   -0.00000000    0.04672934
     atom    5 type  2   force =    -0.00000000    0.00000000   -0.04672934
     The ionic contribution  to forces
     atom    1 type  1   force =    -0.00000000   -0.00000000    0.00000000
     atom    2 type  2   force =    -0.00000000    0.00000000   -0.03432638
     atom    3 type  2   force =     0.00000000   -0.00000000    0.03432638
     atom    4 type  2   force =    -0.00000000   -0.00000000   -0.68518185
     atom    5 type  2   force =    -0.00000000    0.00000000    0.68518185
     The local contribution  to forces
     atom    1 type  1   force =     0.00000000    0.00000000    0.00000000
     atom    2 type  2   force =    -0.00000000   -0.00000000    0.09518598
     atom    3 type  2   force =    -0.00000000    0.00000000   -0.09518598
     atom    4 type  2   force =    -0.00000000    0.00000000    0.62550860
     atom    5 type  2   force =     0.00000000   -0.00000000   -0.62550860
     The core correction contribution to forces
     atom    1 type  1   force =    -0.00000000    0.00000000   -0.00000000
     atom    2 type  2   force =     0.00000000    0.00000000    0.00000000
     atom    3 type  2   force =     0.00000000    0.00000000    0.00000000
     atom    4 type  2   force =     0.00000000    0.00000000    0.00000000
     atom    5 type  2   force =     0.00000000    0.00000000    0.00000000
     The Hubbard contrib.    to forces
     atom    1 type  1   force =     0.00000000    0.00000000    0.00000000
     atom    2 type  2   force =     0.00000000    0.00000000    0.00000000
     atom    3 type  2   force =     0.00000000    0.00000000    0.00000000
     atom    4 type  2   force =     0.00000000    0.00000000    0.00000000
     atom    5 type  2   force =     0.00000000    0.00000000    0.00000000
     The SCF correction term to forces
     atom    1 type  1   force =     0.00000000    0.00000000   -0.00000000
     atom    2 type  2   force =     0.00000000    0.00000000   -0.00002457
     atom    3 type  2   force =     0.00000000   -0.00000000    0.00002457
     atom    4 type  2   force =     0.00000000    0.00000000   -0.00004626
     atom    5 type  2   force =     0.00000000   -0.00000000    0.00004626

     Total force =     0.019506     Total SCF correction =     0.000074


     Computing stress (Cartesian axis) and pressure

          total   stress  (Ry/bohr**3)                   (kbar)     P=      579.17
   0.00373500   0.00000000   0.00000000          549.44        0.00        0.00
   0.00000000   0.00373500   0.00000000            0.00      549.44        0.00
   0.00000000   0.00000000   0.00434140            0.00        0.00      638.64


     BFGS Geometry Optimization
     Energy error            =      0.0E+00 Ry
     Gradient error          =      1.3E-02 Ry/Bohr
     Cell gradient error     =      1.4E+02 kbar

     number of scf cycles    =   1
     number of bfgs steps    =   0

     enthalpy           new  =     -64.7146337671 Ry

     new trust radius        =       0.0791562256 bohr
ibrav =      5
 celldm(1) =     12.65947697
 celldm(4) =      0.91391959
Input lattice vectors:
     0.21216513    -0.12249360     0.99289556
     0.00000000     0.24498720     0.99289556
    -0.21216513    -0.12249360     0.99289556
New lattice vectors in INITIAL alat:
     0.21216513    -0.12249360     0.99289556
     0.00000000     0.24498720     0.99289556
    -0.21216513    -0.12249360     0.99289556
New lattice vectors in NEW alat (for information only):
     0.20746134    -0.11977786     0.97088262
     0.00000000     0.23955572     0.97088262
    -0.20746134    -0.11977786     0.97088262
Discrepancy in bohr =     0.000000    0.000000    0.000000
     new conv_thr            =       0.0000000100 Ry

     new unit-cell volume =    293.68312 a.u.^3 (    43.51935 Ang^3 )
     density =      2.13101 g/cm^3

CELL_PARAMETERS (alat= 12.37881065)
   0.212165135  -0.122493598   0.992895561
   0.000000000   0.244987195   0.992895561
  -0.212165135  -0.122493598   0.992895561

ATOMIC_POSITIONS (crystal)
Si            0.0000000000        0.0000000000        0.0000000000
Li            0.1342356988        0.1342356988        0.1342356988
Li            0.8657643012        0.8657643012        0.8657643012
Li            0.4136714004        0.4136714004        0.4136714004
Li            0.5863285996        0.5863285996        0.5863285996



     Writing config-only to output data dir ./output/SiLi.save/
     NEW-OLD atomic charge density approx. for the potential
     extrapolated charge   16.62696, renormalised to   16.00000

     total cpu time spent up to now is       19.4 secs

     Self-consistent Calculation

     iteration #  1     ecut=   100.00 Ry     beta= 0.70
     Davidson diagonalization with overlap
     ethr =  1.00E-06,  avg # of iterations =  6.8

     total cpu time spent up to now is       22.3 secs

     total energy              =     -65.68584811 Ry
     estimated scf accuracy    <       0.03040592 Ry

     iteration #  2     ecut=   100.00 Ry     beta= 0.70
     Davidson diagonalization with overlap
     ethr =  1.90E-04,  avg # of iterations =  4.5

     total cpu time spent up to now is       24.2 secs

     total energy              =     -65.69228951 Ry
     estimated scf accuracy    <       0.43758355 Ry

     iteration #  3     ecut=   100.00 Ry     beta= 0.70
     Davidson diagonalization with overlap
     ethr =  1.90E-04,  avg # of iterations =  3.2

     total cpu time spent up to now is       25.8 secs

     total energy              =     -65.71729113 Ry
     estimated scf accuracy    <       0.04067536 Ry

     iteration #  4     ecut=   100.00 Ry     beta= 0.70
     Davidson diagonalization with overlap
     ethr =  1.90E-04,  avg # of iterations =  1.2

     total cpu time spent up to now is       27.0 secs

     total energy              =     -65.71851355 Ry
     estimated scf accuracy    <       0.00651588 Ry

     iteration #  5     ecut=   100.00 Ry     beta= 0.70
     Davidson diagonalization with overlap
     ethr =  4.07E-05,  avg # of iterations =  1.9

     total cpu time spent up to now is       28.2 secs

     total energy              =     -65.71804538 Ry
     estimated scf accuracy    <       0.00382038 Ry

     iteration #  6     ecut=   100.00 Ry     beta= 0.70
     Davidson diagonalization with overlap
     ethr =  2.39E-05,  avg # of iterations =  1.9

     total cpu time spent up to now is       29.5 secs

     total energy              =     -65.71819310 Ry
     estimated scf accuracy    <       0.00033994 Ry

     iteration #  7     ecut=   100.00 Ry     beta= 0.70
     Davidson diagonalization with overlap
     ethr =  2.12E-06,  avg # of iterations =  4.5

     total cpu time spent up to now is       31.0 secs

     total energy              =     -65.71819345 Ry
     estimated scf accuracy    <       0.00006930 Ry

     iteration #  8     ecut=   100.00 Ry     beta= 0.70
     Davidson diagonalization with overlap
     ethr =  4.33E-07,  avg # of iterations =  1.3

     total cpu time spent up to now is       32.2 secs

     total energy              =     -65.71819960 Ry
     estimated scf accuracy    <       0.00000030 Ry

     iteration #  9     ecut=   100.00 Ry     beta= 0.70
     Davidson diagonalization with overlap
     ethr =  1.90E-09,  avg # of iterations =  3.3

     total cpu time spent up to now is       33.7 secs

     total energy              =     -65.71819982 Ry
     estimated scf accuracy    <       0.00000177 Ry

     iteration # 10     ecut=   100.00 Ry     beta= 0.70
     Davidson diagonalization with overlap
     ethr =  1.90E-09,  avg # of iterations =  1.5

     total cpu time spent up to now is       34.9 secs

     total energy              =     -65.71819989 Ry
     estimated scf accuracy    <       0.00000012 Ry

     iteration # 11     ecut=   100.00 Ry     beta= 0.70
     Davidson diagonalization with overlap
     ethr =  7.67E-10,  avg # of iterations =  1.0

     total cpu time spent up to now is       36.1 secs

     total energy              =     -65.71819989 Ry
     estimated scf accuracy    <       0.00000001 Ry

     iteration # 12     ecut=   100.00 Ry     beta= 0.70
     Davidson diagonalization with overlap
     ethr =  9.33E-11,  avg # of iterations =  1.4

     total cpu time spent up to now is       37.4 secs

     End of self-consistent calculation

          k = 0.0000 0.0000 0.0000 (  4773 PWs)   bands (ev):

   -39.0563 -38.7735 -38.2509 -38.0984  -4.0368   3.0535   4.3584  10.0865
    11.0467  16.2434  16.2434  18.0037

          k =-0.3928-0.2268 0.0560 (  4771 PWs)   bands (ev):

   -38.9914 -38.7359 -38.2712 -38.1432  -3.4012   3.4032   4.6247  10.0820
    10.4005  13.0060  14.0067  15.8702

          k =-0.7856-0.4535 0.1119 (  4760 PWs)   bands (ev):

   -38.8294 -38.6486 -38.3293 -38.2595  -1.5198   4.2596   5.3605   6.2939
     9.9654  11.0989  12.2029  13.8792

          k = 1.1783 0.6803-0.1679 (  4772 PWs)   bands (ev):

   -38.7026 -38.6004 -38.3814 -38.3449   1.0754   2.1153   5.4226   6.8757
     7.5582  11.5930  11.6414  12.7768

          k =-0.3928 0.2268 0.1119 (  4786 PWs)   bands (ev):

   -38.9913 -38.7361 -38.2709 -38.1434  -3.4017   3.3691   4.7235   9.2878
    11.4354  12.6702  13.9387  15.8187

          k =-0.7856 0.0000 0.1679 (  4767 PWs)   bands (ev):

   -38.8765 -38.6724 -38.3104 -38.2262  -2.1418   4.0177   5.3584   8.2710
     9.2016  10.3449  12.8497  13.9551

          k = 1.1783 1.1338-0.1119 (  4761 PWs)   bands (ev):

   -38.7091 -38.5935 -38.3777 -38.3488   0.3099   3.9766   5.6753   6.2339
     7.7753   9.2561  10.3146  12.8092

          k = 0.7856 0.9071-0.0560 (  4773 PWs)   bands (ev):

   -38.7091 -38.5936 -38.3775 -38.3490   0.3147   3.9580   5.6071   6.3850
     7.6715   8.9390  10.9976  12.7215

          k = 0.3928 0.6803 0.0000 (  4766 PWs)   bands (ev):

   -38.8767 -38.6721 -38.3109 -38.2259  -2.1401   4.0812   5.1613   8.3911
     9.2276  11.0610  11.9969  13.8561

          k =-0.7856 0.4535 0.2238 (  4768 PWs)   bands (ev):

   -38.8291 -38.6492 -38.3281 -38.2603  -1.5236   4.0790   5.9323   6.3048
     8.5688  12.0574  12.7830  13.4405

          k = 1.1783 1.5874-0.0560 (  4761 PWs)   bands (ev):

   -38.7090 -38.5939 -38.3769 -38.3495   0.3044   3.9218   5.5715   6.9034
     7.7496   8.2925  10.6360  13.3692

          k = 0.7856 1.3606 0.0000 (  4772 PWs)   bands (ev):

   -38.5858 -38.5858 -38.4201 -38.4187   2.6265   3.8701   3.8722   6.6888
     7.7869   8.2085   8.2115  13.7037

          k = 1.1783-0.6803-0.3357 (  4780 PWs)   bands (ev):

   -38.7026 -38.6002 -38.3821 -38.3443   1.0454   2.1200   5.7603   6.2079
     8.9129   9.6906  11.4145  12.8399

          k = 0.0000 0.0000 0.1679 (  4769 PWs)   bands (ev):

   -39.0560 -38.7740 -38.2502 -38.0988  -4.0377   3.0026   4.5385   9.0166
    12.3504  16.2394  16.2394  17.9555

          k =-0.3928-0.2268 0.2238 (  4774 PWs)   bands (ev):

   -38.9910 -38.7366 -38.2703 -38.1437  -3.4030   3.3273   4.8988   8.8132
    11.0518  14.0189  14.1011  16.1121

          k = 1.5711 0.9071-0.0560 (  4760 PWs)   bands (ev):

   -38.8293 -38.6489 -38.3289 -38.2597  -1.5238   4.2186   5.5484   6.2985
     9.4438  11.1950  12.1853  14.7519

          k = 1.1783 0.6803 0.0000 (  4775 PWs)   bands (ev):

   -38.7026 -38.6004 -38.3815 -38.3447   1.0678   2.1166   5.4831   6.6743
     7.8549  11.1712  11.5427  12.7752

          k = 0.7856 0.4535 0.0560 (  4763 PWs)   bands (ev):

   -38.8294 -38.6488 -38.3289 -38.2598  -1.5197   4.1728   5.5431   6.2939
     9.3363  12.1037  12.1333  13.6026

          k =-0.3928 0.2268 0.2798 (  4782 PWs)   bands (ev):

   -38.9908 -38.7370 -38.2697 -38.1441  -3.4039   3.2755   5.1215   8.2131
    11.7608  13.6725  13.8876  16.0065

          k = 1.5711 1.3606 0.0000 (  4753 PWs)   bands (ev):

   -38.8762 -38.6730 -38.3095 -38.2268  -2.1454   3.9225   5.8058   7.8667
     9.1317   9.7817  13.5966  14.2589

          k = 1.1783 1.1338 0.0560 (  4751 PWs)   bands (ev):

   -38.7090 -38.5937 -38.3776 -38.3489   0.3025   3.9665   5.6657   6.3820
     7.8874   9.1875   9.8250  13.0633

          k = 0.7856 0.9071 0.1119 (  4763 PWs)   bands (ev):

   -38.7090 -38.5938 -38.3770 -38.3494   0.3119   3.9305   5.5642   6.7090
     7.5984   8.5972  11.0291  13.1226

          k = 1.5711-0.9071-0.2798 (  4761 PWs)   bands (ev):

   -38.8290 -38.6495 -38.3278 -38.2605  -1.5275   4.0587   6.1600   6.3598
     8.1411  12.0438  12.5369  13.4147

          k = 1.1783-1.1338-0.2238 (  4759 PWs)   bands (ev):

   -38.7090 -38.5938 -38.3771 -38.3493   0.2997   3.9393   5.6118   6.6967
     8.0084   8.4280  10.1742  13.2482

          k = 0.7856-1.3606-0.1679 (  4768 PWs)   bands (ev):

   -38.5858 -38.5858 -38.4201 -38.4187   2.6265   3.8698   3.8726   6.6888
     7.7871   8.2020   8.2178  13.7003

          k = 1.1783-0.6803-0.1679 (  4774 PWs)   bands (ev):

   -38.7026 -38.6003 -38.3819 -38.3444   1.0528   2.1189   5.6387   6.3755
     8.4326  10.2953  11.4542  12.8133

          k = 0.0000 0.0000 0.3357 (  4778 PWs)   bands (ev):

   -39.0554 -38.7752 -38.2488 -38.0997  -4.0395   2.9208   4.9512   7.8986
    14.2010  16.2319  16.2319  17.8657

          k = 1.9639 1.1338 0.0560 (  4773 PWs)   bands (ev):

   -38.9906 -38.7375 -38.2691 -38.1445  -3.4052   3.2447   5.3500   7.8043
    11.4012  13.9604  15.6538  16.1243

          k = 1.5711 0.9071 0.1119 (  4745 PWs)   bands (ev):

   -38.8290 -38.6494 -38.3281 -38.2602  -1.5276   4.1173   5.9564   6.3170
     8.5403  11.8688  12.1026  13.5828

          k = 1.9639-1.1338-0.2238 (  4784 PWs)   bands (ev):

   -38.9905 -38.7377 -38.2688 -38.1447  -3.4057   3.2236   5.5074   7.5289
    11.6151  13.8974  15.1327  16.3470

          k = 1.5711-1.3606-0.1679 (  4756 PWs)   bands (ev):

   -38.8760 -38.6733 -38.3091 -38.2271  -2.1472   3.8843   6.1172   7.5276
     9.0916   9.6464  13.7766  14.4966

          k = 0.0000 0.0000-0.5036 (  4760 PWs)   bands (ev):

   -39.0551 -38.7757 -38.2480 -38.1002  -4.0405   2.8867   5.2224   7.3937
    15.7541  16.2284  16.2284  16.9535

     the Fermi energy is     7.8521 ev

!    total energy              =     -65.71819989 Ry
     estimated scf accuracy    <          4.4E-11 Ry
     smearing contrib. (-TS)   =      -0.00184564 Ry
     internal energy E=F+TS    =     -65.71635426 Ry

     The total energy is F=E-TS. E is the sum of the following terms:
     one-electron contribution =     -22.86132093 Ry
     hartree contribution      =      11.95791179 Ry
     xc contribution           =     -17.26871409 Ry
     ewald contribution        =     -37.54423103 Ry

     convergence has been achieved in  12 iterations

     Forces acting on atoms (cartesian axes, Ry/au):

     atom    1 type  1   force =     0.00000000    0.00000000    0.00000000
     atom    2 type  2   force =    -0.00000000    0.00000000    0.00594809
     atom    3 type  2   force =    -0.00000000   -0.00000000   -0.00594809
     atom    4 type  2   force =     0.00000000    0.00000000   -0.01803021
     atom    5 type  2   force =    -0.00000000   -0.00000000    0.01803021
     The non-local contrib.  to forces
     atom    1 type  1   force =    -0.00000000    0.00000000   -0.00000000
     atom    2 type  2   force =     0.00000000   -0.00000000   -0.05241782
     atom    3 type  2   force =     0.00000000    0.00000000    0.05241782
     atom    4 type  2   force =    -0.00000000   -0.00000000    0.04578786
     atom    5 type  2   force =    -0.00000000    0.00000000   -0.04578786
     The ionic contribution  to forces
     atom    1 type  1   force =     0.00000000   -0.00000000    0.00000000
     atom    2 type  2   force =     0.00000000    0.00000000   -0.03389981
     atom    3 type  2   force =     0.00000000   -0.00000000    0.03389981
     atom    4 type  2   force =    -0.00000000   -0.00000000   -0.65204603
     atom    5 type  2   force =     0.00000000    0.00000000    0.65204603
     The local contribution  to forces
     atom    1 type  1   force =    -0.00000000    0.00000000   -0.00000000
     atom    2 type  2   force =     0.00000000   -0.00000000    0.09227087
     atom    3 type  2   force =     0.00000000    0.00000000   -0.09227087
     atom    4 type  2   force =     0.00000000    0.00000000    0.58823674
     atom    5 type  2   force =    -0.00000000   -0.00000000   -0.58823674
     The core correction contribution to forces
     atom    1 type  1   force =    -0.00000000   -0.00000000   -0.00000000
     atom    2 type  2   force =     0.00000000    0.00000000    0.00000000
     atom    3 type  2   force =     0.00000000    0.00000000    0.00000000
     atom    4 type  2   force =     0.00000000    0.00000000    0.00000000
     atom    5 type  2   force =     0.00000000    0.00000000    0.00000000
     The Hubbard contrib.    to forces
     atom    1 type  1   force =     0.00000000    0.00000000    0.00000000
     atom    2 type  2   force =     0.00000000    0.00000000    0.00000000
     atom    3 type  2   force =     0.00000000    0.00000000    0.00000000
     atom    4 type  2   force =     0.00000000    0.00000000    0.00000000
     atom    5 type  2   force =     0.00000000    0.00000000    0.00000000
     The SCF correction term to forces
     atom    1 type  1   force =     0.00000000    0.00000000    0.00000000
     atom    2 type  2   force =     0.00000000    0.00000000   -0.00000514
     atom    3 type  2   force =     0.00000000    0.00000000    0.00000514
     atom    4 type  2   force =     0.00000000    0.00000000   -0.00000878
     atom    5 type  2   force =    -0.00000000   -0.00000000    0.00000878

     Total force =     0.026850     Total SCF correction =     0.000014


     Computing stress (Cartesian axis) and pressure

          total   stress  (Ry/bohr**3)                   (kbar)     P=      505.41
   0.00324935   0.00000000   0.00000000          478.00        0.00        0.00
   0.00000000   0.00324935   0.00000000            0.00      478.00        0.00
  -0.00000000   0.00000000   0.00380841           -0.00        0.00      560.24

     Energy error            =      5.4E-03 Ry
     Gradient error          =      1.8E-02 Ry/Bohr
     Cell gradient error     =      6.0E+01 kbar

     number of scf cycles    =   2
     number of bfgs steps    =   1

     enthalpy           old  =     -64.7146337671 Ry
     enthalpy           new  =     -64.7199912540 Ry

     CASE: enthalpy          _new < enthalpy          _old

     new trust radius        =       0.0812730621 bohr
ibrav =      5
 celldm(1) =     12.94096955
 celldm(4) =      0.91800776
Input lattice vectors:
     0.21166998    -0.12220772     1.01643959
     0.00000000     0.24441544     1.01643959
    -0.21166998    -0.12220772     1.01643959
New lattice vectors in INITIAL alat:
     0.21166998    -0.12220772     1.01643959
     0.00000000     0.24441544     1.01643959
    -0.21166998    -0.12220772     1.01643959
New lattice vectors in NEW alat (for information only):
     0.20247498    -0.11689899     0.97228520
     0.00000000     0.23379797     0.97228520
    -0.20247498    -0.11689899     0.97228520
Discrepancy in bohr =     0.000000    0.000000    0.000000
     new conv_thr            =       0.0000000036 Ry

     new unit-cell volume =    299.24540 a.u.^3 (    44.34359 Ang^3 )
     density =      2.09140 g/cm^3

CELL_PARAMETERS (alat= 12.37881065)
   0.211669978  -0.122207719   1.016439585
   0.000000000   0.244415437   1.016439585
  -0.211669978  -0.122207719   1.016439585

ATOMIC_POSITIONS (crystal)
Si            0.0000000000        0.0000000000        0.0000000000
Li            0.1345313170        0.1345313170        0.1345313170
Li            0.8654686830        0.8654686830        0.8654686830
Li            0.4127867522        0.4127867522        0.4127867522
Li            0.5872132478        0.5872132478        0.5872132478



     Writing config-only to output data dir ./output/SiLi.save/
     NEW-OLD atomic charge density approx. for the potential
     extrapolated charge   16.29705, renormalised to   16.00000

     total cpu time spent up to now is       39.2 secs

     Self-consistent Calculation

     iteration #  1     ecut=   100.00 Ry     beta= 0.70
     Davidson diagonalization with overlap
     ethr =  1.00E-06,  avg # of iterations =  7.8

     total cpu time spent up to now is       42.1 secs

     total energy              =     -65.72879599 Ry
     estimated scf accuracy    <       0.01300615 Ry

     iteration #  2     ecut=   100.00 Ry     beta= 0.70
     Davidson diagonalization with overlap
     ethr =  8.13E-05,  avg # of iterations =  4.0

     total cpu time spent up to now is       43.9 secs

     total energy              =     -65.72761400 Ry
     estimated scf accuracy    <       0.21462608 Ry

     iteration #  3     ecut=   100.00 Ry     beta= 0.70
     Davidson diagonalization with overlap
     ethr =  8.13E-05,  avg # of iterations =  3.4

     total cpu time spent up to now is       45.5 secs

     total energy              =     -65.74061930 Ry
     estimated scf accuracy    <       0.01289018 Ry

     iteration #  4     ecut=   100.00 Ry     beta= 0.70
     Davidson diagonalization with overlap
     ethr =  8.06E-05,  avg # of iterations =  1.0

     total cpu time spent up to now is       46.7 secs

     total energy              =     -65.74118668 Ry
     estimated scf accuracy    <       0.00114777 Ry

     iteration #  5     ecut=   100.00 Ry     beta= 0.70
     Davidson diagonalization with overlap
     ethr =  7.17E-06,  avg # of iterations =  3.1

     total cpu time spent up to now is       48.0 secs

     total energy              =     -65.74110980 Ry
     estimated scf accuracy    <       0.00081728 Ry

     iteration #  6     ecut=   100.00 Ry     beta= 0.70
     Davidson diagonalization with overlap
     ethr =  5.11E-06,  avg # of iterations =  1.3

     total cpu time spent up to now is       49.2 secs

     total energy              =     -65.74110886 Ry
     estimated scf accuracy    <       0.00013505 Ry

     iteration #  7     ecut=   100.00 Ry     beta= 0.70
     Davidson diagonalization with overlap
     ethr =  8.44E-07,  avg # of iterations =  2.2

     total cpu time spent up to now is       50.5 secs

     total energy              =     -65.74112223 Ry
     estimated scf accuracy    <       0.00000021 Ry

     iteration #  8     ecut=   100.00 Ry     beta= 0.70
     Davidson diagonalization with overlap
     ethr =  1.30E-09,  avg # of iterations =  3.4

     total cpu time spent up to now is       51.9 secs

     total energy              =     -65.74112244 Ry
     estimated scf accuracy    <       0.00000015 Ry

     iteration #  9     ecut=   100.00 Ry     beta= 0.70
     Davidson diagonalization with overlap
     ethr =  9.28E-10,  avg # of iterations =  1.5

     total cpu time spent up to now is       53.2 secs

     total energy              =     -65.74112246 Ry
     estimated scf accuracy    <       0.00000020 Ry

     iteration # 10     ecut=   100.00 Ry     beta= 0.70
     Davidson diagonalization with overlap
     ethr =  9.28E-10,  avg # of iterations =  1.0

     total cpu time spent up to now is       54.3 secs

     total energy              =     -65.74112247 Ry
     estimated scf accuracy    <          9.1E-09 Ry

     iteration # 11     ecut=   100.00 Ry     beta= 0.70
     Davidson diagonalization with overlap
     ethr =  5.69E-11,  avg # of iterations =  1.1

     total cpu time spent up to now is       55.5 secs

     total energy              =     -65.74112247 Ry
     estimated scf accuracy    <       0.00000001 Ry

     iteration # 12     ecut=   100.00 Ry     beta= 0.70
     Davidson diagonalization with overlap
     ethr =  5.69E-11,  avg # of iterations =  1.0

     total cpu time spent up to now is       56.6 secs

     End of self-consistent calculation

          k = 0.0000 0.0000 0.0000 (  4773 PWs)   bands (ev):

   -39.1508 -38.8738 -38.3992 -38.2553  -4.2501   2.8523   4.1508   9.4718
    10.5888  16.2109  16.2109  17.9590

          k =-0.3937-0.2273 0.0547 (  4771 PWs)   bands (ev):

   -39.0897 -38.8391 -38.4157 -38.2957  -3.6082   3.2136   4.4256   9.5450
    10.1352  12.6921  13.9516  15.8155

          k =-0.7874-0.4546 0.1093 (  4760 PWs)   bands (ev):

   -38.9384 -38.7596 -38.4636 -38.4005  -1.7070   4.1153   5.1851   6.1441
     9.7114  10.7546  12.1387  13.5597

          k = 1.1811 0.6819-0.1640 (  4772 PWs)   bands (ev):

   -38.8220 -38.7177 -38.5067 -38.4765   0.9395   1.9339   5.2848   6.7163
     7.4313  11.2535  11.5258  12.4988

          k =-0.3937 0.2273 0.1093 (  4786 PWs)   bands (ev):

   -39.0896 -38.8393 -38.4154 -38.2959  -3.6086   3.1813   4.5198   8.8771
    11.0382  12.3687  13.8982  15.7923

          k =-0.7874 0.0000 0.1640 (  4767 PWs)   bands (ev):

   -38.9822 -38.7810 -38.4479 -38.3706  -2.3356   3.8544   5.1708   8.1030
     9.0194  10.0858  12.6093  13.7359

          k = 1.1811 1.1365-0.1093 (  4761 PWs)   bands (ev):

   -38.8272 -38.7123 -38.5038 -38.4795   0.1456   3.8407   5.5251   6.1049
     7.6486   9.1052  10.1297  12.5408

          k = 0.7874 0.9092-0.0547 (  4773 PWs)   bands (ev):

   -38.8272 -38.7123 -38.5036 -38.4797   0.1494   3.8256   5.4558   6.2470
     7.5632   8.7785  10.8962  12.3153

          k = 0.3937 0.6819 0.0000 (  4766 PWs)   bands (ev):

   -38.9823 -38.7807 -38.4483 -38.3703  -2.3342   3.9164   4.9796   8.2673
     9.0376  10.6915  11.7427  13.6673

          k =-0.7874 0.4546 0.2186 (  4768 PWs)   bands (ev):

   -38.9381 -38.7601 -38.4625 -38.4012  -1.7099   3.9419   5.7312   6.1443
     8.3417  12.0230  12.4199  13.1403

          k = 1.1811 1.5911-0.0547 (  4761 PWs)   bands (ev):

   -38.8271 -38.7126 -38.5030 -38.4801   0.1413   3.7928   5.4178   6.7556
     7.6392   8.1025  10.4943  13.0381

          k = 0.7874 1.3638 0.0000 (  4772 PWs)   bands (ev):

   -38.7142 -38.7142 -38.5379 -38.5370   2.5183   3.7162   3.7182   6.5668
     7.6663   8.0853   8.0893  13.3836

          k = 1.1811-0.6819-0.3279 (  4780 PWs)   bands (ev):

   -38.8221 -38.7175 -38.5073 -38.4759   0.9144   1.9379   5.6075   6.0743
     8.7178   9.4345  11.3831  12.5616

          k =-0.0000-0.0000 0.1640 (  4769 PWs)   bands (ev):

   -39.1506 -38.8743 -38.3985 -38.2557  -4.2508   2.8032   4.3245   8.5213
    11.7565  16.2077  16.2077  17.9213

          k =-0.3937-0.2273 0.2186 (  4774 PWs)   bands (ev):

   -39.0894 -38.8397 -38.4148 -38.2962  -3.6095   3.1397   4.6916   8.3773
    10.8505  13.5982  13.9609  15.9694

          k = 1.5748 0.9092-0.0547 (  4760 PWs)   bands (ev):

   -38.9383 -38.7598 -38.4632 -38.4007  -1.7101   4.0706   5.3753   6.1482
     9.0837  11.0276  12.1250  13.5917

          k = 1.1811 0.6819 0.0000 (  4775 PWs)   bands (ev):

   -38.8220 -38.7177 -38.5068 -38.4764   0.9332   1.9350   5.3431   6.5262
     7.7090  10.8217  11.4865  12.5030

          k = 0.7874 0.4546 0.0547 (  4763 PWs)   bands (ev):

   -38.9383 -38.7597 -38.4632 -38.4008  -1.7069   4.0347   5.3531   6.1421
     9.1258  11.6585  12.0841  13.2731

          k =-0.3937 0.2273 0.2733 (  4782 PWs)   bands (ev):

   -39.0893 -38.8401 -38.4143 -38.2966  -3.6102   3.0903   4.9055   7.8234
    11.6138  13.1009  13.8572  15.9722

          k = 1.5748 1.3638 0.0000 (  4753 PWs)   bands (ev):

   -38.9819 -38.7815 -38.4471 -38.3711  -2.3383   3.7608   5.6081   7.6132
     8.9816   9.6234  13.5044  14.0545

          k = 1.1811 1.1365 0.0547 (  4751 PWs)   bands (ev):

   -38.8272 -38.7124 -38.5036 -38.4796   0.1397   3.8309   5.5162   6.2526
     7.7438   9.0008   9.6637  12.8508

          k = 0.7874 0.9092 0.1093 (  4763 PWs)   bands (ev):

   -38.8272 -38.7125 -38.5032 -38.4800   0.1473   3.8015   5.4108   6.5555
     7.5054   8.4196  10.9284  12.7150

          k = 1.5748-0.9092-0.2733 (  4761 PWs)   bands (ev):

   -38.9380 -38.7604 -38.4622 -38.4015  -1.7129   3.9184   5.9862   6.1695
     7.8847  12.0118  12.2974  13.1885

          k = 1.1811-1.1365-0.2186 (  4759 PWs)   bands (ev):

   -38.8271 -38.7125 -38.5032 -38.4799   0.1375   3.8071   5.4602   6.5645
     7.8585   8.2436  10.0222  12.9885

          k = 0.7874-1.3638-0.1640 (  4768 PWs)   bands (ev):

   -38.7142 -38.7142 -38.5379 -38.5370   2.5183   3.7160   3.7185   6.5668
     7.6665   8.0786   8.0959  13.3833

          k = 1.1811-0.6819-0.1640 (  4774 PWs)   bands (ev):

   -38.8220 -38.7176 -38.5072 -38.4761   0.9206   1.9370   5.4925   6.2358
     8.2581  10.0063  11.4155  12.5382

          k =-0.0000-0.0000 0.3279 (  4778 PWs)   bands (ev):

   -39.1501 -38.8753 -38.3972 -38.2566  -4.2522   2.7237   4.7259   7.4647
    13.4834  16.2016  16.2016  17.8501

          k = 1.9685 1.1365 0.0547 (  4773 PWs)   bands (ev):

   -39.0891 -38.8405 -38.4137 -38.2969  -3.6112   3.0592   5.1323   7.4112
    11.2709  13.9152  14.9605  15.8022

          k = 1.5748 0.9092 0.1093 (  4745 PWs)   bands (ev):

   -38.9381 -38.7602 -38.4625 -38.4012  -1.7130   3.9724   5.7754   6.1586
     8.2272  11.6940  12.0595  13.3715

          k = 1.9685-1.1365-0.2186 (  4784 PWs)   bands (ev):

   -39.0890 -38.8407 -38.4134 -38.2971  -3.6115   3.0390   5.2865   7.1496
    11.5034  13.8650  14.5226  16.1984

          k = 1.5748-1.3638-0.1640 (  4756 PWs)   bands (ev):

   -38.9818 -38.7817 -38.4467 -38.3714  -2.3397   3.7232   5.9189   7.2423
     8.9636   9.5108  13.6617  14.3607

          k = 0.0000 0.0000-0.4919 (  4760 PWs)   bands (ev):

   -39.1499 -38.8758 -38.3965 -38.2570  -4.2528   2.6903   4.9936   6.9783
    14.8350  16.1987  16.1987  16.3777

     the Fermi energy is     7.6905 ev

!    total energy              =     -65.74112247 Ry
     estimated scf accuracy    <          2.8E-09 Ry
     smearing contrib. (-TS)   =      -0.00216277 Ry
     internal energy E=F+TS    =     -65.73895970 Ry

     The total energy is F=E-TS. E is the sum of the following terms:
     one-electron contribution =     -23.10041315 Ry
     hartree contribution      =      11.97443701 Ry
     xc contribution           =     -17.24126591 Ry
     ewald contribution        =     -37.37171765 Ry

     convergence has been achieved in  12 iterations

     Forces acting on atoms (cartesian axes, Ry/au):

     atom    1 type  1   force =     0.00000000    0.00000000    0.00000000
     atom    2 type  2   force =     0.00000000    0.00000000    0.00723102
     atom    3 type  2   force =    -0.00000000   -0.00000000   -0.00723102
     atom    4 type  2   force =     0.00000000   -0.00000000   -0.01834849
     atom    5 type  2   force =    -0.00000000   -0.00000000    0.01834849
     The non-local contrib.  to forces
     atom    1 type  1   force =    -0.00000000   -0.00000000    0.00000000
     atom    2 type  2   force =    -0.00000000    0.00000000   -0.04671371
     atom    3 type  2   force =     0.00000000    0.00000000    0.04671371
     atom    4 type  2   force =     0.00000000    0.00000000    0.04417772
     atom    5 type  2   force =    -0.00000000   -0.00000000   -0.04417772
     The ionic contribution  to forces
     atom    1 type  1   force =     0.00000000   -0.00000000    0.00000000
     atom    2 type  2   force =     0.00000000    0.00000000   -0.03330821
     atom    3 type  2   force =     0.00000000   -0.00000000    0.03330821
     atom    4 type  2   force =    -0.00000000   -0.00000000   -0.58902954
     atom    5 type  2   force =    -0.00000000    0.00000000    0.58902954
     The local contribution  to forces
     atom    1 type  1   force =    -0.00000000   -0.00000000   -0.00000000
     atom    2 type  2   force =     0.00000000   -0.00000000    0.08728336
     atom    3 type  2   force =     0.00000000    0.00000000   -0.08728336
     atom    4 type  2   force =     0.00000000    0.00000000    0.52656856
     atom    5 type  2   force =     0.00000000   -0.00000000   -0.52656856
     The core correction contribution to forces
     atom    1 type  1   force =     0.00000000    0.00000000   -0.00000000
     atom    2 type  2   force =     0.00000000    0.00000000    0.00000000
     atom    3 type  2   force =     0.00000000    0.00000000    0.00000000
     atom    4 type  2   force =     0.00000000    0.00000000    0.00000000
     atom    5 type  2   force =     0.00000000    0.00000000    0.00000000
     The Hubbard contrib.    to forces
     atom    1 type  1   force =     0.00000000    0.00000000    0.00000000
     atom    2 type  2   force =     0.00000000    0.00000000    0.00000000
     atom    3 type  2   force =     0.00000000    0.00000000    0.00000000
     atom    4 type  2   force =     0.00000000    0.00000000    0.00000000
     atom    5 type  2   force =     0.00000000    0.00000000    0.00000000
     The SCF correction term to forces
     atom    1 type  1   force =    -0.00000000   -0.00000000    0.00000000
     atom    2 type  2   force =     0.00000000   -0.00000000   -0.00003043
     atom    3 type  2   force =    -0.00000000    0.00000000    0.00003043
     atom    4 type  2   force =     0.00000000   -0.00000000   -0.00006522
     atom    5 type  2   force =    -0.00000000    0.00000000    0.00006522

     Total force =     0.027891     Total SCF correction =     0.000102


     Computing stress (Cartesian axis) and pressure

          total   stress  (Ry/bohr**3)                   (kbar)     P=      473.75
   0.00300751  -0.00000000   0.00000000          442.42       -0.00        0.00
  -0.00000000   0.00300751   0.00000000           -0.00      442.42        0.00
   0.00000000   0.00000000   0.00364645            0.00        0.00      536.41

     Energy error            =      4.0E-03 Ry
     Gradient error          =      1.8E-02 Ry/Bohr
     Cell gradient error     =      5.8E+01 kbar

     number of scf cycles    =   3
     number of bfgs steps    =   2

     enthalpy           old  =     -64.7199912540 Ry
     enthalpy           new  =     -64.7240080285 Ry

     CASE: enthalpy          _new < enthalpy          _old


     WARNING: bfgs curvature condition failed, Theta= 0.956
     new trust radius        =       0.1202082095 bohr
ibrav =      5
 celldm(1) =     13.36122264
 celldm(4) =      0.92425050
Input lattice vectors:
     0.21005942    -0.12127786     1.05175562
    -0.00000000     0.24255572     1.05175562
    -0.21005942    -0.12127786     1.05175562
New lattice vectors in INITIAL alat:
     0.21005942    -0.12127786     1.05175562
     0.00000000     0.24255572     1.05175562
    -0.21005942    -0.12127786     1.05175562
New lattice vectors in NEW alat (for information only):
     0.19461436    -0.11236065     0.97442308
     0.00000000     0.22472130     0.97442308
    -0.19461436    -0.11236065     0.97442308
Discrepancy in bohr =     0.000000    0.000000    0.000000
     new conv_thr            =       0.0000000037 Ry

     new unit-cell volume =    304.94853 a.u.^3 (    45.18871 Ang^3 )
     density =      2.05229 g/cm^3

CELL_PARAMETERS (alat= 12.37881065)
   0.210059419  -0.121277862   1.051755622
   0.000000000   0.242555725   1.051755622
  -0.210059419  -0.121277862   1.051755622

ATOMIC_POSITIONS (crystal)
Si           -0.0000000000        0.0000000000       -0.0000000000
Li            0.1350282219        0.1350282219        0.1350282219
Li            0.8649717781        0.8649717781        0.8649717781
Li            0.4113824897        0.4113824897        0.4113824897
Li            0.5886175103        0.5886175103        0.5886175103



     Writing config-only to output data dir ./output/SiLi.save/
     NEW-OLD atomic charge density approx. for the potential
     extrapolated charge   16.29888, renormalised to   16.00000

     total cpu time spent up to now is       58.4 secs

     Self-consistent Calculation

     iteration #  1     ecut=   100.00 Ry     beta= 0.70
     Davidson diagonalization with overlap
     ethr =  1.00E-06,  avg # of iterations =  8.3

     total cpu time spent up to now is       61.5 secs

     total energy              =     -65.75171229 Ry
     estimated scf accuracy    <       0.01689142 Ry

     iteration #  2     ecut=   100.00 Ry     beta= 0.70
     Davidson diagonalization with overlap
     ethr =  1.06E-04,  avg # of iterations =  4.2

     total cpu time spent up to now is       63.3 secs

     total energy              =     -65.74972881 Ry
     estimated scf accuracy    <       0.25582254 Ry

     iteration #  3     ecut=   100.00 Ry     beta= 0.70
     Davidson diagonalization with overlap
     ethr =  1.06E-04,  avg # of iterations =  3.3

     total cpu time spent up to now is       64.8 secs

     total energy              =     -65.76619870 Ry
     estimated scf accuracy    <       0.01361662 Ry

     iteration #  4     ecut=   100.00 Ry     beta= 0.70
     Davidson diagonalization with overlap
     ethr =  8.51E-05,  avg # of iterations =  1.1

     total cpu time spent up to now is       66.0 secs

     total energy              =     -65.76696440 Ry
     estimated scf accuracy    <       0.00065680 Ry

     iteration #  5     ecut=   100.00 Ry     beta= 0.70
     Davidson diagonalization with overlap
     ethr =  4.10E-06,  avg # of iterations =  4.3

     total cpu time spent up to now is       67.4 secs

     total energy              =     -65.76686160 Ry
     estimated scf accuracy    <       0.00073549 Ry

     iteration #  6     ecut=   100.00 Ry     beta= 0.70
     Davidson diagonalization with overlap
     ethr =  4.10E-06,  avg # of iterations =  1.1

     total cpu time spent up to now is       68.6 secs

     total energy              =     -65.76690905 Ry
     estimated scf accuracy    <       0.00001064 Ry

     iteration #  7     ecut=   100.00 Ry     beta= 0.70
     Davidson diagonalization with overlap
     ethr =  6.65E-08,  avg # of iterations =  2.0

     total cpu time spent up to now is       69.9 secs

     total energy              =     -65.76691102 Ry
     estimated scf accuracy    <       0.00000110 Ry

     iteration #  8     ecut=   100.00 Ry     beta= 0.70
     Davidson diagonalization with overlap
     ethr =  6.87E-09,  avg # of iterations =  1.6

     total cpu time spent up to now is       71.1 secs

     total energy              =     -65.76691116 Ry
     estimated scf accuracy    <          6.7E-09 Ry

     iteration #  9     ecut=   100.00 Ry     beta= 0.70
     Davidson diagonalization with overlap
     ethr =  4.16E-11,  avg # of iterations =  3.7

     total cpu time spent up to now is       72.5 secs

     End of self-consistent calculation

          k = 0.0000 0.0000 0.0000 (  4773 PWs)   bands (ev):

   -39.2137 -38.9378 -38.5282 -38.3929  -4.5542   2.6143   3.9402   8.6543
     9.9916  16.3694  16.3694  18.0396

          k =-0.3967-0.2290 0.0528 (  4771 PWs)   bands (ev):

   -39.1567 -38.9064 -38.5390 -38.4273  -3.8976   2.9954   4.2260   8.8273
     9.7819  12.4109  14.0337  15.8934

          k =-0.7934-0.4581 0.1056 (  4760 PWs)   bands (ev):

   -39.0169 -38.8368 -38.5725 -38.5168  -1.9510   3.9680   5.0163   6.0161
     9.3489  10.3976  12.1919  13.1833

          k = 1.1901 0.6871-0.1585 (  4772 PWs)   bands (ev):

   -38.9121 -38.8037 -38.6036 -38.5803   0.8150   1.6954   5.1643   6.5830
     7.3400  10.7618  11.5700  12.1980

          k =-0.3967 0.2290 0.1056 (  4786 PWs)   bands (ev):

   -39.1566 -38.9066 -38.5388 -38.4275  -3.8978   2.9675   4.3115   8.3138
    10.4941  12.1294  13.9976  15.9246

          k =-0.7934 0.0000 0.1585 (  4767 PWs)   bands (ev):

   -39.0571 -38.8551 -38.5612 -38.4912  -2.5948   3.6829   4.9829   7.9120
     8.8339   9.8312  12.2267  13.5813

          k = 1.1901 1.1452-0.1056 (  4761 PWs)   bands (ev):

   -38.9160 -38.7999 -38.6016 -38.5822  -0.0473   3.7048   5.3883   6.0092
     7.5551   8.9903   9.9220  12.2915

          k = 0.7934 0.9162-0.0528 (  4773 PWs)   bands (ev):

   -38.9160 -38.7999 -38.6014 -38.5824  -0.0446   3.6940   5.3177   6.1393
     7.4987   8.6433  10.8215  11.8516

          k = 0.3967 0.6871 0.0000 (  4766 PWs)   bands (ev):

   -39.0572 -38.8549 -38.5616 -38.4910  -2.5939   3.7386   4.8049   8.1876
     8.7923  10.2529  11.4227  13.5743

          k =-0.7934 0.4581 0.2113 (  4768 PWs)   bands (ev):

   -39.0167 -38.8373 -38.5716 -38.5175  -1.9529   3.8106   5.5232   5.9938
     8.0824  11.9197  12.1121  12.8598

          k = 1.1901 1.6033-0.0528 (  4761 PWs)   bands (ev):

   -38.9159 -38.8001 -38.6009 -38.5828  -0.0503   3.6660   5.2817   6.6290
     7.5752   7.9091  10.3932  12.6494

          k = 0.7934 1.3743 0.0000 (  4772 PWs)   bands (ev):

   -38.8135 -38.8135 -38.6258 -38.6253   2.4679   3.5310   3.5329   6.4862
     7.5946   8.0096   8.0155  13.0073

          k = 1.1901-0.6871-0.3169 (  4780 PWs)   bands (ev):

   -38.9121 -38.8036 -38.6042 -38.5798   0.7955   1.6986   5.4706   5.9718
     8.5340   9.1437  11.4709  12.2406

          k = 0.0000-0.0000 0.1585 (  4769 PWs)   bands (ev):

   -39.2135 -38.9383 -38.5275 -38.3933  -4.5546   2.5717   4.0999   7.8673
    10.9700  16.3671  16.3671  18.0153

          k =-0.3967-0.2290 0.2113 (  4774 PWs)   bands (ev):

   -39.1564 -38.9070 -38.5382 -38.4278  -3.8984   2.9301   4.4731   7.8092
    10.5944  13.0246  14.0397  15.8568

          k = 1.5869 0.9162-0.0528 (  4760 PWs)   bands (ev):

   -39.0168 -38.8370 -38.5722 -38.5170  -1.9530   3.9239   5.2018   6.0206
     8.6300  10.8909  12.1827  13.3242

          k = 1.1901 0.6871 0.0000 (  4775 PWs)   bands (ev):

   -38.9121 -38.8037 -38.6037 -38.5802   0.8100   1.6963   5.2203   6.4066
     7.5919  10.3919  11.5435  12.2036

          k = 0.7934 0.4581 0.0528 (  4763 PWs)   bands (ev):

   -39.0169 -38.8369 -38.5722 -38.5170  -1.9509   3.8976   5.1645   6.0085
     8.8782  11.0786  12.1549  12.9354

          k =-0.3967 0.2290 0.2641 (  4782 PWs)   bands (ev):

   -39.1563 -38.9073 -38.5377 -38.4281  -3.8988   2.8862   4.6717   7.3198
    11.4898  12.3589  13.9689  16.0807

          k = 1.5869 1.3743 0.0000 (  4753 PWs)   bands (ev):

   -39.0569 -38.8556 -38.5604 -38.4918  -2.5966   3.5969   5.3990   7.2949
     8.8868   9.4964  13.4866  13.6402

          k = 1.1901 1.1452 0.0528 (  4751 PWs)   bands (ev):

   -38.9160 -38.7999 -38.6014 -38.5823  -0.0516   3.6956   5.3847   6.1525
     7.6217   8.8140   9.5356  12.6520

          k = 0.7934 0.9162 0.1056 (  4763 PWs)   bands (ev):

   -38.9160 -38.8000 -38.6011 -38.5827  -0.0461   3.6744   5.2728   6.4247
     7.4651   8.2489  10.8914  12.2032

          k = 1.5869-0.9162-0.2641 (  4761 PWs)   bands (ev):

   -39.0166 -38.8375 -38.5712 -38.5177  -1.9549   3.7858   5.8118   5.9719
     7.5951  12.0353  12.1041  12.9757

          k = 1.1901-1.1452-0.2113 (  4759 PWs)   bands (ev):

   -38.9159 -38.8000 -38.6011 -38.5826  -0.0530   3.6764   5.3279   6.4591
     7.7151   8.0766   9.9094  12.7043

          k = 0.7934-1.3743-0.1585 (  4768 PWs)   bands (ev):

   -38.8135 -38.8135 -38.6258 -38.6253   2.4679   3.5309   3.5331   6.4862
     7.5948   8.0020   8.0228  12.9988

          k = 1.1901-0.6871-0.1585 (  4774 PWs)   bands (ev):

   -38.9121 -38.8036 -38.6040 -38.5800   0.8003   1.6979   5.3633   6.1263
     8.1005   9.6697  11.4941  12.2264

          k = 0.0000-0.0000 0.3169 (  4778 PWs)   bands (ev):

   -39.2131 -38.9391 -38.5263 -38.3941  -4.5555   2.5012   4.4765   6.9074
    12.5004  16.3628  16.3628  16.8016

          k = 1.9836 1.1452 0.0528 (  4773 PWs)   bands (ev):

   -39.1562 -38.9076 -38.5372 -38.4285  -3.8994   2.8574   4.8913   6.9129
    11.1718  13.9935  14.0089  15.4014

          k = 1.5869 0.9162 0.1056 (  4745 PWs)   bands (ev):

   -39.0167 -38.8373 -38.5715 -38.5175  -1.9550   3.8336   5.5854   6.0162
     7.8534  11.5491  12.1378  13.1754

          k = 1.9836-1.1452-0.2113 (  4784 PWs)   bands (ev):

   -39.1561 -38.9078 -38.5369 -38.4286  -3.8997   2.8392   5.0396   6.6709
    11.4644  13.6007  13.9743  15.8873

          k = 1.5869-1.3743-0.1585 (  4756 PWs)   bands (ev):

   -39.0568 -38.8558 -38.5601 -38.4920  -2.5975   3.5619   5.7059   6.8900
     8.9073   9.4042  13.5931  14.2629

          k = 0.0000 0.0000-0.4754 (  4760 PWs)   bands (ev):

   -39.2129 -38.9395 -38.5256 -38.3944  -4.5559   2.4710   4.7351   6.4511
    13.5881  15.6055  16.3606  16.3606

     the Fermi energy is     7.5561 ev

!    total energy              =     -65.76691117 Ry
     estimated scf accuracy    <          1.2E-10 Ry
     smearing contrib. (-TS)   =      -0.00244911 Ry
     internal energy E=F+TS    =     -65.76446205 Ry

     The total energy is F=E-TS. E is the sum of the following terms:
     one-electron contribution =     -23.28310245 Ry
     hartree contribution      =      11.96863301 Ry
     xc contribution           =     -17.21589315 Ry
     ewald contribution        =     -37.23409945 Ry

     convergence has been achieved in   9 iterations

     Forces acting on atoms (cartesian axes, Ry/au):

     atom    1 type  1   force =     0.00000000    0.00000000    0.00000000
     atom    2 type  2   force =    -0.00000000   -0.00000000    0.00700652
     atom    3 type  2   force =    -0.00000000   -0.00000000   -0.00700652
     atom    4 type  2   force =     0.00000000    0.00000000   -0.01529385
     atom    5 type  2   force =     0.00000000    0.00000000    0.01529385
     The non-local contrib.  to forces
     atom    1 type  1   force =     0.00000000    0.00000000    0.00000000
     atom    2 type  2   force =    -0.00000000   -0.00000000   -0.04009861
     atom    3 type  2   force =     0.00000000    0.00000000    0.04009861
     atom    4 type  2   force =     0.00000000    0.00000000    0.04241638
     atom    5 type  2   force =    -0.00000000    0.00000000   -0.04241638
     The ionic contribution  to forces
     atom    1 type  1   force =     0.00000000   -0.00000000   -0.00000000
     atom    2 type  2   force =     0.00000000    0.00000000   -0.04065848
     atom    3 type  2   force =     0.00000000   -0.00000000    0.04065848
     atom    4 type  2   force =     0.00000000   -0.00000000   -0.48231051
     atom    5 type  2   force =     0.00000000    0.00000000    0.48231051
     The local contribution  to forces
     atom    1 type  1   force =    -0.00000000   -0.00000000   -0.00000000
     atom    2 type  2   force =     0.00000000   -0.00000000    0.08777383
     atom    3 type  2   force =    -0.00000000    0.00000000   -0.08777383
     atom    4 type  2   force =    -0.00000000    0.00000000    0.42461516
     atom    5 type  2   force =    -0.00000000   -0.00000000   -0.42461516
     The core correction contribution to forces
     atom    1 type  1   force =    -0.00000000   -0.00000000   -0.00000000
     atom    2 type  2   force =     0.00000000    0.00000000    0.00000000
     atom    3 type  2   force =     0.00000000    0.00000000    0.00000000
     atom    4 type  2   force =     0.00000000    0.00000000    0.00000000
     atom    5 type  2   force =     0.00000000    0.00000000    0.00000000
     The Hubbard contrib.    to forces
     atom    1 type  1   force =     0.00000000    0.00000000    0.00000000
     atom    2 type  2   force =     0.00000000    0.00000000    0.00000000
     atom    3 type  2   force =     0.00000000    0.00000000    0.00000000
     atom    4 type  2   force =     0.00000000    0.00000000    0.00000000
     atom    5 type  2   force =     0.00000000    0.00000000    0.00000000
     The SCF correction term to forces
     atom    1 type  1   force =    -0.00000000    0.00000000    0.00000000
     atom    2 type  2   force =    -0.00000000   -0.00000000   -0.00001022
     atom    3 type  2   force =     0.00000000    0.00000000    0.00001022
     atom    4 type  2   force =    -0.00000000    0.00000000   -0.00001489
     atom    5 type  2   force =    -0.00000000   -0.00000000    0.00001489

     Total force =     0.023790     Total SCF correction =     0.000026


     Computing stress (Cartesian axis) and pressure

          total   stress  (Ry/bohr**3)                   (kbar)     P=      443.72
   0.00276164  -0.00000000   0.00000000          406.25       -0.00        0.00
  -0.00000000   0.00276164   0.00000000           -0.00      406.25        0.00
   0.00000000   0.00000000   0.00352572            0.00        0.00      518.65

     Energy error            =      6.4E-03 Ry
     Gradient error          =      1.5E-02 Ry/Bohr
     Cell gradient error     =      9.4E+01 kbar

     number of scf cycles    =   4
     number of bfgs steps    =   3

     enthalpy           old  =     -64.7240080285 Ry
     enthalpy           new  =     -64.7304121733 Ry

     CASE: enthalpy          _new < enthalpy          _old

     new trust radius        =       0.1759104534 bohr
ibrav =      5
 celldm(1) =     13.99238964
 celldm(4) =      0.93277291
Input lattice vectors:
     0.20723836    -0.11964912     1.10472968
     0.00000000     0.23929824     1.10472968
    -0.20723836    -0.11964912     1.10472968
New lattice vectors in INITIAL alat:
     0.20723836    -0.11964912     1.10472968
     0.00000000     0.23929824     1.10472968
    -0.20723836    -0.11964912     1.10472968
New lattice vectors in NEW alat (for information only):
     0.18333998    -0.10585138     0.97733410
     0.00000000     0.21170277     0.97733410
    -0.18333998    -0.10585138     0.97733410
Discrepancy in bohr =     0.000000    0.000000    0.000000
     new conv_thr            =       0.0000000031 Ry

     new unit-cell volume =    311.76236 a.u.^3 (    46.19842 Ang^3 )
     density =      2.00743 g/cm^3

CELL_PARAMETERS (alat= 12.37881065)
   0.207238357  -0.119649121   1.104729678
   0.000000000   0.239298242   1.104729678
  -0.207238357  -0.119649121   1.104729678

ATOMIC_POSITIONS (crystal)
Si           -0.0000000000        0.0000000000       -0.0000000000
Li            0.1357618455        0.1357618455        0.1357618455
Li            0.8642381545        0.8642381545        0.8642381545
Li            0.4093278184        0.4093278184        0.4093278184
Li            0.5906721816        0.5906721816        0.5906721816



     Writing config-only to output data dir ./output/SiLi.save/
     NEW-OLD atomic charge density approx. for the potential
     extrapolated charge   16.34928, renormalised to   16.00000

     total cpu time spent up to now is       74.3 secs

     Self-consistent Calculation

     iteration #  1     ecut=   100.00 Ry     beta= 0.70
     Davidson diagonalization with overlap
     ethr =  1.00E-06,  avg # of iterations =  8.8

     total cpu time spent up to now is       77.6 secs

     total energy              =     -65.78274684 Ry
     estimated scf accuracy    <       0.02027179 Ry

     iteration #  2     ecut=   100.00 Ry     beta= 0.70
     Davidson diagonalization with overlap
     ethr =  1.27E-04,  avg # of iterations =  4.6

     total cpu time spent up to now is       79.4 secs

     total energy              =     -65.77507290 Ry
     estimated scf accuracy    <       0.30288519 Ry

     iteration #  3     ecut=   100.00 Ry     beta= 0.70
     Davidson diagonalization with overlap
     ethr =  1.27E-04,  avg # of iterations =  3.6

     total cpu time spent up to now is       80.9 secs

     total energy              =     -65.80043045 Ry
     estimated scf accuracy    <       0.00883831 Ry

     iteration #  4     ecut=   100.00 Ry     beta= 0.70
     Davidson diagonalization with overlap
     ethr =  5.52E-05,  avg # of iterations =  1.3

     total cpu time spent up to now is       82.1 secs

     total energy              =     -65.80054236 Ry
     estimated scf accuracy    <       0.00140271 Ry

     iteration #  5     ecut=   100.00 Ry     beta= 0.70
     Davidson diagonalization with overlap
     ethr =  8.77E-06,  avg # of iterations =  3.8

     total cpu time spent up to now is       83.5 secs

     total energy              =     -65.80060139 Ry
     estimated scf accuracy    <       0.00010427 Ry

     iteration #  6     ecut=   100.00 Ry     beta= 0.70
     Davidson diagonalization with overlap
     ethr =  6.52E-07,  avg # of iterations =  2.9

     total cpu time spent up to now is       84.8 secs

     total energy              =     -65.80061483 Ry
     estimated scf accuracy    <       0.00000014 Ry

     iteration #  7     ecut=   100.00 Ry     beta= 0.70
     Davidson diagonalization with overlap
     ethr =  8.86E-10,  avg # of iterations =  3.9

     total cpu time spent up to now is       86.4 secs

     total energy              =     -65.80061490 Ry
     estimated scf accuracy    <       0.00000053 Ry

     iteration #  8     ecut=   100.00 Ry     beta= 0.70
     Davidson diagonalization with overlap
     ethr =  8.86E-10,  avg # of iterations =  1.8

     total cpu time spent up to now is       87.7 secs

     total energy              =     -65.80061497 Ry
     estimated scf accuracy    <       0.00000007 Ry

     iteration #  9     ecut=   100.00 Ry     beta= 0.70
     Davidson diagonalization with overlap
     ethr =  4.37E-10,  avg # of iterations =  1.4

     total cpu time spent up to now is       88.9 secs

     total energy              =     -65.80061498 Ry
     estimated scf accuracy    <       0.00000003 Ry

     iteration # 10     ecut=   100.00 Ry     beta= 0.70
     Davidson diagonalization with overlap
     ethr =  1.85E-10,  avg # of iterations =  1.0

     total cpu time spent up to now is       90.1 secs

     End of self-consistent calculation

          k = 0.0000 0.0000 0.0000 (  4773 PWs)   bands (ev):

   -39.2430 -38.9655 -38.6470 -38.5218  -5.0175   2.2925   3.7042   7.5986
     9.2038  16.7027  16.7027  17.7983

          k =-0.4021-0.2322 0.0503 (  4771 PWs)   bands (ev):

   -39.1906 -38.9382 -38.6500 -38.5481  -4.3362   2.7064   4.0072   7.8865
     9.2327  12.1794  14.2274  16.0146

          k =-0.8042-0.4643 0.1006 (  4760 PWs)   bands (ev):

   -39.0640 -38.8810 -38.6641 -38.6166  -2.3140   3.7900   4.8452   5.8673
     8.7625  10.0324  12.3368  12.7266

          k = 1.2063 0.6965-0.1509 (  4772 PWs)   bands (ev):

   -38.9718 -38.8592 -38.6803 -38.6639   0.6586   1.3388   5.0589   6.4634
     7.2676  10.1396  11.7002  11.8299

          k =-0.4021 0.2322 0.1006 (  4786 PWs)   bands (ev):

   -39.1906 -38.9383 -38.6498 -38.5482  -4.3363   2.6860   4.0788   7.5326
     9.7193  11.9639  14.2084  16.2111

          k =-0.8042 0.0000 0.1509 (  4767 PWs)   bands (ev):

   -39.1001 -38.8954 -38.6586 -38.5971  -2.9834   3.4714   4.7809   7.5763
     8.6198   9.5745  11.5670  13.5795

          k = 1.2063 1.1608-0.1006 (  4761 PWs)   bands (ev):

   -38.9745 -38.8568 -38.6792 -38.6647  -0.3276   3.5289   5.2427   5.9462
     7.4562   8.8932   9.6300  12.0888

          k = 0.8042 0.9286-0.0503 (  4773 PWs)   bands (ev):

   -38.9745 -38.8568 -38.6791 -38.6648  -0.3261   3.5228   5.1767   6.0552
     7.4420   8.5153  10.5818  11.4917

          k = 0.4021 0.6965 0.0000 (  4766 PWs)   bands (ev):

   -39.1001 -38.8952 -38.6590 -38.5968  -2.9829   3.5149   4.6257   8.1002
     8.3376   9.7879  10.9673  13.6062

          k =-0.8042 0.4643 0.2012 (  4768 PWs)   bands (ev):

   -39.0639 -38.8813 -38.6633 -38.6173  -2.3150   3.6614   5.2892   5.8100
     7.7464  11.1942  12.2937  12.6243

          k = 1.2063 1.6251-0.0503 (  4761 PWs)   bands (ev):

   -38.9745 -38.8569 -38.6786 -38.6652  -0.3293   3.5021   5.1444   6.5088
     7.5382   7.6835  10.3127  12.1729

          k = 0.8042 1.3930 0.0000 (  4772 PWs)   bands (ev):

   -38.8825 -38.8825 -38.6925 -38.6923   2.4453   3.2573   3.2588   6.4349
     7.5827   7.9938   8.0017  12.5082

          k = 1.2063-0.6965-0.3017 (  4780 PWs)   bands (ev):

   -38.9718 -38.8591 -38.6808 -38.6635   0.6456   1.3409   5.3330   5.9025
     8.3469   8.7894  11.6460  11.8355

          k = 0.0000-0.0000 0.1509 (  4769 PWs)   bands (ev):

   -39.2429 -38.9658 -38.6464 -38.5222  -5.0177   2.2617   3.8403   7.0106
     9.9444  16.7014  16.7014  16.9407

          k =-0.4021-0.2322 0.2012 (  4774 PWs)   bands (ev):

   -39.1905 -38.9386 -38.6493 -38.5485  -4.3365   2.6572   4.2215   7.0708
    10.0836  12.4769  14.2304  15.5014

          k = 1.6085 0.9286-0.0503 (  4760 PWs)   bands (ev):

   -39.0640 -38.8812 -38.6638 -38.6169  -2.3151   3.7514   5.0151   5.8740
     8.0490  10.7350  12.3320  12.9045

          k = 1.2063 0.6965 0.0000 (  4775 PWs)   bands (ev):

   -38.9718 -38.8592 -38.6804 -38.6638   0.6553   1.3394   5.1106   6.3048
     7.4872   9.8530  11.6861  11.8309

          k = 0.8042 0.4643 0.0503 (  4763 PWs)   bands (ev):

   -39.0640 -38.8811 -38.6639 -38.6168  -2.3140   3.7354   4.9663   5.8488
     8.5097  10.3407  12.3172  12.6093

          k =-0.4021 0.2322 0.2514 (  4782 PWs)   bands (ev):

   -39.1904 -38.9389 -38.6488 -38.5488  -4.3368   2.6233   4.3945   6.6662
    10.9488  11.7661  14.1928  16.1392

          k = 1.6085 1.3930 0.0000 (  4753 PWs)   bands (ev):

   -39.1000 -38.8957 -38.6579 -38.5976  -2.9843   3.4010   5.1571   6.8636
     8.8190   9.3543  12.6845  13.6121

          k = 1.2063 1.1608 0.0503 (  4751 PWs)   bands (ev):

   -38.9745 -38.8569 -38.6791 -38.6648  -0.3300   3.5213   5.2448   6.0818
     7.4783   8.5934   9.4443  12.4103

          k = 0.8042 0.9286 0.1006 (  4763 PWs)   bands (ev):

   -38.9745 -38.8569 -38.6787 -38.6651  -0.3269   3.5093   5.1343   6.3065
     7.4485   8.0594  10.8712  11.5892

          k = 1.6085-0.9286-0.2514 (  4761 PWs)   bands (ev):

   -39.0639 -38.8815 -38.6630 -38.6175  -2.3161   3.6375   5.5932   5.7416
     7.2499  11.6588  12.2892  12.7463

          k = 1.2063-1.1608-0.2012 (  4759 PWs)   bands (ev):

   -38.9745 -38.8569 -38.6787 -38.6651  -0.3308   3.5080   5.1918   6.3724
     7.5192   7.9328   9.8314  12.3470

          k = 0.8042-1.3930-0.1509 (  4768 PWs)   bands (ev):

   -38.8825 -38.8825 -38.6925 -38.6923   2.4453   3.2572   3.2589   6.4349
     7.5831   7.9855   8.0097  12.4613

          k = 1.2063-0.6965-0.1509 (  4774 PWs)   bands (ev):

   -38.9718 -38.8591 -38.6807 -38.6636   0.6488   1.3404   5.2403   6.0429
     7.9419   9.2588  11.6591  11.8338

          k = 0.0000-0.0000 0.3017 (  4778 PWs)   bands (ev):

   -39.2426 -38.9666 -38.6452 -38.5228  -5.0181   2.2082   4.1724   6.1963
    11.1841  15.4457  16.6989  16.6989

          k = 2.0106 1.1608 0.0503 (  4773 PWs)   bands (ev):

   -39.1903 -38.9392 -38.6483 -38.5491  -4.3370   2.6000   4.5974   6.2852
    10.9300  12.8200  14.2141  14.7417

          k = 1.6085 0.9286 0.1006 (  4745 PWs)   bands (ev):

   -39.0639 -38.8814 -38.6632 -38.6173  -2.3161   3.6762   5.3632   5.8488
     7.3974  11.4012  12.3079  12.9064

          k = 2.0106-1.1608-0.2012 (  4784 PWs)   bands (ev):

   -39.1902 -38.9393 -38.6481 -38.5492  -4.3371   2.5854   4.7336   6.0720
    11.4233  12.2695  14.1956  15.0863

          k = 1.6085-1.3930-0.1509 (  4756 PWs)   bands (ev):

   -39.0999 -38.8959 -38.6575 -38.5978  -2.9847   3.3715   5.4498   6.4472
     8.8936   9.2709  13.2236  14.1565

          k =-0.0000 0.0000-0.4526 (  4760 PWs)   bands (ev):

   -39.2425 -38.9670 -38.6446 -38.5232  -5.0182   2.1846   4.4107   5.7892
    11.9692  14.5520  16.6977  16.6977

     the Fermi energy is     7.3954 ev

!    total energy              =     -65.80061498 Ry
     estimated scf accuracy    <          1.3E-09 Ry
     smearing contrib. (-TS)   =      -0.00245960 Ry
     internal energy E=F+TS    =     -65.79815538 Ry

     The total energy is F=E-TS. E is the sum of the following terms:
     one-electron contribution =     -23.46887040 Ry
     hartree contribution      =      11.95592599 Ry
     xc contribution           =     -17.19099428 Ry
     ewald contribution        =     -37.09421669 Ry

     convergence has been achieved in  10 iterations

     Forces acting on atoms (cartesian axes, Ry/au):

     atom    1 type  1   force =     0.00000000   -0.00000000    0.00000000
     atom    2 type  2   force =     0.00000000    0.00000000    0.00615867
     atom    3 type  2   force =     0.00000000    0.00000000   -0.00615867
     atom    4 type  2   force =    -0.00000000    0.00000000   -0.00801093
     atom    5 type  2   force =     0.00000000   -0.00000000    0.00801093
     The non-local contrib.  to forces
     atom    1 type  1   force =     0.00000000    0.00000000    0.00000000
     atom    2 type  2   force =    -0.00000000   -0.00000000   -0.02621069
     atom    3 type  2   force =     0.00000000   -0.00000000    0.02621069
     atom    4 type  2   force =     0.00000000   -0.00000000    0.03544741
     atom    5 type  2   force =    -0.00000000    0.00000000   -0.03544741
     The ionic contribution  to forces
     atom    1 type  1   force =    -0.00000000   -0.00000000   -0.00000000
     atom    2 type  2   force =     0.00000000    0.00000000   -0.06866882
     atom    3 type  2   force =    -0.00000000    0.00000000    0.06866882
     atom    4 type  2   force =    -0.00000000   -0.00000000   -0.29689265
     atom    5 type  2   force =    -0.00000000    0.00000000    0.29689265
     The local contribution  to forces
     atom    1 type  1   force =     0.00000000    0.00000000    0.00000000
     atom    2 type  2   force =     0.00000000   -0.00000000    0.10102065
     atom    3 type  2   force =     0.00000000   -0.00000000   -0.10102065
     atom    4 type  2   force =     0.00000000    0.00000000    0.25338606
     atom    5 type  2   force =     0.00000000   -0.00000000   -0.25338606
     The core correction contribution to forces
     atom    1 type  1   force =     0.00000000    0.00000000   -0.00000000
     atom    2 type  2   force =     0.00000000    0.00000000    0.00000000
     atom    3 type  2   force =     0.00000000    0.00000000    0.00000000
     atom    4 type  2   force =     0.00000000    0.00000000    0.00000000
     atom    5 type  2   force =     0.00000000    0.00000000    0.00000000
     The Hubbard contrib.    to forces
     atom    1 type  1   force =     0.00000000    0.00000000    0.00000000
     atom    2 type  2   force =     0.00000000    0.00000000    0.00000000
     atom    3 type  2   force =     0.00000000    0.00000000    0.00000000
     atom    4 type  2   force =     0.00000000    0.00000000    0.00000000
[...]
               b(1) = (  2.691536 -1.553959  0.255154 )  
               b(2) = ( -0.000000  3.107918  0.255154 )  
               b(3) = ( -2.691536 -1.553959  0.255154 )  


     PseudoPot. # 1 for Si read from file:
     ../pseudo/Si_ONCV_PBE_sr.upf
     MD5 check sum: e543d271109d17c80368dfa7c482276d
     Pseudo is Norm-conserving + core correction, Zval =  4.0
     Generated using ONCVPSP code by D. R. Hamann
     Using radial grid of 1510 points,  6 beta functions with: 
                l(1) =   0
                l(2) =   0
                l(3) =   1
                l(4) =   1
                l(5) =   2
                l(6) =   2

     PseudoPot. # 2 for Li read from file:
     ../pseudo/Li_ONCV_PBE_sr.upf
     MD5 check sum: 50ff420e78310ffa21704f3361e624a4
     Pseudo is Norm-conserving, Zval =  3.0
     Generated using ONCVPSP code by D. R. Hamann
     Using radial grid of 1944 points,  4 beta functions with: 
                l(1) =   0
                l(2) =   0
                l(3) =   1
                l(4) =   1

     atomic species   valence    mass     pseudopotential
        Si             4.00    28.08550     Si( 1.00)
        Li             3.00     6.94100     Li( 1.00)

     12 Sym. Ops., with inversion, found



   Cartesian axes

     site n.     atom                  positions (alat units)
         1           Si  tau(   1) = (  -0.0000000  -0.0000000   0.0000000  )
         2           Li  tau(   2) = (  -0.0000000  -0.0000000   0.5384517  )
         3           Li  tau(   3) = (  -0.0000000  -0.0000000   3.3807533  )
         4           Li  tau(   4) = (   0.0000000  -0.0000000   1.5883300  )
         5           Li  tau(   5) = (  -0.0000000  -0.0000000   2.3308750  )

     number of k points=    32  Marzari-Vanderbilt smearing, width (Ry)=  0.0200
                       cart. coord. in units 2pi/alat
        k(    1) = (   0.0000000   0.0000000   0.0000000), wk =   0.0092593
        k(    2) = (  -0.4485893  -0.2589932   0.0425256), wk =   0.0555556
        k(    3) = (  -0.8971786  -0.5179863   0.0850513), wk =   0.0555556
        k(    4) = (   1.3457679   0.7769795  -0.1275769), wk =   0.0277778
        k(    5) = (  -0.4485893   0.2589932   0.0850513), wk =   0.0555556
        k(    6) = (  -0.8971786   0.0000000   0.1275769), wk =   0.1111111
        k(    7) = (   1.3457679   1.2949658  -0.0850513), wk =   0.1111111
        k(    8) = (   0.8971786   1.0359726  -0.0425256), wk =   0.1111111
        k(    9) = (   0.4485893   0.7769795   0.0000000), wk =   0.0555556
        k(   10) = (  -0.8971786   0.5179863   0.1701025), wk =   0.0555556
        k(   11) = (   1.3457679   1.8129521  -0.0425256), wk =   0.1111111
        k(   12) = (   0.8971786   1.5539589   0.0000000), wk =   0.0555556
        k(   13) = (   1.3457679  -0.7769795  -0.2551538), wk =   0.0277778
        k(   14) = (  -0.0000000   0.0000000   0.1275769), wk =   0.0185185
        k(   15) = (  -0.4485893  -0.2589932   0.1701025), wk =   0.0555556
        k(   16) = (   1.7943572   1.0359726  -0.0425256), wk =   0.0555556
        k(   17) = (   1.3457679   0.7769795   0.0000000), wk =   0.0555556
        k(   18) = (   0.8971786   0.5179863   0.0425256), wk =   0.0555556
        k(   19) = (  -0.4485893   0.2589932   0.2126282), wk =   0.0555556
        k(   20) = (   1.7943572   1.5539589   0.0000000), wk =   0.1111111
        k(   21) = (   1.3457679   1.2949658   0.0425256), wk =   0.1111111
        k(   22) = (   0.8971786   1.0359726   0.0850513), wk =   0.1111111
        k(   23) = (   1.7943572  -1.0359726  -0.2126282), wk =   0.0555556
        k(   24) = (   1.3457679  -1.2949658  -0.1701025), wk =   0.1111111
        k(   25) = (   0.8971786  -1.5539589  -0.1275769), wk =   0.0555556
        k(   26) = (   1.3457679  -0.7769795  -0.1275769), wk =   0.0555556
        k(   27) = (  -0.0000000   0.0000000   0.2551538), wk =   0.0185185
        k(   28) = (   2.2429465   1.2949658   0.0425256), wk =   0.0555556
        k(   29) = (   1.7943572   1.0359726   0.0850513), wk =   0.0555556
        k(   30) = (   2.2429465  -1.2949658  -0.1701025), wk =   0.0555556
        k(   31) = (   1.7943572  -1.5539589  -0.1275769), wk =   0.0555556
        k(   32) = (   0.0000000   0.0000000  -0.3827307), wk =   0.0092593

     Dense  grid:    40105 G-vectors     FFT dimensions: ( 108, 108, 108)

     Estimated max dynamical RAM per process >      31.11 MB

     Estimated total dynamical RAM >     248.90 MB

     Initial potential from superposition of free atoms

     starting charge      15.9811, renormalised to      16.0000
     Starting wfcs are   12 randomized atomic wfcs

     total cpu time spent up to now is      250.9 secs

     Self-consistent Calculation

     iteration #  1     ecut=   100.00 Ry     beta= 0.70
     Davidson diagonalization with overlap
     c_bands:  1 eigenvalues not converged
     c_bands:  1 eigenvalues not converged
     c_bands:  1 eigenvalues not converged
     c_bands:  1 eigenvalues not converged
     c_bands:  1 eigenvalues not converged
     c_bands:  1 eigenvalues not converged
     c_bands:  1 eigenvalues not converged
     c_bands:  1 eigenvalues not converged
     c_bands:  1 eigenvalues not converged
     c_bands:  1 eigenvalues not converged
     ethr =  1.00E-06,  avg # of iterations = 17.6

     total cpu time spent up to now is      261.4 secs

     total energy              =     -65.39711264 Ry
     estimated scf accuracy    <       0.55847069 Ry

     iteration #  2     ecut=   100.00 Ry     beta= 0.70
     Davidson diagonalization with overlap
     ethr =  3.49E-03,  avg # of iterations =  5.2

     total cpu time spent up to now is      265.6 secs

     total energy              =     -64.86100660 Ry
     estimated scf accuracy    <      12.25101841 Ry

     iteration #  3     ecut=   100.00 Ry     beta= 0.70
     Davidson diagonalization with overlap
     ethr =  3.49E-03,  avg # of iterations =  3.6

     total cpu time spent up to now is      269.2 secs

     total energy              =     -65.80178783 Ry
     estimated scf accuracy    <       0.01495419 Ry

     iteration #  4     ecut=   100.00 Ry     beta= 0.70
     Davidson diagonalization with overlap
     ethr =  9.35E-05,  avg # of iterations =  3.9

     total cpu time spent up to now is      272.6 secs

     total energy              =     -65.80461785 Ry
     estimated scf accuracy    <       0.00268668 Ry

     iteration #  5     ecut=   100.00 Ry     beta= 0.70
     Davidson diagonalization with overlap
     ethr =  1.68E-05,  avg # of iterations =  1.8

     total cpu time spent up to now is      275.6 secs

     total energy              =     -65.80488034 Ry
     estimated scf accuracy    <       0.00002463 Ry

     iteration #  6     ecut=   100.00 Ry     beta= 0.70
     Davidson diagonalization with overlap
     ethr =  1.54E-07,  avg # of iterations =  2.8

     total cpu time spent up to now is      278.9 secs

     total energy              =     -65.80488712 Ry
     estimated scf accuracy    <       0.00000146 Ry

     iteration #  7     ecut=   100.00 Ry     beta= 0.70
     Davidson diagonalization with overlap
     ethr =  9.13E-09,  avg # of iterations =  2.0

     total cpu time spent up to now is      281.9 secs

     total energy              =     -65.80488734 Ry
     estimated scf accuracy    <       0.00000002 Ry

     iteration #  8     ecut=   100.00 Ry     beta= 0.70
     Davidson diagonalization with overlap
     ethr =  1.27E-10,  avg # of iterations =  3.2

     total cpu time spent up to now is      285.2 secs

     total energy              =     -65.80488735 Ry
     estimated scf accuracy    <          3.7E-10 Ry

     iteration #  9     ecut=   100.00 Ry     beta= 0.70
     Davidson diagonalization with overlap
     ethr =  2.32E-12,  avg # of iterations =  2.5

     total cpu time spent up to now is      288.5 secs

     End of self-consistent calculation

          k = 0.0000 0.0000 0.0000 (  5025 PWs)   bands (ev):

   -38.3475 -38.2240 -38.0817 -37.7793  -6.4751   1.5627   4.0659   5.6335
     7.5205  12.7371  17.7367  21.5546

          k =-0.4486-0.2590 0.0425 (  5014 PWs)   bands (ev):

   -38.2812 -38.1811 -38.0507 -37.7765  -5.6041   2.2096   4.4319   6.1730
     7.9650  12.9935  14.8922  17.3081

          k =-0.8972-0.5180 0.0851 (  4992 PWs)   bands (ev):

   -38.1354 -38.0921 -37.9864 -37.7881  -3.0276   4.0257   5.4994   6.8955
     7.8243   9.6952  13.0373  15.2974

          k = 1.3458 0.7770-0.1276 (  4996 PWs)   bands (ev):

   -38.0534 -38.0448 -37.9418 -37.8174   0.7831   1.5559   5.9500   7.4005
     8.0687   9.5845  11.8858  12.8172

          k =-0.4486 0.2590 0.0851 (  5014 PWs)   bands (ev):

   -38.2811 -38.1812 -38.0506 -37.7765  -5.6041   2.2084   4.4582   6.0815
     8.0795  12.8091  15.0847  17.2126

          k =-0.8972 0.0000 0.1276 (  5004 PWs)   bands (ev):

   -38.1742 -38.1151 -38.0032 -37.7817  -3.8796   3.4658   5.2813   7.0036
     8.9001  10.8345  11.8446  14.7464

          k = 1.3458 1.2950-0.0851 (  4998 PWs)   bands (ev):

   -38.0555 -38.0448 -37.9421 -37.8154  -0.5104   4.3516   5.9513   6.9531
     8.6857   9.6654  10.3586  12.5766

          k = 0.8972 1.0360-0.0425 (  4995 PWs)   bands (ev):

   -38.0554 -38.0448 -37.9421 -37.8154  -0.5102   4.3513   5.9148   7.0000
     8.9512   9.2896  10.4347  12.7188

          k = 0.4486 0.7770 0.0000 (  4999 PWs)   bands (ev):

   -38.1743 -38.1149 -38.0033 -37.7816  -3.8796   3.4699   5.2153   7.3029
     8.5233  10.8351  11.9557  15.4077

          k =-0.8972 0.5180 0.1701 (  4985 PWs)   bands (ev):

   -38.1351 -38.0925 -37.9862 -37.7882  -3.0277   3.9953   5.7955   6.4297
     7.9439   9.7985  13.6198  14.6206

          k = 1.3458 1.8130-0.0425 (  5007 PWs)   bands (ev):

   -38.0552 -38.0451 -37.9420 -37.8155  -0.5105   4.3420   5.9132   7.3141
     8.1650   9.3739  11.0237  12.6162

          k = 0.8972 1.5540 0.0000 (  4979 PWs)   bands (ev):

   -38.0190 -38.0190 -37.8739 -37.8739   3.2334   3.2337   4.5811   7.9745
     9.1081   9.3788   9.4025  12.3270

          k = 1.3458-0.7770-0.2552 (  5006 PWs)   bands (ev):

   -38.0535 -38.0446 -37.9419 -37.8174   0.7833   1.5524   6.1597   6.8722
     8.7516   9.1071  11.7926  13.2464

          k =-0.0000 0.0000 0.1276 (  5028 PWs)   bands (ev):

   -38.3474 -38.2243 -38.0814 -37.7793  -6.4751   1.5620   4.1120   5.4784
     7.7245  12.4640  18.2069  21.5544

          k =-0.4486-0.2590 0.1701 (  5017 PWs)   bands (ev):

   -38.2810 -38.1815 -38.0505 -37.7765  -5.6041   2.2079   4.5105   5.8984
     8.3475  12.5201  14.8156  18.1890

          k = 1.7944 1.0360-0.0425 (  4989 PWs)   bands (ev):

   -38.1352 -38.0923 -37.9863 -37.7881  -3.0277   4.0243   5.5632   6.9204
     7.4532  10.4623  12.3451  15.0981

          k = 1.3458 0.7770 0.0000 (  5007 PWs)   bands (ev):

   -38.0535 -38.0447 -37.9418 -37.8174   0.7832   1.5550   5.9914   7.2447
     8.2379   9.5001  11.8568  12.9259

          k = 0.8972 0.5180 0.0425 (  4991 PWs)   bands (ev):

   -38.1353 -38.0922 -37.9863 -37.7881  -3.0276   4.0107   5.5843   6.6977
     8.1244   9.3684  13.5726  15.3728

          k =-0.4486 0.2590 0.2126 (  5013 PWs)   bands (ev):

   -38.2809 -38.1817 -38.0503 -37.7766  -5.6041   2.2054   4.5783   5.7392
     8.5608  12.2057  15.0703  17.9962

          k = 1.7944 1.5540 0.0000 (  5008 PWs)   bands (ev):

   -38.1740 -38.1155 -38.0030 -37.7817  -3.8796   3.4580   5.4549   6.5429
     9.5648  10.8311  11.5160  14.2207

          k = 1.3458 1.2950 0.0425 (  4993 PWs)   bands (ev):

   -38.0554 -38.0449 -37.9420 -37.8154  -0.5105   4.3471   5.9673   7.0557
     8.3451   9.6326  10.7137  12.5704

          k = 0.8972 1.0360 0.0851 (  4998 PWs)   bands (ev):

   -38.0553 -38.0450 -37.9420 -37.8154  -0.5103   4.3465   5.8977   7.1489
     8.6362   9.2271  10.7713  13.0788

          k = 1.7944-1.0360-0.2126 (  4978 PWs)   bands (ev):

   -38.1350 -38.0927 -37.9861 -37.7882  -3.0277   3.9943   5.9815   6.2546
     7.6698  10.5341  12.7075  14.6813

          k = 1.3458-1.2950-0.1701 (  5005 PWs)   bands (ev):

   -38.0553 -38.0450 -37.9420 -37.8155  -0.5106   4.3424   5.9463   7.2671
     8.0745   9.5073  11.0000  12.5990

          k = 0.8972-1.5540-0.1276 (  4980 PWs)   bands (ev):

   -38.0190 -38.0190 -37.8739 -37.8739   3.2334   3.2337   4.5811   7.9745
     9.1088   9.3695   9.4112  12.2767

          k = 1.3458-0.7770-0.1276 (  4998 PWs)   bands (ev):

   -38.0535 -38.0446 -37.9418 -37.8174   0.7833   1.5533   6.0926   6.9954
     8.5424   9.2872  11.8113  13.1388

          k =-0.0000 0.0000 0.2552 (  5062 PWs)   bands (ev):

   -38.3471 -38.2250 -38.0810 -37.7794  -6.4751   1.5606   4.2287   5.1888
     8.1165  11.9459  19.3708  21.5539

          k = 2.2429 1.2950 0.0425 (  5018 PWs)   bands (ev):

   -38.2807 -38.1820 -38.0501 -37.7766  -5.6041   2.2049   4.6555   5.5667
     8.8376  11.8940  14.8785  18.1810

          k = 1.7944 1.0360 0.0851 (  4987 PWs)   bands (ev):

   -38.1351 -38.0926 -37.9861 -37.7882  -3.0277   4.0083   5.7595   6.5866
     7.4726  11.1159  11.8679  14.8972

          k = 2.2429-1.2950-0.1701 (  5014 PWs)   bands (ev):

   -38.2807 -38.1821 -38.0500 -37.7766  -5.6041   2.2037   4.7074   5.4788
     8.9566  11.7363  14.9733  18.1796

          k = 1.7944-1.5540-0.1276 (  5016 PWs)   bands (ev):

   -38.1738 -38.1157 -38.0029 -37.7817  -3.8796   3.4541   5.5906   6.3012
     9.9693  10.8217  11.2390  14.0394

          k = 0.0000 0.0000-0.3827 (  5074 PWs)   bands (ev):

   -38.3470 -38.2253 -38.0807 -37.7794  -6.4751   1.5599   4.3107   5.0347
     8.3190  11.6864  20.7929  21.0254

     the Fermi energy is     7.5397 ev

!    total energy              =     -65.80488735 Ry
     estimated scf accuracy    <          1.6E-11 Ry
     smearing contrib. (-TS)   =       0.00147632 Ry
     internal energy E=F+TS    =     -65.80636367 Ry

     The total energy is F=E-TS. E is the sum of the following terms:
     one-electron contribution =     -22.03313962 Ry
     hartree contribution      =      11.60338714 Ry
     xc contribution           =     -17.31678153 Ry
     ewald contribution        =     -38.05982966 Ry

     convergence has been achieved in   9 iterations

     Forces acting on atoms (cartesian axes, Ry/au):

     atom    1 type  1   force =     0.00000000    0.00000000    0.00000000
     atom    2 type  2   force =    -0.00000000   -0.00000000    0.00002993
     atom    3 type  2   force =     0.00000000    0.00000000   -0.00002993
     atom    4 type  2   force =    -0.00000000   -0.00000000   -0.00001385
     atom    5 type  2   force =    -0.00000000   -0.00000000    0.00001385
     The non-local contrib.  to forces
     atom    1 type  1   force =    -0.00000000   -0.00000000   -0.00000000
     atom    2 type  2   force =    -0.00000000    0.00000000    0.03077912
     atom    3 type  2   force =     0.00000000   -0.00000000   -0.03077912
     atom    4 type  2   force =     0.00000000   -0.00000000    0.01207366
     atom    5 type  2   force =    -0.00000000    0.00000000   -0.01207366
     The ionic contribution  to forces
     atom    1 type  1   force =    -0.00000000   -0.00000000   -0.00000000
     atom    2 type  2   force =     0.00000000   -0.00000000   -0.30852550
     atom    3 type  2   force =     0.00000000    0.00000000    0.30852550
     atom    4 type  2   force =     0.00000000   -0.00000000    0.21596011
     atom    5 type  2   force =     0.00000000    0.00000000   -0.21596011
     The local contribution  to forces
     atom    1 type  1   force =    -0.00000000   -0.00000000    0.00000000
     atom    2 type  2   force =     0.00000000   -0.00000000    0.27777228
     atom    3 type  2   force =     0.00000000   -0.00000000   -0.27777228
     atom    4 type  2   force =    -0.00000000    0.00000000   -0.22804953
     atom    5 type  2   force =     0.00000000   -0.00000000    0.22804953
     The core correction contribution to forces
     atom    1 type  1   force =     0.00000000   -0.00000000   -0.00000000
     atom    2 type  2   force =     0.00000000    0.00000000    0.00000000
     atom    3 type  2   force =     0.00000000    0.00000000    0.00000000
     atom    4 type  2   force =     0.00000000    0.00000000    0.00000000
     atom    5 type  2   force =     0.00000000    0.00000000    0.00000000
     The Hubbard contrib.    to forces
     atom    1 type  1   force =     0.00000000    0.00000000    0.00000000
     atom    2 type  2   force =     0.00000000    0.00000000    0.00000000
     atom    3 type  2   force =     0.00000000    0.00000000    0.00000000
     atom    4 type  2   force =     0.00000000    0.00000000    0.00000000
     atom    5 type  2   force =     0.00000000    0.00000000    0.00000000
     The SCF correction term to forces
     atom    1 type  1   force =     0.00000000   -0.00000000    0.00000000
     atom    2 type  2   force =    -0.00000000    0.00000000    0.00000404
     atom    3 type  2   force =     0.00000000   -0.00000000   -0.00000404
     atom    4 type  2   force =    -0.00000000   -0.00000000    0.00000191
     atom    5 type  2   force =     0.00000000    0.00000000   -0.00000191

     Total force =     0.000047     Total SCF correction =     0.000006
     SCF correction compared to forces is large: reduce conv_thr to get better values


     Computing stress (Cartesian axis) and pressure

          total   stress  (Ry/bohr**3)                   (kbar)     P=      504.55
   0.00340098  -0.00000000   0.00000000          500.30       -0.00        0.00
  -0.00000000   0.00340098   0.00000000           -0.00      500.30        0.00
   0.00000000   0.00000000   0.00348759            0.00        0.00      513.04


     Writing all to output data dir ./output/SiLi.save/

     init_run     :      3.48s CPU      4.28s WALL (       2 calls)
     electrons    :    229.30s CPU    254.19s WALL (      18 calls)
     update_pot   :      7.40s CPU      7.58s WALL (      16 calls)
     forces       :      5.10s CPU      5.31s WALL (      18 calls)
     stress       :     16.81s CPU     17.78s WALL (      18 calls)

     Called by init_run:
     wfcinit      :      1.91s CPU      2.21s WALL (       2 calls)
     potinit      :      0.50s CPU      0.66s WALL (       2 calls)
     hinit0       :      1.01s CPU      1.25s WALL (       2 calls)

     Called by electrons:
     c_bands      :    189.41s CPU    209.16s WALL (     154 calls)
     sum_band     :     33.60s CPU     37.10s WALL (     154 calls)
     v_of_rho     :      6.49s CPU      7.58s WALL (     171 calls)
     mix_rho      :      0.35s CPU      0.65s WALL (     154 calls)

     Called by c_bands:
     init_us_2    :      1.97s CPU      2.29s WALL (   11072 calls)
     init_us_2:cp :      1.95s CPU      2.27s WALL (   11072 calls)
     cegterg      :    185.89s CPU    203.57s WALL (    4928 calls)

     Called by *egterg:
     cdiaghg      :      3.28s CPU      3.60s WALL (   18537 calls)
     h_psi        :    179.08s CPU    196.29s WALL (   19145 calls)
     g_psi        :      0.23s CPU      0.25s WALL (   14153 calls)

     Called by h_psi:
     h_psi:calbec :      2.99s CPU      3.27s WALL (   19145 calls)
     vloc_psi     :    174.07s CPU    190.78s WALL (   19145 calls)
     add_vuspsi   :      1.79s CPU      1.95s WALL (   19145 calls)

     General routines
     calbec       :      3.94s CPU      4.27s WALL (   22025 calls)
     fft          :      3.37s CPU      4.89s WALL (    2159 calls)
     ffts         :      0.15s CPU      0.20s WALL (     154 calls)
     fftw         :    179.78s CPU    197.20s WALL (  376614 calls)

     Parallel routines

     PWSCF        :   4m22.46s CPU   4m50.32s WALL


   This run was terminated on:   1:34:12  22Jan2025            

=------------------------------------------------------------------------------=
   JOB DONE.
=------------------------------------------------------------------------------=
