
     Program PWSCF v.7.2 starts on 29Dec2024 at 20:29:43 

     This program is part of the open-source Quantum ESPRESSO suite
     for quantum simulation of materials; please cite
         "P. Giannozzi et al., J. Phys.:Condens. Matter 21 395502 (2009);
         "P. Giannozzi et al., J. Phys.:Condens. Matter 29 465901 (2017);
         "P. Giannozzi et al., J. Chem. Phys. 152 154105 (2020);
          URL http://www.quantum-espresso.org", 
     in publications or presentations arising from this work. More details at
     http://www.quantum-espresso.org/quote

     Parallel version (MPI & OpenMP), running on       8 processor cores
     Number of MPI processes:                 8
     Threads/MPI process:                     1

     MPI processes distributed on     1 nodes
     481855 MiB available memory on the printing compute node when the environment starts

     Waiting for input...
     Reading input from standard input

     Current dimensions of program PWSCF are:
     Max number of different atomic species (ntypx) = 10
     Max number of k-points (npk) =  40000
     Max angular momentum in pseudopotentials (lmaxx) =  4

     R & G space division:  proc/nbgrp/npool/nimage =       8
     Subspace diagonalization in iterative solution of the eigenvalue problem:
     a serial algorithm will be used


     Parallelization info
     --------------------
     sticks:   dense  smooth     PW     G-vecs:    dense   smooth      PW
     Min         137     137     46                 2004     2004     395
     Max         138     138     47                 2006     2006     396
     Sum        1099    1099    371                16041    16041    3163

     Using Slab Decomposition



     bravais-lattice index     =            7
     lattice parameter (alat)  =       8.8391  a.u.
     unit-cell volume          =     166.2147 (a.u.)^3
     number of atoms/cell      =            5
     number of atomic types    =            2
     number of electrons       =        19.00
     number of Kohn-Sham states=           14
     kinetic-energy cutoff     =      80.0000  Ry
     charge density cutoff     =     320.0000  Ry
     scf convergence threshold =      1.0E-08
     mixing beta               =       0.7000
     number of iterations used =            8  plain     mixing
     energy convergence thresh.=      1.0E-04
     force convergence thresh. =      1.0E-03
     press convergence thresh. =      1.0E+00
     Exchange-correlation= PBE
                           (   1   4   3   4   0   0   0)
     nstep                     =           50


     celldm(1)=   8.839129  celldm(2)=   0.000000  celldm(3)=   0.481361
     celldm(4)=   0.000000  celldm(5)=   0.000000  celldm(6)=   0.000000

     crystal axes: (cart. coord. in units of alat)
               a(1) = (   0.500000  -0.500000   0.240681 )  
               a(2) = (   0.500000   0.500000   0.240681 )  
               a(3) = (  -0.500000  -0.500000   0.240681 )  

     reciprocal axes: (cart. coord. in units 2 pi/alat)
               b(1) = (  1.000000 -1.000000  0.000000 )  
               b(2) = (  0.000000  1.000000  2.077443 )  
               b(3) = ( -1.000000  0.000000  2.077443 )  


     PseudoPot. # 1 for Si read from file:
     ../pseudo/Si_ONCV_PBE_sr.upf
     MD5 check sum: e543d271109d17c80368dfa7c482276d
     Pseudo is Norm-conserving + core correction, Zval =  4.0
     Generated using ONCVPSP code by D. R. Hamann
     Using radial grid of 1510 points,  6 beta functions with: 
                l(1) =   0
                l(2) =   0
                l(3) =   1
                l(4) =   1
                l(5) =   2
                l(6) =   2

     PseudoPot. # 2 for Li read from file:
     ../pseudo/Li_ONCV_PBE_sr.upf
     MD5 check sum: 50ff420e78310ffa21704f3361e624a4
     Pseudo is Norm-conserving, Zval =  3.0
     Generated using ONCVPSP code by D. R. Hamann
     Using radial grid of 1944 points,  4 beta functions with: 
                l(1) =   0
                l(2) =   0
                l(3) =   1
                l(4) =   1

     atomic species   valence    mass     pseudopotential
        Si             4.00    28.08550     Si( 1.00)
        Li             3.00     6.94100     Li( 1.00)

      8 Sym. Ops., with inversion, found



   Cartesian axes

     site n.     atom                  positions (alat units)
         1           Si  tau(   1) = (   0.1076290   0.7028095  -0.0000000  )
         2           Si  tau(   2) = (   0.8923710   0.2971905   0.0000000  )
         3           Si  tau(   3) = (   0.2971905   0.1076290   0.0000000  )
         4           Si  tau(   4) = (   0.7028095   0.8923710  -0.0000000  )
         5           Li  tau(   5) = (   0.0000000   0.0000000   0.2406805  )

     number of k points=    84  Marzari-Vanderbilt smearing, width (Ry)=  0.0200
                       cart. coord. in units 2pi/alat
        k(    1) = (   0.0000000   0.0000000   0.0000000), wk =   0.0080000
        k(    2) = (  -0.1000000   0.0000000   0.2077443), wk =   0.0160000
        k(    3) = (  -0.2000000   0.0000000   0.4154885), wk =   0.0640000
        k(    4) = (  -0.3000000   0.0000000   0.6232328), wk =   0.0160000
        k(    5) = (  -0.4000000   0.0000000   0.8309770), wk =   0.0640000
        k(    6) = (   0.5000000   0.0000000  -1.0387213), wk =   0.0080000
        k(    7) = (  -0.1000000   0.2000000   0.6232328), wk =   0.0160000
        k(    8) = (  -0.2000000   0.2000000   0.8309770), wk =   0.0640000
        k(    9) = (  -0.3000000   0.2000000   1.0387213), wk =   0.0160000
        k(   10) = (  -0.4000000   0.2000000   1.2464656), wk =   0.0640000
        k(   11) = (   0.5000000   0.2000000  -0.6232328), wk =   0.0160000
        k(   12) = (   0.4000000   0.2000000  -0.4154885), wk =   0.0640000
        k(   13) = (   0.3000000   0.2000000  -0.2077443), wk =   0.0160000
        k(   14) = (   0.2000000   0.2000000   0.0000000), wk =   0.0320000
        k(   15) = (   0.1000000   0.2000000   0.2077443), wk =   0.0160000
        k(   16) = (  -0.1000000   0.4000000   1.0387213), wk =   0.0160000
        k(   17) = (  -0.3000000   0.4000000   1.4542098), wk =   0.0160000
        k(   18) = (  -0.4000000   0.4000000   1.6619541), wk =   0.0640000
        k(   19) = (   0.5000000   0.4000000  -0.2077443), wk =   0.0160000
        k(   20) = (   0.4000000   0.4000000   0.0000000), wk =   0.0320000
        k(   21) = (   0.3000000   0.4000000   0.2077443), wk =   0.0160000
        k(   22) = (   0.1000000   0.4000000   0.6232328), wk =   0.0160000
        k(   23) = (   0.1000000   0.0000000   0.6232328), wk =   0.0160000
        k(   24) = (   0.0000000   0.0000000   0.8309770), wk =   0.0160000
        k(   25) = (  -0.1000000   0.0000000   1.0387213), wk =   0.0160000
        k(   26) = (  -0.2000000   0.0000000   1.2464656), wk =   0.0640000
        k(   27) = (   0.7000000   0.0000000  -0.6232328), wk =   0.0160000
        k(   28) = (   0.6000000   0.0000000  -0.4154885), wk =   0.0640000
        k(   29) = (   0.5000000   0.0000000  -0.2077443), wk =   0.0160000
        k(   30) = (   0.4000000   0.0000000   0.0000000), wk =   0.0320000
        k(   31) = (   0.3000000   0.0000000   0.2077443), wk =   0.0160000
        k(   32) = (   0.1000000   0.2000000   1.0387213), wk =   0.0160000
        k(   33) = (  -0.1000000   0.2000000   1.4542098), wk =   0.0160000
        k(   34) = (  -0.2000000   0.2000000   1.6619541), wk =   0.0640000
        k(   35) = (   0.7000000   0.2000000  -0.2077443), wk =   0.0160000
        k(   36) = (   0.6000000   0.2000000   0.0000000), wk =   0.0320000
        k(   37) = (   0.5000000   0.2000000   0.2077443), wk =   0.0160000
        k(   38) = (   0.3000000   0.2000000   0.6232328), wk =   0.0160000
        k(   39) = (   0.1000000  -0.6000000  -0.6232328), wk =   0.0160000
        k(   40) = (  -0.1000000  -0.6000000  -0.2077443), wk =   0.0160000
        k(   41) = (   0.7000000  -0.6000000  -1.8696984), wk =   0.0160000
        k(   42) = (   0.5000000  -0.6000000  -1.4542098), wk =   0.0160000
        k(   43) = (   0.4000000  -0.6000000  -1.2464656), wk =   0.0640000
        k(   44) = (   0.3000000  -0.6000000  -1.0387213), wk =   0.0160000
        k(   45) = (   0.1000000  -0.4000000  -0.2077443), wk =   0.0160000
        k(   46) = (   0.7000000  -0.4000000  -1.4542098), wk =   0.0160000
        k(   47) = (   0.5000000  -0.4000000  -1.0387213), wk =   0.0160000
        k(   48) = (   0.3000000   0.0000000   1.0387213), wk =   0.0160000
        k(   49) = (   0.1000000   0.0000000   1.4542098), wk =   0.0160000
        k(   50) = (   0.0000000   0.0000000   1.6619541), wk =   0.0160000
        k(   51) = (   0.9000000   0.0000000  -0.2077443), wk =   0.0160000
        k(   52) = (   0.8000000   0.0000000   0.0000000), wk =   0.0320000
        k(   53) = (   0.7000000   0.0000000   0.2077443), wk =   0.0160000
        k(   54) = (   0.5000000   0.0000000   0.6232328), wk =   0.0160000
        k(   55) = (   0.3000000  -0.8000000  -0.6232328), wk =   0.0160000
        k(   56) = (   0.1000000  -0.8000000  -0.2077443), wk =   0.0160000
        k(   57) = (   0.5000000  -0.8000000  -1.0387213), wk =   0.0160000
        k(   58) = (   0.2000000  -0.1000000  -0.6232328), wk =   0.0160000
        k(   59) = (   0.2000000  -0.3000000  -1.0387213), wk =   0.0160000
        k(   60) = (   0.2000000  -0.4000000  -1.2464656), wk =   0.0640000
        k(   61) = (   0.2000000   0.5000000   0.6232328), wk =   0.0160000
        k(   62) = (   0.2000000   0.4000000   0.4154885), wk =   0.0640000
        k(   63) = (   0.2000000   0.3000000   0.2077443), wk =   0.0160000
        k(   64) = (   0.2000000   0.1000000  -0.2077443), wk =   0.0160000
        k(   65) = (   0.4000000  -0.1000000  -1.0387213), wk =   0.0160000
        k(   66) = (   0.4000000  -0.3000000  -1.4542098), wk =   0.0160000
        k(   67) = (   0.4000000   0.5000000   0.2077443), wk =   0.0160000
        k(   68) = (   0.4000000   0.3000000  -0.2077443), wk =   0.0160000
        k(   69) = (   0.4000000   0.1000000  -0.6232328), wk =   0.0160000
        k(   70) = (   0.2000000   0.1000000  -1.0387213), wk =   0.0160000
        k(   71) = (   0.2000000  -0.1000000  -1.4542098), wk =   0.0160000
        k(   72) = (   0.2000000   0.7000000   0.2077443), wk =   0.0160000
        k(   73) = (   0.2000000   0.6000000   0.0000000), wk =   0.0320000
        k(   74) = (   0.2000000   0.5000000  -0.2077443), wk =   0.0160000
        k(   75) = (   0.2000000   0.3000000  -0.6232328), wk =   0.0160000
        k(   76) = (  -0.6000000   0.1000000   0.6232328), wk =   0.0160000
        k(   77) = (  -0.6000000  -0.1000000   0.2077443), wk =   0.0160000
        k(   78) = (  -0.6000000   0.7000000   1.8696984), wk =   0.0160000
        k(   79) = (  -0.6000000   0.5000000   1.4542098), wk =   0.0160000
        k(   80) = (  -0.6000000   0.3000000   1.0387213), wk =   0.0160000
        k(   81) = (  -0.4000000   0.1000000   0.2077443), wk =   0.0160000
        k(   82) = (  -0.4000000   0.7000000   1.4542098), wk =   0.0160000
        k(   83) = (  -0.8000000   0.3000000   0.6232328), wk =   0.0160000
        k(   84) = (  -0.8000000   0.1000000   0.2077443), wk =   0.0160000

     Dense  grid:    16041 G-vectors     FFT dimensions: (  40,  40,  40)

     Estimated max dynamical RAM per process >      18.06 MB

     Estimated total dynamical RAM >     144.52 MB

     Initial potential from superposition of free atoms

     starting charge      18.9930, renormalised to      19.0000
     Starting wfcs are   18 randomized atomic wfcs

     total cpu time spent up to now is        1.2 secs

     Self-consistent Calculation

     iteration #  1     ecut=    80.00 Ry     beta= 0.70
     Davidson diagonalization with overlap
     ethr =  1.00E-02,  avg # of iterations =  6.6

     Threshold (ethr) on eigenvalues was too large:
     Diagonalizing with lowered threshold

     Davidson diagonalization with overlap
     ethr =  5.44E-04,  avg # of iterations =  2.3

     total cpu time spent up to now is        3.7 secs

     total energy              =     -44.98502355 Ry
     estimated scf accuracy    <       0.10468232 Ry

     iteration #  2     ecut=    80.00 Ry     beta= 0.70
     Davidson diagonalization with overlap
     ethr =  5.51E-04,  avg # of iterations =  1.4

     total cpu time spent up to now is        4.5 secs

     total energy              =     -44.99056252 Ry
     estimated scf accuracy    <       0.00686592 Ry

     iteration #  3     ecut=    80.00 Ry     beta= 0.70
     Davidson diagonalization with overlap
     ethr =  3.61E-05,  avg # of iterations =  4.8

     total cpu time spent up to now is        5.6 secs

     total energy              =     -44.99131257 Ry
     estimated scf accuracy    <       0.00105902 Ry

     iteration #  4     ecut=    80.00 Ry     beta= 0.70
     Davidson diagonalization with overlap
     ethr =  5.57E-06,  avg # of iterations =  3.4

     total cpu time spent up to now is        6.6 secs

     total energy              =     -44.99158151 Ry
     estimated scf accuracy    <       0.00007802 Ry

     iteration #  5     ecut=    80.00 Ry     beta= 0.70
     Davidson diagonalization with overlap
     ethr =  4.11E-07,  avg # of iterations =  2.0

     total cpu time spent up to now is        7.6 secs

     total energy              =     -44.99159802 Ry
     estimated scf accuracy    <       0.00000051 Ry

     iteration #  6     ecut=    80.00 Ry     beta= 0.70
     Davidson diagonalization with overlap
     ethr =  2.69E-09,  avg # of iterations =  4.4

     total cpu time spent up to now is        8.9 secs

     total energy              =     -44.99159863 Ry
     estimated scf accuracy    <       0.00000011 Ry

     iteration #  7     ecut=    80.00 Ry     beta= 0.70
     Davidson diagonalization with overlap
     ethr =  5.58E-10,  avg # of iterations =  2.0

     total cpu time spent up to now is        9.8 secs

     End of self-consistent calculation

          k = 0.0000 0.0000 0.0000 (  1999 PWs)   bands (ev):

   -20.3755   4.4349  14.8264  15.3838  15.3838  17.7021  26.1652  26.1652
    27.5278  29.6552  31.6833  33.3041  33.3041  34.2086

          k =-0.1000 0.0000 0.2077 (  2008 PWs)   bands (ev):

   -20.3513   4.7280  14.2460  15.3917  16.4745  18.1089  24.9335  25.7685
    27.2840  28.7488  30.6773  31.9613  32.3842  34.5367

          k =-0.2000 0.0000 0.4155 (  2012 PWs)   bands (ev):

   -20.2878   5.6070  14.0051  15.4912  18.0757  19.1639  22.8361  23.5809
    25.7088  26.7728  29.4281  31.1567  32.9438  35.1015

          k =-0.3000 0.0000 0.6232 (  2018 PWs)   bands (ev):

   -20.2090   7.0678  14.3120  15.7679  17.8546  20.3526  21.0331  22.4748
    23.4815  25.4153  28.9196  31.3947  32.9652  36.7676

          k =-0.4000 0.0000 0.8310 (  2017 PWs)   bands (ev):

   -20.1449   9.0915  14.6850  15.1422  16.2985  18.9752  21.2434  22.1057
    24.6261  25.1210  28.8234  30.9452  33.0131  34.0573

          k = 0.5000 0.0000-1.0387 (  2010 PWs)   bands (ev):

   -20.1204  11.2970  12.0916  15.6959  16.7704  17.7393  20.5085  22.6990
    24.5479  27.7324  28.7021  29.4690  30.9228  35.2388

          k =-0.1000 0.2000 0.6232 (  2012 PWs)   bands (ev):

   -20.2106   6.8871  14.6413  16.9190  17.5972  19.6452  21.2831  21.9916
    23.3177  24.7727  29.0615  30.8505  34.0295  35.3693

          k =-0.2000 0.2000 0.8310 (  2022 PWs)   bands (ev):

   -20.1465   8.7205  15.2121  15.6132  16.9944  19.0878  21.1746  21.6915
    23.3536  23.7713  28.9067  30.9215  34.4333  35.5518

          k =-0.3000 0.2000 1.0387 (  2013 PWs)   bands (ev):

   -20.1204  11.0566  12.7136  14.9343  16.2479  18.6234  21.5506  23.0656
    23.1872  26.6676  27.7747  30.5291  32.7889  34.6462

          k =-0.4000 0.2000 1.2465 (  2007 PWs)   bands (ev):

   -20.1423  10.0383  13.0829  14.1835  16.6775  18.1254  21.7710  24.2412
    26.0797  26.2302  27.1230  30.4985  32.6261  35.2742

          k = 0.5000 0.2000-0.6232 (  2010 PWs)   bands (ev):

   -20.2036   7.8673  12.1210  15.9046  17.2847  19.0495  22.0050  23.7583
    25.9703  26.3813  29.2343  30.5075  34.5653  36.3143

          k = 0.4000 0.2000-0.4155 (  2003 PWs)   bands (ev):

   -20.2804   6.2437  11.5386  15.5613  18.8778  19.7515  22.3051  23.8289
    25.3019  28.9912  29.5096  32.5268  34.9596  37.8068

          k = 0.3000 0.2000-0.2077 (  2010 PWs)   bands (ev):

   -20.3436   5.2040  11.4825  15.5604  17.6688  19.9681  22.9904  25.0183
    27.0235  30.3938  31.8258  33.5500  34.6018  36.2039

          k = 0.2000 0.2000 0.0000 (  2014 PWs)   bands (ev):

   -20.3695   4.7557  11.9516  15.8111  16.5641  19.7188  23.3278  25.1678
    30.5233  30.9556  32.1020  32.1314  34.6634  36.1389

          k = 0.1000 0.2000 0.2077 (  2007 PWs)   bands (ev):

   -20.3484   4.8933  12.8920  15.4154  17.0576  19.2854  23.6787  24.9702
    28.1957  29.4084  30.5348  32.5414  33.5286  35.0390

          k =-0.1000 0.4000 1.0387 (  2016 PWs)   bands (ev):

   -20.1204  11.1840  12.3234  15.7449  15.9563  18.6485  20.3841  22.6792
    24.9075  26.4210  28.5038  30.2008  31.4161  35.3208

          k =-0.3000 0.4000 1.4542 (  2009 PWs)   bands (ev):

   -20.2019   8.2634  11.3685  16.0452  17.1724  18.6893  22.5779  23.5307
    25.2491  28.1833  30.3274  31.3637  33.2591  35.1342

          k =-0.4000 0.4000 1.6620 (  2011 PWs)   bands (ev):

   -20.2758   6.8674  10.1579  16.0195  18.3574  19.6709  22.6255  23.8187
    25.0955  31.2723  32.5350  32.9136  33.5237  35.5258

          k = 0.5000 0.4000-0.2077 (  2003 PWs)   bands (ev):

   -20.3359   5.9235   9.6005  16.1396  18.5154  18.7745  23.4045  25.2398
    27.1881  31.1091  32.6962  34.8611  36.4405  36.7481

          k = 0.4000 0.4000 0.0000 (  1998 PWs)   bands (ev):

   -20.3598   5.4925   9.6612  16.4529  17.2818  19.4135  23.0792  26.0536
    30.3607  30.6563  31.3176  35.7322  36.7615  37.0259

          k = 0.3000 0.4000 0.2077 (  2005 PWs)   bands (ev):

   -20.3388   5.5997  10.3141  16.1218  17.2709  20.7071  22.7689  24.2582
    27.8940  30.1242  33.6023  34.6868  35.1524  36.7496

          k = 0.1000 0.4000 0.6232 (  2015 PWs)   bands (ev):

   -20.2063   7.4125  13.2744  15.5477  17.6492  19.9513  21.6385  23.0373
    23.9796  26.4854  28.9912  31.8822  33.0150  35.2999

          k = 0.1000 0.0000 0.6232 (  2014 PWs)   bands (ev):

   -20.2123   6.7116  15.8732  16.8902  17.6057  18.9824  21.2628  22.0418
    22.4370  24.5398  30.1156  31.2303  32.5443  34.1865

          k = 0.0000 0.0000 0.8310 (  2030 PWs)   bands (ev):

   -20.1482   8.3632  16.1974  17.1357  17.1357  18.8601  20.2043  21.0585
    21.0585  23.6613  32.3033  32.3033  32.8150  33.3652

          k =-0.1000 0.0000 1.0387 (  2030 PWs)   bands (ev):

   -20.1205  10.5387  13.9465  15.3528  15.6033  18.3555  21.0826  22.5190
    23.0480  24.4588  31.8694  32.9935  34.0608  34.6760

          k =-0.2000 0.0000 1.2465 (  2011 PWs)   bands (ev):

   -20.1400  11.1936  13.1686  13.5140  14.3988  17.9277  22.5206  24.0335
    26.2421  27.3104  30.6832  31.3126  32.7382  35.2005

          k = 0.7000 0.0000-0.6232 (  2012 PWs)   bands (ev):

   -20.1986   8.8355  12.1118  13.3906  16.3797  17.8584  24.1646  25.6765
    27.6398  29.6317  29.9778  30.9594  32.2681  34.3239

          k = 0.6000 0.0000-0.4155 (  2013 PWs)   bands (ev):

   -20.2735   7.0004  11.2765  13.0408  17.6094  20.0502  24.6472  25.2491
    28.0643  29.2953  30.6683  32.9930  33.5142  36.5844

          k = 0.5000 0.0000-0.2077 (  2001 PWs)   bands (ev):

   -20.3363   5.7524  11.0517  13.1085  17.8958  21.6603  23.7187  25.2992
    28.8722  30.9526  31.1052  32.8130  36.1109  36.6707

          k = 0.4000 0.0000 0.0000 (  2005 PWs)   bands (ev):

   -20.3638   5.1093  11.4493  13.5506  18.2758  20.4446  23.0637  26.6810
    29.2735  29.9914  33.6229  33.9385  34.6583  35.6153

          k = 0.3000 0.0000 0.2077 (  2005 PWs)   bands (ev):

   -20.3455   5.0664  12.4533  14.3418  18.4605  19.4429  22.9604  25.4530
    28.0508  29.9384  30.6299  32.2615  34.7428  35.8006

          k = 0.1000 0.2000 1.0387 (  2027 PWs)   bands (ev):

   -20.1205  10.7143  13.3074  15.1829  16.3403  18.1740  20.8551  22.7597
    23.2800  25.4506  29.7869  32.8932  33.1721  33.8993

          k =-0.1000 0.2000 1.4542 (  2012 PWs)   bands (ev):

   -20.1970   9.3822  11.6087  13.1039  16.0330  17.5876  24.9086  26.1560
    28.5600  29.5175  30.2366  30.8930  33.5123  34.4304

          k =-0.2000 0.2000 1.6620 (  1998 PWs)   bands (ev):

   -20.2692   7.8247  10.2562  12.6417  16.7531  19.8898  26.1187  27.1620
    27.5985  31.1925  32.5193  33.2345  33.4745  35.2265

          k = 0.7000 0.2000-0.2077 (  1996 PWs)   bands (ev):

   -20.3291   6.6374   9.6294  12.7200  16.8390  22.4302  25.4234  26.8555
    28.1316  32.0542  32.7784  34.3468  34.4582  36.3473

          k = 0.6000 0.2000 0.0000 (  1991 PWs)   bands (ev):

   -20.3545   5.9470   9.6703  13.2825  17.2988  21.5305  26.0627  26.6478
    29.3080  29.3858  33.0756  34.0531  36.4414  38.8917

          k = 0.5000 0.2000 0.2077 (  2001 PWs)   bands (ev):

   -20.3362   5.8132  10.3228  14.2456  18.2733  20.1510  24.6398  25.7315
    26.4174  31.2060  33.1197  33.5543  34.8642  36.1616

          k = 0.3000 0.2000 0.6232 (  2015 PWs)   bands (ev):

   -20.2079   7.2208  13.2532  17.1496  17.4934  19.4980  21.8092  22.1695
    24.0586  25.4977  28.6198  30.4923  35.4723  36.6143

          k = 0.1000-0.6000-0.6232 (  2008 PWs)   bands (ev):

   -20.2011   8.2746  12.2024  14.4484  16.8655  18.3980  22.9236  25.6552
    25.9700  28.0586  29.5480  30.5400  33.7296  35.0695

          k =-0.1000-0.6000-0.2077 (  1998 PWs)   bands (ev):

   -20.3318   6.2252  10.2910  12.7732  17.1619  22.9420  24.2440  25.2709
    29.9926  30.5490  32.1072  33.7626  35.6819  36.7214

          k = 0.7000-0.6000-1.8697 (  2003 PWs)   bands (ev):

   -20.3333   6.1638   9.6102  14.4732  17.4602  21.3032  24.1969  24.7307
    28.5427  30.6451  33.2989  34.7361  36.1849  36.6986

          k = 0.5000-0.6000-1.4542 (  2010 PWs)   bands (ev):

   -20.2034   8.0308  11.3054  17.1140  17.9423  18.9439  21.8138  22.5362
    24.1965  27.8765  29.6484  31.8134  33.0847  35.2399

          k = 0.4000-0.6000-1.2465 (  2005 PWs)   bands (ev):

   -20.1438   9.6105  13.0161  14.7852  16.6798  20.1861  22.1842  23.2841
    24.0049  25.0420  26.8583  29.8151  32.8544  37.2206

          k = 0.3000-0.6000-1.0387 (  2003 PWs)   bands (ev):

   -20.1203  11.5316  12.2947  14.5319  15.5871  19.9730  22.4317  23.0995
    23.7791  25.8595  27.0300  28.2776  33.6362  35.1272

          k = 0.1000-0.4000-0.2077 (  2007 PWs)   bands (ev):

   -20.3408   5.3929  11.4096  14.1068  18.8755  19.6724  23.3746  25.8352
    26.9705  30.8703  31.5291  32.6122  35.5402  36.5984

          k = 0.7000-0.4000-1.4542 (  2006 PWs)   bands (ev):

   -20.2051   7.6569  12.0705  16.9232  17.9787  19.1957  21.9512  22.5272
    23.6594  27.0979  29.2731  31.1291  33.7956  36.4595

          k = 0.5000-0.4000-1.0387 (  2008 PWs)   bands (ev):

   -20.1203  11.9754  12.1041  13.9732  15.3131  21.4807  22.3275  23.9099
    24.1759  25.1399  25.9526  26.7806  34.9332  35.9858

          k = 0.3000 0.0000 1.0387 (  2019 PWs)   bands (ev):

   -20.1205  10.8788  12.8115  15.5587  16.3912  18.1703  20.3503  22.6084
    24.2868  25.9378  29.3776  31.4226  32.1243  34.9088

          k = 0.1000 0.0000 1.4542 (  2010 PWs)   bands (ev):

   -20.1955  10.1233  11.6516  12.0169  15.6698  17.3936  26.0055  27.1415
    28.1982  29.0008  30.9912  32.3986  33.5919  34.6401

          k = 0.0000 0.0000 1.6620 (  2002 PWs)   bands (ev):

   -20.2651   9.2841  10.3283  10.3283  16.0381  19.7090  29.0030  30.3958
    30.3958  30.8126  30.8698  33.4345  33.4346  33.9555

          k = 0.9000 0.0000-0.2077 (  1994 PWs)   bands (ev):

   -20.3223   8.0891   9.6135  10.0333  15.8955  23.2503  28.3973  29.9979
    31.1887  31.7907  32.9795  33.3139  34.3589  34.5364

          k = 0.8000 0.0000 0.0000 (  1986 PWs)   bands (ev):

   -20.3460   7.1594   9.5354  10.5838  16.0368  25.5823  27.0799  28.6018
    29.2124  31.0623  33.4853  34.6132  35.5611  36.0691

          k = 0.7000 0.0000 0.2077 (  1990 PWs)   bands (ev):

   -20.3275   6.7868  10.0968  11.6423  16.5724  23.0958  25.8550  26.9457
    30.0068  31.5123  32.1706  33.6569  34.7909  36.6964

          k = 0.5000 0.0000 0.6232 (  2008 PWs)   bands (ev):

   -20.2037   7.7808  13.0140  14.6086  17.2122  19.2389  22.2678  24.3635
    24.8897  27.4187  29.4958  31.0132  33.3704  34.5670

          k = 0.3000-0.8000-0.6232 (  2008 PWs)   bands (ev):

   -20.1995   8.7218  11.4795  14.5369  16.5969  18.0247  23.6130  25.0919
    26.9414  28.8017  30.0515  31.4785  33.6385  34.2949

          k = 0.1000-0.8000-0.2077 (  1991 PWs)   bands (ev):

   -20.3249   7.3203   9.6448  11.1895  16.2189  23.1596  26.7542  29.0188
    29.1237  32.1112  33.0467  33.8702  34.2841  36.0818

          k = 0.5000-0.8000-1.0387 (  2004 PWs)   bands (ev):

   -20.1204  11.4958  12.0964  15.1613  15.7134  19.3236  21.3131  22.8799
    24.6082  26.5656  27.1976  29.0786  32.7932  34.3930

          k = 0.2000-0.1000-0.6232 (  2012 PWs)   bands (ev):

   -20.2106   6.8871  14.6624  16.6627  18.0794  19.2039  21.7405  22.1644
    22.6776  24.9577  29.0061  31.2233  33.5461  35.5144

          k = 0.2000-0.3000-1.0387 (  2013 PWs)   bands (ev):

   -20.1204  11.0577  12.7013  15.0836  15.9681  19.0943  20.8442  22.6907
    24.5383  25.7517  28.1189  30.7044  31.9890  36.1595

          k = 0.2000-0.4000-1.2465 (  2007 PWs)   bands (ev):

   -20.1423  10.0362  13.0830  14.3120  16.0714  19.2037  21.3225  22.8991
    26.7112  27.5307  27.8848  28.8558  33.3864  33.8431

          k = 0.2000 0.5000 0.6232 (  2010 PWs)   bands (ev):

   -20.2036   7.8669  12.1360  15.7669  17.3571  19.2522  22.5648  22.8339
    24.9446  27.4788  29.7774  31.7497  33.1801  34.4842

          k = 0.2000 0.4000 0.4155 (  2003 PWs)   bands (ev):

   -20.2804   6.2437  11.5389  15.6035  18.3348  20.7048  22.3969  23.0142
    25.2392  28.8680  30.7141  31.9694  35.0302  37.2366

          k = 0.2000 0.3000 0.2077 (  2010 PWs)   bands (ev):

   -20.3436   5.2040  11.4783  15.7433  17.1489  20.9386  22.4149  24.3192
    28.1131  29.9582  31.7268  33.6006  35.0081  35.8765

          k = 0.2000 0.1000-0.2077 (  2007 PWs)   bands (ev):

   -20.3484   4.8933  12.8991  15.3285  17.2934  19.0536  23.5745  25.6690
    27.1817  29.9472  30.6014  32.4382  33.4405  35.1272

          k = 0.4000-0.1000-1.0387 (  2016 PWs)   bands (ev):

   -20.1204  11.1822  12.3319  15.3938  16.5633  18.0660  20.9286  22.7442
    24.1200  27.4669  27.9185  29.9645  32.2332  34.1966

          k = 0.4000-0.3000-1.4542 (  2009 PWs)   bands (ev):

   -20.2019   8.2638  11.3637  16.1042  17.1793  18.5605  22.3324  24.0256
    25.5259  27.8544  29.2173  32.1378  33.3093  35.3842

          k = 0.4000 0.5000 0.2077 (  2003 PWs)   bands (ev):

   -20.3359   5.9235   9.6000  16.2700  17.7328  19.6293  23.1546  24.9790
    27.6442  30.7663  32.9607  34.8219  36.6476  37.7472

          k = 0.4000 0.3000-0.2077 (  2005 PWs)   bands (ev):

   -20.3388   5.5998  10.3159  15.8682  18.0908  19.4977  23.5608  24.7174
    26.9425  30.5727  33.5185  34.3984  35.3632  35.6957

          k = 0.4000 0.1000-0.6232 (  2015 PWs)   bands (ev):

   -20.2063   7.4127  13.2486  15.6784  17.4994  19.9457  21.4297  23.1195
    24.7675  26.0022  29.0074  30.3992  34.3577  36.3783

          k = 0.2000 0.1000-1.0387 (  2027 PWs)   bands (ev):

   -20.1205  10.7145  13.2966  15.3275  16.0730  18.4786  20.5409  22.5375
    24.0200  25.0058  30.3520  31.4337  33.2516  35.7321

          k = 0.2000-0.1000-1.4542 (  2012 PWs)   bands (ev):

   -20.1970   9.3827  11.6038  13.1116  16.0354  17.5774  24.6649  27.2163
    27.8376  28.7888  30.3896  31.4282  33.0431  35.1105

          k = 0.2000 0.7000 0.2077 (  1996 PWs)   bands (ev):

   -20.3291   6.6375   9.6277  12.7324  16.7860  22.8344  25.0954  25.9604
    29.6526  30.7690  33.5134  34.7170  35.1208  35.9067

          k = 0.2000 0.6000 0.0000 (  1991 PWs)   bands (ev):

   -20.3545   5.9470   9.6660  13.3285  17.0767  22.6379  24.3980  26.1798
    29.3045  32.0543  33.1327  34.4912  35.0160  36.1464

          k = 0.2000 0.5000-0.2077 (  2001 PWs)   bands (ev):

   -20.3362   5.8132  10.3180  14.3297  17.6582  21.9044  23.2390  24.2323
    29.0752  29.9611  33.1060  34.1207  35.4109  37.5069

          k = 0.2000 0.3000-0.6232 (  2015 PWs)   bands (ev):

   -20.2079   7.2207  13.2654  16.7520  18.1298  19.1766  22.1615  22.5102
    22.9643  25.9250  28.6195  30.9882  34.9993  35.8684

          k =-0.6000 0.1000 0.6232 (  2008 PWs)   bands (ev):

   -20.2011   8.2742  12.2182  14.4025  16.8583  18.4842  23.3933  24.1973
    26.4106  28.3031  30.2479  32.1259  32.5454  33.0841

          k =-0.6000-0.1000 0.2077 (  1998 PWs)   bands (ev):

   -20.3318   6.2252  10.2956  12.7494  17.2792  22.0354  25.1030  26.2946
    27.8863  31.6386  32.6431  33.0548  34.7493  36.6383

          k =-0.6000 0.7000 1.8697 (  2003 PWs)   bands (ev):

   -20.3333   6.1639   9.6115  14.4301  17.6850  20.6892  24.7398  25.3066
    27.4232  31.6249  32.5800  34.7396  35.3143  36.4402

          k =-0.6000 0.5000 1.4542 (  2010 PWs)   bands (ev):

   -20.2034   8.0306  11.3072  17.0601  17.9230  19.0892  21.9371  22.3134
    24.0897  27.9349  30.2032  31.4052  33.0268  35.1838

          k =-0.6000 0.3000 1.0387 (  2003 PWs)   bands (ev):

   -20.1203  11.5342  12.2865  14.5835  15.5140  20.2696  21.6594  23.0932
    24.9611  25.7228  26.0861  28.7589  33.1744  35.8974

          k =-0.4000 0.1000 0.2077 (  2007 PWs)   bands (ev):

   -20.3408   5.3929  11.4013  14.1715  18.0898  21.3486  22.4792  24.6189
    29.1888  29.8902  31.1231  33.0045  35.8486  37.0263

          k =-0.4000 0.7000 1.4542 (  2006 PWs)   bands (ev):

   -20.2051   7.6571  12.0646  17.1622  17.7247  19.1176  21.7421  22.7207
    24.1394  26.7712  29.0765  30.7238  34.3861  36.9933

          k =-0.8000 0.3000 0.6232 (  2008 PWs)   bands (ev):

   -20.1995   8.7224  11.4733  14.5595  16.6086  17.9721  23.3384  26.0695
    27.1521  27.7186  29.3781  32.1863  33.1949  35.2798

          k =-0.8000 0.1000 0.2077 (  1991 PWs)   bands (ev):

   -20.3249   7.3204   9.6435  11.1925  16.2105  23.2341  26.7641  27.9788
    30.7794  31.1853  33.1998  34.1023  34.7124  35.7604

     the Fermi energy is    28.7220 ev

!    total energy              =     -44.99159866 Ry
     estimated scf accuracy    <          6.0E-09 Ry
     smearing contrib. (-TS)   =      -0.00072703 Ry
     internal energy E=F+TS    =     -44.99087163 Ry

     The total energy is F=E-TS. E is the sum of the following terms:
     one-electron contribution =      37.47061865 Ry
     hartree contribution      =       2.72362634 Ry
     xc contribution           =     -20.01777320 Ry
     ewald contribution        =     -65.16734342 Ry

     convergence has been achieved in   7 iterations

     Forces acting on atoms (cartesian axes, Ry/au):

     atom    1 type  1   force =    -0.27111448    0.17456011    0.00000000
     atom    2 type  1   force =     0.27111448   -0.17456011    0.00000000
     atom    3 type  1   force =    -0.17456011   -0.27111448   -0.00000000
     atom    4 type  1   force =     0.17456011    0.27111448    0.00000000
     atom    5 type  2   force =     0.00000000   -0.00000000   -0.00000000
     The non-local contrib.  to forces
     atom    1 type  1   force =    -0.22813147    0.08501455   -0.00000000
     atom    2 type  1   force =     0.22813147   -0.08501455    0.00000000
     atom    3 type  1   force =    -0.08501455   -0.22813147   -0.00000000
     atom    4 type  1   force =     0.08501455    0.22813147    0.00000000
     atom    5 type  2   force =     0.00000000    0.00000000    0.00000000
     The ionic contribution  to forces
     atom    1 type  1   force =    -0.22977247    0.13242175   -0.00000000
     atom    2 type  1   force =     0.22977247   -0.13242175   -0.00000000
     atom    3 type  1   force =    -0.13242175   -0.22977247   -0.00000000
     atom    4 type  1   force =     0.13242175    0.22977247    0.00000000
     atom    5 type  2   force =    -0.00000000   -0.00000000    0.00000000
     The local contribution  to forces
     atom    1 type  1   force =     0.17449294   -0.03340567   -0.00000000
     atom    2 type  1   force =    -0.17449294    0.03340567    0.00000000
     atom    3 type  1   force =     0.03340567    0.17449294   -0.00000000
     atom    4 type  1   force =    -0.03340567   -0.17449294    0.00000000
     atom    5 type  2   force =     0.00000000    0.00000000    0.00000000
     The core correction contribution to forces
     atom    1 type  1   force =     0.01231170   -0.00942265    0.00000000
     atom    2 type  1   force =    -0.01231170    0.00942265    0.00000000
     atom    3 type  1   force =     0.00942265    0.01231170    0.00000000
     atom    4 type  1   force =    -0.00942265   -0.01231170   -0.00000000
     atom    5 type  2   force =     0.00000000    0.00000000    0.00000000
     The Hubbard contrib.    to forces
     atom    1 type  1   force =     0.00000000    0.00000000    0.00000000
     atom    2 type  1   force =     0.00000000    0.00000000    0.00000000
     atom    3 type  1   force =     0.00000000    0.00000000    0.00000000
     atom    4 type  1   force =     0.00000000    0.00000000    0.00000000
     atom    5 type  2   force =     0.00000000    0.00000000    0.00000000
     The SCF correction term to forces
     atom    1 type  1   force =    -0.00001518   -0.00004786    0.00000000
     atom    2 type  1   force =     0.00001518    0.00004786   -0.00000000
     atom    3 type  1   force =     0.00004786   -0.00001518    0.00000000
     atom    4 type  1   force =    -0.00004786    0.00001518   -0.00000000
     atom    5 type  2   force =     0.00000000   -0.00000000    0.00000000

     Total force =     0.644901     Total SCF correction =     0.000100


     Computing stress (Cartesian axis) and pressure

          total   stress  (Ry/bohr**3)                   (kbar)     P=     7166.45
   0.04876328   0.00000000  -0.00000000         7173.33        0.00       -0.00
   0.00000000   0.04876328   0.00000000            0.00     7173.33        0.00
   0.00000000  -0.00000000   0.04862307            0.00       -0.00     7152.70


     BFGS Geometry Optimization
     Energy error            =      0.0E+00 Ry
     Gradient error          =      2.7E-01 Ry/Bohr
     Cell gradient error     =      6.7E+03 kbar

     number of scf cycles    =   1
     number of bfgs steps    =   0

     enthalpy           new  =     -44.4266464456 Ry

     new trust radius        =       0.5000000000 bohr
ibrav =      7
 celldm(1) =     10.55314461
 celldm(3) =      0.48111944
Input lattice vectors:
     0.59695614    -0.59695614     0.28720720
     0.59695614     0.59695614     0.28720720
    -0.59695614    -0.59695614     0.28720720
New lattice vectors in INITIAL alat:
     0.59695614    -0.59695614     0.28720720
     0.59695614     0.59695614     0.28720720
    -0.59695614    -0.59695614     0.28720720
New lattice vectors in NEW alat (for information only):
     0.50000000    -0.50000000     0.24055972
     0.50000000     0.50000000     0.24055972
    -0.50000000    -0.50000000     0.24055972
Discrepancy in bohr =     0.000000    0.000000    0.000000
     new conv_thr            =       0.0000000100 Ry

     new unit-cell volume =    282.72784 a.u.^3 (    41.89594 Ang^3 )
     density =      4.72776 g/cm^3

CELL_PARAMETERS (alat=  8.83912893)
   0.596956142  -0.596956142   0.287207204
   0.596956142   0.596956142   0.287207204
  -0.596956142  -0.596956142   0.287207204

ATOMIC_POSITIONS (crystal)
Si           -0.6038015285        0.7061861513       -0.1023846228
Si            0.6038015285        0.2938138487       -0.8976153772
Si            0.1914292258        0.1023846228       -0.2938138487
Si           -0.1914292258        0.8976153772       -0.7061861513
Li           -0.0000000000        0.5000000000        0.5000000000



     Writing config-only to output data dir ./output/SiLi.save/
     NEW-OLD atomic charge density approx. for the potential
     extrapolated charge   26.82708, renormalised to   19.00000

     total cpu time spent up to now is       11.3 secs

     Self-consistent Calculation

     iteration #  1     ecut=    80.00 Ry     beta= 0.70
     Davidson diagonalization with overlap
     c_bands:  1 eigenvalues not converged
     c_bands:  1 eigenvalues not converged
     c_bands:  1 eigenvalues not converged
     c_bands:  1 eigenvalues not converged
     c_bands:  1 eigenvalues not converged
     c_bands:  1 eigenvalues not converged
     c_bands:  1 eigenvalues not converged
     c_bands:  1 eigenvalues not converged
     c_bands:  1 eigenvalues not converged
     c_bands:  1 eigenvalues not converged
     c_bands:  1 eigenvalues not converged
     c_bands:  1 eigenvalues not converged
     c_bands:  1 eigenvalues not converged
     c_bands:  1 eigenvalues not converged
     c_bands:  1 eigenvalues not converged
     c_bands:  1 eigenvalues not converged
     c_bands:  1 eigenvalues not converged
     c_bands:  1 eigenvalues not converged
     c_bands:  1 eigenvalues not converged
     ethr =  1.00E-06,  avg # of iterations = 16.6

     total cpu time spent up to now is       15.0 secs

     total energy              =     -47.49447816 Ry
     estimated scf accuracy    <       0.03468303 Ry

     iteration #  2     ecut=    80.00 Ry     beta= 0.70
     Davidson diagonalization with overlap
     ethr =  1.83E-04,  avg # of iterations =  3.1

     total cpu time spent up to now is       16.3 secs

     total energy              =     -47.61060521 Ry
     estimated scf accuracy    <       0.04377391 Ry

     iteration #  3     ecut=    80.00 Ry     beta= 0.70
     Davidson diagonalization with overlap
     ethr =  1.83E-04,  avg # of iterations =  1.0

     total cpu time spent up to now is       17.4 secs

     total energy              =     -47.60878300 Ry
     estimated scf accuracy    <       0.01105279 Ry

     iteration #  4     ecut=    80.00 Ry     beta= 0.70
     Davidson diagonalization with overlap
     ethr =  5.82E-05,  avg # of iterations =  2.0

     total cpu time spent up to now is       18.6 secs

     total energy              =     -47.60642850 Ry
     estimated scf accuracy    <       0.00430130 Ry

     iteration #  5     ecut=    80.00 Ry     beta= 0.70
     Davidson diagonalization with overlap
     ethr =  2.26E-05,  avg # of iterations =  2.1

     total cpu time spent up to now is       19.8 secs

     total energy              =     -47.60731093 Ry
     estimated scf accuracy    <       0.00007490 Ry

     iteration #  6     ecut=    80.00 Ry     beta= 0.70
     Davidson diagonalization with overlap
     ethr =  3.94E-07,  avg # of iterations =  4.8

     total cpu time spent up to now is       21.0 secs

     total energy              =     -47.60731076 Ry
     estimated scf accuracy    <       0.00002253 Ry

     iteration #  7     ecut=    80.00 Ry     beta= 0.70
     Davidson diagonalization with overlap
     ethr =  1.19E-07,  avg # of iterations =  2.0

     total cpu time spent up to now is       22.1 secs

     total energy              =     -47.60731496 Ry
     estimated scf accuracy    <       0.00000005 Ry

     iteration #  8     ecut=    80.00 Ry     beta= 0.70
     Davidson diagonalization with overlap
     ethr =  2.47E-10,  avg # of iterations =  4.7

     total cpu time spent up to now is       23.4 secs

     End of self-consistent calculation

          k = 0.0000 0.0000 0.0000 (  1999 PWs)   bands (ev):

   -29.4131  -1.2967   6.3722   7.3881   7.3881   9.1147  16.1508  16.1508
    16.4649  17.7236  19.2585  19.6972  19.6972  22.1207

          k =-0.0838-0.0000 0.1741 (  2008 PWs)   bands (ev):

   -29.4096  -1.0683   6.1084   7.3290   8.0833   9.5363  15.0331  15.9375
    16.6236  17.4728  17.6461  18.3109  18.7893  21.9441

          k =-0.1675-0.0000 0.3482 (  2012 PWs)   bands (ev):

   -29.3992  -0.3840   5.9949   7.3426   9.4243  10.5655  13.2047  13.6963
    15.0143  15.8857  16.8592  17.8034  19.8795  22.0664

          k =-0.2513-0.0000 0.5223 (  2018 PWs)   bands (ev):

   -29.3866   0.7527   6.2941   7.5809   9.4968  11.4150  11.8273  12.4449
    12.9779  14.7485  16.6382  18.6915  20.3544  23.6058

          k =-0.3350-0.0000 0.6964 (  2017 PWs)   bands (ev):

   -29.3760   2.3318   6.7557   7.0357   8.1440  10.0678  11.2268  12.7633
    14.1971  14.5570  16.9563  19.4812  20.5876  20.6863

          k = 0.4188 0.0000-0.8705 (  2010 PWs)   bands (ev):

   -29.3715   4.1068   4.6232   7.8615   8.2403   9.0926  10.4734  13.2151
    14.1271  16.8270  17.6002  17.9594  18.7689  21.9539

          k =-0.0838 0.1675 0.5223 (  2012 PWs)   bands (ev):

   -29.3862   0.5988   6.5534   8.5394   9.4346  10.8100  11.4199  12.1704
    13.1368  14.6385  16.3102  18.4194  20.7217  22.4183

          k =-0.1675 0.1675 0.6964 (  2022 PWs)   bands (ev):

   -29.3764   2.0224   7.1423   7.6064   8.6329  10.4342  11.2549  11.4496
    13.2637  14.2019  16.8344  18.5418  21.5617  22.9962

          k =-0.2513 0.1675 0.8705 (  2013 PWs)   bands (ev):

   -29.3717   3.8562   5.2705   6.7913   8.1211   9.7857  11.5397  12.7428
    13.4615  16.3517  17.0191  18.4757  19.3297  21.8023

          k =-0.3350 0.1675 1.0445 (  2007 PWs)   bands (ev):

   -29.3752   3.1598   5.3107   6.2805   8.4218   9.5361  11.7369  13.7665
    15.3629  15.8504  16.6961  19.1846  19.4393  20.8295

          k = 0.4188 0.1675-0.5223 (  2010 PWs)   bands (ev):

   -29.3858   1.4640   4.4735   7.6736   8.8894  10.4586  12.2501  13.1910
    15.3519  15.8368  17.1261  18.6731  21.8916  22.1572

          k = 0.3350 0.1675-0.3482 (  2003 PWs)   bands (ev):

   -29.3981   0.1947   3.9995   7.3665  10.2888  10.9913  12.5417  13.5832
    14.8989  16.3516  17.5431  20.2815  21.5063  24.3621

          k = 0.2513 0.1675-0.1741 (  2010 PWs)   bands (ev):

   -29.4092  -0.6290   3.9584   7.3851   9.0532  11.1484  13.4559  14.5784
    15.7195  17.5927  19.7464  20.4288  21.6625  23.1481

          k = 0.1675 0.1675 0.0000 (  2014 PWs)   bands (ev):

   -29.4137  -1.0005   4.3424   7.7046   8.0107  10.9348  13.5035  14.7220
    18.2164  19.1656  19.5399  20.1445  21.3607  22.1165

          k = 0.0838 0.1675 0.1741 (  2007 PWs)   bands (ev):

   -29.4093  -0.9183   5.1035   7.2641   8.5452  10.5616  13.8590  15.0169
    16.6767  17.5518  18.3538  19.1307  20.1462  22.3310

          k =-0.0838 0.3350 0.8705 (  2016 PWs)   bands (ev):

   -29.3719   3.9801   4.8688   7.5479   7.9081   9.8905  10.4199  12.9185
    14.6503  15.5417  17.7313  18.5731  19.0975  21.0111

          k =-0.2513 0.3350 1.2186 (  2009 PWs)   bands (ev):

   -29.3856   1.8626   3.7791   7.9315   8.6639  10.1101  12.2308  13.5095
    15.1160  16.9214  18.3444  19.3484  20.0018  21.5170

          k =-0.3350 0.3350 1.3927 (  2011 PWs)   bands (ev):

   -29.3985   0.8482   2.7376   7.8285   9.6913  11.1588  12.3429  13.4344
    14.6667  19.2521  19.5291  20.1641  20.7518  22.5163

          k = 0.4188 0.3350-0.1741 (  2003 PWs)   bands (ev):

   -29.4083   0.1255   2.2812   7.9221   9.6625  10.2697  12.9869  15.0799
    16.2548  18.2600  19.7771  22.4667  22.9930  23.7086

          k = 0.3350 0.3350 0.0000 (  1998 PWs)   bands (ev):

   -29.4119  -0.2520   2.3694   8.1994   8.7406  10.6643  12.7185  16.0440
    17.6011  18.6443  19.7621  21.6324  22.8503  23.7959

          k = 0.2513 0.3350 0.1741 (  2005 PWs)   bands (ev):

   -29.4086  -0.2369   2.9540   7.8172   8.9122  11.6121  12.7644  14.5060
    16.1799  17.4182  21.2006  21.7166  22.3371  23.1349

          k = 0.0838 0.3350 0.5223 (  2015 PWs)   bands (ev):

   -29.3863   1.0517   5.4379   7.4359   9.1711  11.1124  12.3529  12.6304
    13.9307  15.1676  16.9587  18.8552  20.9943  22.2572

          k = 0.0838-0.0000 0.5223 (  2014 PWs)   bands (ev):

   -29.3863   0.4463   7.5262   8.6587   9.3190  10.4131  11.3266  12.0010
    12.3304  14.6589  17.3297  18.3615  19.4536  21.6168

          k = 0.0000-0.0000 0.6964 (  2030 PWs)   bands (ev):

   -29.3770   1.7171   8.2982   8.9654   8.9654  10.0713  10.3503  10.9249
    10.9249  13.9570  19.5320  19.5320  19.6305  21.5054

          k =-0.0838-0.0000 0.8705 (  2030 PWs)   bands (ev):

   -29.3729   3.4124   6.3326   7.2245   7.5225   9.8701  10.8906  12.3173
    12.7868  14.6357  19.7910  20.8829  21.4070  22.2887

          k =-0.1675-0.0000 1.0445 (  2011 PWs)   bands (ev):

   -29.3754   4.0891   5.4845   5.6961   6.4988   9.3876  12.1861  13.6864
    15.5265  16.7797  19.2222  19.7369  20.2364  22.0220

          k = 0.5863 0.0000-0.5223 (  2012 PWs)   bands (ev):

   -29.3858   2.2405   4.5892   5.6550   7.9260   9.3063  13.8540  15.0511
    16.7525  17.8924  18.6605  19.4880  19.7856  20.6220

          k = 0.5025 0.0000-0.3482 (  2013 PWs)   bands (ev):

   -29.3986   0.8121   3.9405   5.2967   8.8804  11.2103  14.6224  14.8676
    16.3646  17.6090  18.5704  19.5756  21.6052  23.2756

          k = 0.4188 0.0000-0.1741 (  2001 PWs)   bands (ev):

   -29.4081  -0.1692   3.7607   5.2854   9.2604  12.4881  13.7980  14.7096
    17.6073  18.2765  18.6613  20.0208  22.7087  23.8226

          k = 0.3350 0.0000 0.0000 (  2005 PWs)   bands (ev):

   -29.4126  -0.6957   4.0512   5.6236   9.7048  11.3597  13.0054  16.7415
    17.3743  17.6680  20.2908  21.1108  21.3835  22.8574

          k = 0.2513 0.0000 0.1741 (  2005 PWs)   bands (ev):

   -29.4089  -0.7664   4.8042   6.3104   9.7278  10.7705  13.0697  15.3222
    16.9502  17.7565  18.0103  19.1500  21.5182  22.8451

          k = 0.0838 0.1675 0.8705 (  2027 PWs)   bands (ev):

   -29.3727   3.5625   5.7590   7.0664   8.2372   9.5236  10.8523  12.4228
    13.3268  15.3084  18.3588  20.1601  20.3986  21.9232

          k =-0.0838 0.1675 1.2186 (  2012 PWs)   bands (ev):

   -29.3857   2.7208   4.1443   5.4943   7.5996   9.0240  14.1802  15.8252
    17.5816  17.9713  18.4447  19.3063  20.6085  21.4680

          k =-0.1675 0.1675 1.3927 (  1998 PWs)   bands (ev):

   -29.3973   1.5668   3.0156   5.1434   8.0051  10.9817  15.5666  16.0902
    17.0275  19.1368  19.7470  20.3459  20.4827  22.4965

          k = 0.5863 0.1675-0.1741 (  1996 PWs)   bands (ev):

   -29.4073   0.6561   2.4916   5.1832   8.1181  13.2745  14.6080  16.0678
    17.3219  19.2911  19.8377  21.2560  21.8952  23.3519

          k = 0.5025 0.1675 0.0000 (  1991 PWs)   bands (ev):

   -29.4111   0.0888   2.5136   5.5782   8.6223  12.2509  15.3346  16.4387
    16.7768  19.0707  20.0644  20.2993  23.2451  24.1337

          k = 0.4188 0.1675 0.1741 (  2001 PWs)   bands (ev):

   -29.4081  -0.0725   3.0266   6.3072   9.5636  11.1976  14.6773  15.1341
    15.3267  18.2067  20.4991  20.9032  21.8267  23.6468

          k = 0.2513 0.1675 0.5223 (  2015 PWs)   bands (ev):

   -29.3864   0.8944   5.4019   8.6999   9.3665  10.5308  11.7127  12.6596
    14.1523  14.8820  15.7374  18.5458  22.1032  22.9901

          k = 0.0838-0.5025-0.5223 (  2008 PWs)   bands (ev):

   -29.3855   1.7852   4.6085   6.4837   8.3962   9.8531  12.9833  14.8779
    15.1010  17.4553  17.6851  18.6789  21.1910  21.3332

          k =-0.0838-0.5025-0.1741 (  1998 PWs)   bands (ev):

   -29.4076   0.2497   3.1149   5.1156   8.5170  13.6062  14.2417  14.7123
    17.5366  18.6087  19.9311  20.8604  22.4141  22.9579

          k = 0.5863-0.5025-1.5668 (  2003 PWs)   bands (ev):

   -29.4081   0.3036   2.3558   6.5557   8.8853  12.0756  13.8003  14.6571
    17.2360  18.1020  20.1975  22.2595  22.8412  23.3350

          k = 0.4188-0.5025-1.2186 (  2010 PWs)   bands (ev):

   -29.3858   1.6870   3.6871   8.9126   9.4590  10.2400  11.9460  12.1508
    14.1398  16.9725  18.0104  19.3469  20.0300  21.2302

          k = 0.3350-0.5025-1.0445 (  2005 PWs)   bands (ev):

   -29.3751   2.8275   5.1555   6.9490   8.3089  11.1514  12.1475  13.4098
    13.9932  14.5142  16.1397  18.0324  19.2407  22.0275

          k = 0.2513-0.5025-0.8705 (  2003 PWs)   bands (ev):

   -29.3710   4.2708   4.9357   6.4321   7.4236  10.9600  12.3161  13.3066
    13.5117  15.7456  16.3767  16.7886  19.6000  21.4071

          k = 0.0838-0.3350-0.1741 (  2007 PWs)   bands (ev):

   -29.4088  -0.4727   3.9647   6.1272  10.1272  10.8272  13.5755  15.1586
    16.0223  18.1193  19.0407  19.8631  22.6429  23.1881

          k = 0.5863-0.3350-1.2186 (  2006 PWs)   bands (ev):

   -29.3856   1.3001   4.3865   8.8419   9.3476  10.4522  11.5947  12.8586
    13.9518  15.8345  16.9328  18.9580  20.8156  23.2209

          k = 0.4188-0.3350-0.8705 (  2008 PWs)   bands (ev):

   -29.3714   4.6823   4.7922   5.9702   7.0846  12.2591  12.6132  13.7513
    14.2055  14.5319  15.2601  15.8315  20.1004  21.9764

          k = 0.2513 0.0000 0.8705 (  2019 PWs)   bands (ev):

   -29.3722   3.7072   5.2922   7.5152   8.1816   9.5497  10.3959  12.4948
    14.2507  15.4478  17.8269  19.5397  20.1643  21.6352

          k = 0.0838-0.0000 1.2186 (  2010 PWs)   bands (ev):

   -29.3856   3.3296   4.2395   4.6128   7.2666   8.7982  15.0738  16.2989
    17.0411  18.2198  19.4745  19.9220  21.1099  21.7111

          k = 0.0000-0.0000 1.3927 (  2002 PWs)   bands (ev):

   -29.3975   2.7980   3.2332   3.2332   7.2327  10.7466  17.9385  18.8867
    18.8867  19.7917  19.8301  19.8301  20.3727  21.5464

          k = 0.7538 0.0000-0.1741 (  1994 PWs)   bands (ev):

   -29.4070   1.7887   2.6960   3.0947   7.0340  13.6199  17.9243  18.2563
    19.7008  19.9912  20.3245  20.6445  21.2552  21.9016

          k = 0.6701 0.0000 0.0000 (  1986 PWs)   bands (ev):

   -29.4102   1.0333   2.6357   3.4963   7.2147  16.1533  16.1807  16.9693
    18.2338  19.2646  19.9345  21.8414  21.9867  22.7244

          k = 0.5863 0.0000 0.1741 (  1990 PWs)   bands (ev):

   -29.4069   0.7032   3.0527   4.2486   7.8329  13.7276  15.4385  15.9526
    18.6025  19.0262  19.5687  20.9320  21.6463  23.3214

          k = 0.4188 0.0000 0.5223 (  2008 PWs)   bands (ev):

   -29.3856   1.3581   5.2814   6.5826   8.7567  10.5510  12.7543  13.7709
    14.3566  16.0247  17.7182  19.2265  20.2313  21.7541

          k = 0.2513-0.6701-0.5223 (  2008 PWs)   bands (ev):

   -29.3855   2.2108   3.9465   6.6503   8.1134   9.4885  13.1110  15.0397
    16.4037  17.2806  18.0043  19.8302  20.2512  21.7619

          k = 0.0838-0.6701-0.1741 (  1991 PWs)   bands (ev):

   -29.4069   1.1729   2.6401   3.9982   7.4195  13.6803  15.9785  17.8469
    18.0132  19.7891  20.2681  20.6488  21.6332  22.8807

          k = 0.4188-0.6701-0.8705 (  2004 PWs)   bands (ev):

   -29.3711   4.2670   4.6820   7.0286   7.5749  10.4619  11.2207  13.3530
    14.1319  15.9072  16.4632  17.9081  19.8288  20.1535

          k = 0.1675-0.0838-0.5223 (  2012 PWs)   bands (ev):

   -29.3862   0.5988   6.5561   8.4835   9.6372  10.4167  11.8189  12.1714
    12.9379  14.6328  16.3848  18.4029  20.7625  22.3731

          k = 0.1675-0.2513-0.8705 (  2013 PWs)   bands (ev):

   -29.3717   3.8566   5.2647   6.8383   7.9899  10.1646  11.0149  12.7793
    13.9640  15.5843  17.5657  18.6187  19.1319  21.5307

          k = 0.1675-0.3350-1.0445 (  2007 PWs)   bands (ev):

   -29.3752   3.1592   5.3082   6.3262   8.1153  10.2341  11.2519  13.3143
    15.8187  16.6932  17.0067  17.3775  19.9915  20.7387

          k = 0.1675 0.4188 0.5223 (  2010 PWs)   bands (ev):

   -29.3858   1.4640   4.4748   7.6653   8.8598  10.5601  12.2879  13.0927
    15.0302  15.8113  17.6312  19.2512  20.3093  22.3642

          k = 0.1675 0.3350 0.3482 (  2003 PWs)   bands (ev):

   -29.3982   0.1947   3.9965   7.4225   9.7770  11.9018  12.5162  13.3002
    14.3347  16.5413  18.0481  19.8887  22.2641  23.3201

          k = 0.1675 0.2513 0.1741 (  2010 PWs)   bands (ev):

   -29.4092  -0.6290   3.9551   7.5000   8.7332  11.8998  12.7782  14.3226
    16.2511  17.4311  19.8760  20.4199  21.6895  22.9217

          k = 0.1675 0.0838-0.1741 (  2007 PWs)   bands (ev):

   -29.4093  -0.9183   5.1082   7.2065   8.6825  10.4201  13.8640  15.4762
    16.0675  17.6673  18.4993  19.0671  20.1299  22.3655

          k = 0.3350-0.0838-0.8705 (  2016 PWs)   bands (ev):

   -29.3719   3.9795   4.8721   7.3849   8.2477   9.3543  10.8854  12.9530
    14.0495  16.5466  17.2726  17.9359  20.0262  20.5751

          k = 0.3350-0.2513-1.2186 (  2009 PWs)   bands (ev):

   -29.3856   1.8626   3.7787   7.9255   8.7018  10.0485  12.2286  13.5236
    15.3555  16.7821  17.8482  19.3805  20.7684  21.3213

          k = 0.3350 0.4188 0.1741 (  2003 PWs)   bands (ev):

   -29.4083   0.1256   2.2806   8.0114   9.2217  10.7978  12.7768  14.9570
    16.4913  18.0717  19.9332  22.4821  23.3427  23.8395

          k = 0.3350 0.2513-0.1741 (  2005 PWs)   bands (ev):

   -29.4086  -0.2370   2.9557   7.6611   9.4429  10.7054  13.4558  14.8047
    15.5691  17.6344  21.0817  21.3828  22.3086  23.0477

          k = 0.3350 0.0838-0.5223 (  2015 PWs)   bands (ev):

   -29.3863   1.0517   5.4351   7.4518   9.1529  11.1303  12.1846  12.7175
    14.0055  15.5004  16.5137  18.7540  20.9898  23.4096

          k = 0.1675 0.0838-0.8705 (  2027 PWs)   bands (ev):

   -29.3727   3.5626   5.7535   7.1174   8.0932   9.8659  10.5097  12.4471
    13.5255  15.1156  18.8252  19.2589  20.9241  22.1656

          k = 0.1675-0.0838-1.2186 (  2012 PWs)   bands (ev):

   -29.3857   2.7209   4.1439   5.4946   7.6016   9.0207  14.1254  16.2374
    16.9615  17.7403  19.0958  19.6077  19.9009  21.5479

          k = 0.1675 0.5863 0.1741 (  1996 PWs)   bands (ev):

   -29.4073   0.6565   2.4894   5.1941   8.0874  13.5800  14.4825  15.4865
    18.0905  18.4432  20.5330  21.9410  22.2415  22.3511

          k = 0.1675 0.5025 0.0000 (  1991 PWs)   bands (ev):

   -29.4111   0.0892   2.5094   5.6110   8.4929  12.9049  14.3265  16.3619
    16.7768  20.0641  20.2939  21.1629  21.7725  23.2425

          k = 0.1675 0.4188-0.1741 (  2001 PWs)   bands (ev):

   -29.4082  -0.0722   3.0219   6.3641   9.1696  12.2825  13.6046  14.2695
    16.7696  17.7763  21.0229  21.0492  22.3122  23.1929

          k = 0.1675 0.2513-0.5223 (  2015 PWs)   bands (ev):

   -29.3864   0.8944   5.4032   8.6233   9.5536  10.3479  11.7471  13.1027
    13.4882  14.9263  15.9956  18.5770  22.1649  22.9160

          k =-0.5025 0.0838 0.5223 (  2008 PWs)   bands (ev):

   -29.3855   1.7852   4.6099   6.4808   8.3817   9.8829  13.1423  14.1576
    16.0295  16.3543  18.5905  19.6458  19.8879  20.7824

          k =-0.5025-0.0838 0.1741 (  1998 PWs)   bands (ev):

   -29.4076   0.2495   3.1202   5.0963   8.5838  12.9053  14.6519  15.5226
    16.8647  18.9017  19.6566  20.6959  21.6648  24.1418

          k =-0.5025 0.5863 1.5668 (  2003 PWs)   bands (ev):

   -29.4081   0.3034   2.3575   6.5243   9.0234  11.6618  14.1841  14.8775
    16.6904  18.6724  19.7388  22.0555  22.2648  23.5449

          k =-0.5025 0.4188 1.2186 (  2010 PWs)   bands (ev):

   -29.3858   1.6870   3.6873   8.9434   9.3517  10.3880  11.7130  12.3561
    14.0387  16.9607  18.3373  19.3442  19.6434  21.2871

          k =-0.5025 0.2513 0.8705 (  2003 PWs)   bands (ev):

   -29.3710   4.2718   4.9318   6.4502   7.3958  11.2634  11.7246  13.2703
    14.2903  15.1732  16.0076  17.3916  19.5372  21.2153

          k =-0.3350 0.0838 0.1741 (  2007 PWs)   bands (ev):

   -29.4088  -0.4726   3.9575   6.1696   9.5850  12.1136  12.6945  14.6468
    16.8261  17.9201  19.0955  19.9434  22.7877  23.3641

          k =-0.3350 0.5863 1.2186 (  2006 PWs)   bands (ev):

   -29.3856   1.3001   4.3860   8.8583   9.3806  10.3208  11.7598  12.5995
    14.3401  15.7058  16.7935  18.7648  21.3905  22.8007

          k =-0.6701 0.2513 0.5223 (  2008 PWs)   bands (ev):

   -29.3855   2.2108   3.9460   6.6506   8.1248   9.4703  13.0556  15.3445
    16.4400  16.8430  17.9975  19.6224  20.8025  21.4537

          k =-0.6701 0.0838 0.1741 (  1991 PWs)   bands (ev):

   -29.4068   1.1732   2.6382   4.0015   7.4146  13.7079  16.1923  16.9439
    18.8132  19.3210  20.7120  21.1704  21.8492  22.0211

     the Fermi energy is    16.9347 ev

!    total energy              =     -47.60731503 Ry
     estimated scf accuracy    <          7.9E-09 Ry
     smearing contrib. (-TS)   =      -0.00060082 Ry
     internal energy E=F+TS    =     -47.60671421 Ry

     The total energy is F=E-TS. E is the sum of the following terms:
     one-electron contribution =      21.79311950 Ry
     hartree contribution      =       2.82026850 Ry
     xc contribution           =     -17.58764447 Ry
     ewald contribution        =     -54.63245774 Ry

     convergence has been achieved in   8 iterations

     Forces acting on atoms (cartesian axes, Ry/au):

     atom    1 type  1   force =    -0.04296426    0.02259893    0.00000000
     atom    2 type  1   force =     0.04296426   -0.02259893    0.00000000
     atom    3 type  1   force =    -0.02259893   -0.04296426   -0.00000000
     atom    4 type  1   force =     0.02259893    0.04296426   -0.00000000
     atom    5 type  2   force =    -0.00000000   -0.00000000    0.00000000
     The non-local contrib.  to forces
     atom    1 type  1   force =    -0.06161028    0.00852960    0.00000000
     atom    2 type  1   force =     0.06161028   -0.00852960    0.00000000
     atom    3 type  1   force =    -0.00852960   -0.06161028   -0.00000000
     atom    4 type  1   force =     0.00852960    0.06161028   -0.00000000
     atom    5 type  2   force =    -0.00000000    0.00000000    0.00000000
     The ionic contribution  to forces
     atom    1 type  1   force =    -0.11403687    0.04230968   -0.00000000
     atom    2 type  1   force =     0.11403687   -0.04230968   -0.00000000
     atom    3 type  1   force =    -0.04230968   -0.11403687   -0.00000000
     atom    4 type  1   force =     0.04230968    0.11403687   -0.00000000
     atom    5 type  2   force =     0.00000000    0.00000000   -0.00000000
     The local contribution  to forces
     atom    1 type  1   force =     0.12767364   -0.02587251   -0.00000000
     atom    2 type  1   force =    -0.12767364    0.02587251    0.00000000
     atom    3 type  1   force =     0.02587251    0.12767364   -0.00000000
     atom    4 type  1   force =    -0.02587251   -0.12767364    0.00000000
     atom    5 type  2   force =     0.00000000    0.00000000    0.00000000
     The core correction contribution to forces
     atom    1 type  1   force =     0.00500711   -0.00240850    0.00000000
     atom    2 type  1   force =    -0.00500711    0.00240850    0.00000000
     atom    3 type  1   force =     0.00240850    0.00500711    0.00000000
     atom    4 type  1   force =    -0.00240850   -0.00500711   -0.00000000
     atom    5 type  2   force =     0.00000000    0.00000000    0.00000000
     The Hubbard contrib.    to forces
     atom    1 type  1   force =     0.00000000    0.00000000    0.00000000
     atom    2 type  1   force =     0.00000000    0.00000000    0.00000000
     atom    3 type  1   force =     0.00000000    0.00000000    0.00000000
     atom    4 type  1   force =     0.00000000    0.00000000    0.00000000
     atom    5 type  2   force =     0.00000000    0.00000000    0.00000000
     The SCF correction term to forces
     atom    1 type  1   force =     0.00000214    0.00004066    0.00000000
     atom    2 type  1   force =    -0.00000214   -0.00004066   -0.00000000
     atom    3 type  1   force =    -0.00004066    0.00000214   -0.00000000
     atom    4 type  1   force =     0.00004066   -0.00000214    0.00000000
     atom    5 type  2   force =     0.00000000    0.00000000   -0.00000000

     Total force =     0.097090     Total SCF correction =     0.000081


     Computing stress (Cartesian axis) and pressure

          total   stress  (Ry/bohr**3)                   (kbar)     P=     1220.07
   0.00786859  -0.00000000  -0.00000000         1157.51       -0.00       -0.00
   0.00000000   0.00786859   0.00000000            0.00     1157.51        0.00
  -0.00000000   0.00000000   0.00914450           -0.00        0.00     1345.20

     Energy error            =      2.2E+00 Ry
     Gradient error          =      4.3E-02 Ry/Bohr
     Cell gradient error     =      8.5E+02 kbar

     number of scf cycles    =   2
     number of bfgs steps    =   1

     enthalpy           old  =     -44.4266464456 Ry
     enthalpy           new  =     -46.6463426302 Ry

     CASE: enthalpy          _new < enthalpy          _old

     new trust radius        =       0.2020396627 bohr
ibrav =      7
 celldm(1) =     10.70612290
 celldm(3) =      0.50273692
Input lattice vectors:
     0.60560961    -0.60560961     0.30446231
     0.60560961     0.60560961     0.30446231
    -0.60560961    -0.60560961     0.30446231
New lattice vectors in INITIAL alat:
     0.60560961    -0.60560961     0.30446231
     0.60560961     0.60560961     0.30446231
    -0.60560961    -0.60560961     0.30446231
New lattice vectors in NEW alat (for information only):
     0.50000000    -0.50000000     0.25136846
     0.50000000     0.50000000     0.25136846
    -0.50000000    -0.50000000     0.25136846
Discrepancy in bohr =     0.000000    0.000000    0.000000
     new conv_thr            =       0.0000000043 Ry

     new unit-cell volume =    308.46611 a.u.^3 (    45.70996 Ang^3 )
     density =      4.33328 g/cm^3

CELL_PARAMETERS (alat=  8.83912893)
   0.605609613  -0.605609613   0.304462312
   0.605609613   0.605609613   0.304462312
  -0.605609613  -0.605609613   0.304462312

ATOMIC_POSITIONS (crystal)
Si           -0.6066733032        0.7068189399       -0.1001456367
Si            0.6066733032        0.2931810601       -0.8998543633
Si            0.1930354233        0.1001456367       -0.2931810601
Si           -0.1930354233        0.8998543633       -0.7068189399
Li            0.0000000000        0.5000000000        0.5000000000



     Writing config-only to output data dir ./output/SiLi.save/
     NEW-OLD atomic charge density approx. for the potential
     extrapolated charge   20.58477, renormalised to   19.00000

     total cpu time spent up to now is       24.8 secs

     Self-consistent Calculation

     iteration #  1     ecut=    80.00 Ry     beta= 0.70
     Davidson diagonalization with overlap
     c_bands:  1 eigenvalues not converged
     c_bands:  1 eigenvalues not converged
     c_bands:  1 eigenvalues not converged
     c_bands:  1 eigenvalues not converged
     c_bands:  2 eigenvalues not converged
     c_bands:  1 eigenvalues not converged
     c_bands:  1 eigenvalues not converged
     c_bands:  1 eigenvalues not converged
     c_bands:  1 eigenvalues not converged
     ethr =  1.00E-06,  avg # of iterations = 12.8

     total cpu time spent up to now is       27.4 secs

     total energy              =     -47.79459555 Ry
     estimated scf accuracy    <       0.00160259 Ry

     iteration #  2     ecut=    80.00 Ry     beta= 0.70
     Davidson diagonalization with overlap
     ethr =  8.43E-06,  avg # of iterations =  3.1

     total cpu time spent up to now is       28.5 secs

     total energy              =     -47.79947457 Ry
     estimated scf accuracy    <       0.00169009 Ry

     iteration #  3     ecut=    80.00 Ry     beta= 0.70
     Davidson diagonalization with overlap
     ethr =  8.43E-06,  avg # of iterations =  1.0

     total cpu time spent up to now is       29.3 secs

     total energy              =     -47.79949366 Ry
     estimated scf accuracy    <       0.00033081 Ry

     iteration #  4     ecut=    80.00 Ry     beta= 0.70
     Davidson diagonalization with overlap
     ethr =  1.74E-06,  avg # of iterations =  1.8

     total cpu time spent up to now is       30.0 secs

     total energy              =     -47.79941837 Ry
     estimated scf accuracy    <       0.00014194 Ry

     iteration #  5     ecut=    80.00 Ry     beta= 0.70
     Davidson diagonalization with overlap
     ethr =  7.47E-07,  avg # of iterations =  2.0

     total cpu time spent up to now is       30.8 secs

     total energy              =     -47.79944347 Ry
     estimated scf accuracy    <       0.00000054 Ry

     iteration #  6     ecut=    80.00 Ry     beta= 0.70
     Davidson diagonalization with overlap
     ethr =  2.83E-09,  avg # of iterations =  4.4

     total cpu time spent up to now is       31.8 secs

     total energy              =     -47.79944372 Ry
     estimated scf accuracy    <       0.00000048 Ry

     iteration #  7     ecut=    80.00 Ry     beta= 0.70
     Davidson diagonalization with overlap
     ethr =  2.52E-09,  avg # of iterations =  2.0

     total cpu time spent up to now is       32.6 secs

     End of self-consistent calculation

          k = 0.0000 0.0000 0.0000 (  1999 PWs)   bands (ev):

   -30.7832  -1.8840   5.6984   6.6311   6.6311   8.2050  15.1782  15.1782
    15.5057  16.3397  16.7176  17.1401  17.1401  19.5647

          k =-0.0826-0.0000 0.1642 (  2008 PWs)   bands (ev):

   -30.7823  -1.6765   5.4092   6.5329   7.3160   8.6291  13.9801  14.3252
    15.0990  15.6318  15.8947  16.2295  17.2028  19.7460

          k =-0.1651-0.0000 0.3284 (  2012 PWs)   bands (ev):

   -30.7770  -1.0545   5.2468   6.4690   8.5966   9.6191  11.4017  12.3954
    13.1302  14.1869  15.4512  16.4139  18.3857  20.5322

          k =-0.2477-0.0000 0.4927 (  2018 PWs)   bands (ev):

   -30.7708  -0.0211   5.4657   6.5864   8.1350  10.3862  10.4444  11.1210
    11.5361  13.2256  15.2252  17.3630  18.9318  22.2246

          k =-0.3302-0.0000 0.6569 (  2017 PWs)   bands (ev):

   -30.7657   1.4139   5.4737   6.0859   7.1077   8.7231   9.8470  11.6688
    12.7223  13.3625  15.5861  18.2001  19.0878  19.1517

          k = 0.4128 0.0000-0.8211 (  2010 PWs)   bands (ev):

   -30.7624   2.9902   3.5569   6.8983   7.0951   7.8004   9.2062  11.9851
    12.7510  15.5581  16.1218  16.5895  17.4970  20.4572

          k =-0.0826 0.1651 0.4927 (  2012 PWs)   bands (ev):

   -30.7699  -0.1742   5.6977   7.5668   8.3647   9.3577  10.1336  10.9152
    11.4963  13.2583  15.0007  16.9608  19.3693  21.0762

          k =-0.1651 0.1651 0.6569 (  2022 PWs)   bands (ev):

   -30.7661   1.1070   6.1278   6.3601   7.4349   9.3667   9.9537  10.0362
    11.9138  13.1201  15.4635  17.1002  19.9234  21.4917

          k =-0.2477 0.1651 0.8211 (  2013 PWs)   bands (ev):

   -30.7628   2.7568   4.1961   5.6477   7.1022   8.5621  10.2157  11.3999
    12.2563  15.0819  15.7182  17.0111  17.7630  20.1930

          k =-0.3302 0.1651 0.9853 (  2007 PWs)   bands (ev):

   -30.7643   2.2464   4.2477   5.0782   7.4624   8.2667  10.4408  12.3177
    14.0543  14.5279  15.4916  17.6612  17.9468  19.0259

          k = 0.4128 0.1651-0.4927 (  2010 PWs)   bands (ev):

   -30.7702   0.6922   3.6105   6.6988   7.5062   9.3109  10.8641  12.0522
    13.6672  14.7039  15.6551  17.1486  19.9364  20.7966

          k = 0.3302 0.1651-0.3284 (  2003 PWs)   bands (ev):

   -30.7762  -0.4747   3.2334   6.5338   9.2783  10.0985  10.7828  12.1197
    13.8104  14.6791  15.6393  18.4319  20.1793  22.4966

          k = 0.2477 0.1651-0.1642 (  2010 PWs)   bands (ev):

   -30.7819  -1.2366   3.2475   6.6035   8.2382  10.3240  12.4825  13.3121
    13.5179  15.4425  17.5719  18.9623  19.8271  21.0332

          k = 0.1651 0.1651 0.0000 (  2014 PWs)   bands (ev):

   -30.7848  -1.5877   3.6489   6.9441   7.2186  10.1246  12.5980  13.5080
    15.6639  16.6162  18.1973  18.8198  18.9737  19.7864

          k = 0.0826 0.1651 0.1642 (  2007 PWs)   bands (ev):

   -30.7816  -1.5266   4.3959   6.4611   7.7631   9.7034  12.8632  13.5399
    14.5960  15.5424  16.6648  17.2552  18.6871  20.2178

          k =-0.0826 0.3302 0.8211 (  2016 PWs)   bands (ev):

   -30.7631   2.8745   3.7935   6.3943   6.9216   8.5691   9.2226  11.6192
    13.3415  14.2093  16.4314  17.1553  17.7701  19.2751

          k =-0.2477 0.3302 1.1496 (  2009 PWs)   bands (ev):

   -30.7702   1.1023   2.9017   7.0566   7.1820   9.0388  10.6537  12.4502
    14.0195  15.2524  16.6208  17.6051  18.5635  20.0529

          k =-0.3302 0.3302 1.3138 (  2011 PWs)   bands (ev):

   -30.7770   0.1971   1.9533   7.0448   8.6680   9.9287  10.9638  11.8237
    13.3699  17.7321  18.0591  18.4938  18.8018  20.5141

          k = 0.4128 0.3302-0.1642 (  2003 PWs)   bands (ev):

   -30.7811  -0.4652   1.5570   7.1805   8.8251   9.4311  11.7931  12.9813
    14.4801  16.7175  18.4559  20.2350  20.5422  21.4594

          k = 0.3302 0.3302 0.0000 (  1998 PWs)   bands (ev):

   -30.7828  -0.8281   1.6701   7.4725   7.9504   9.8378  11.6023  14.9580
    15.0457  16.1009  18.0518  19.7273  20.8612  21.2972

          k = 0.2477 0.3302 0.1642 (  2005 PWs)   bands (ev):

   -30.7813  -0.8399   2.2406   7.0347   8.1400  10.7290  11.6897  12.8485
    14.2248  15.4836  18.9234  20.3006  20.4387  21.0748

          k = 0.0826 0.3302 0.4927 (  2015 PWs)   bands (ev):

   -30.7707   0.2773   4.5875   6.4719   7.7391  10.1502  10.7429  11.3579
    12.8299  13.5899  15.4225  17.4327  19.6703  20.4204

          k = 0.0826-0.0000 0.4927 (  2014 PWs)   bands (ev):

   -30.7696  -0.3261   6.6966   7.7099   8.3875   9.2991   9.7487  10.3961
    10.7142  13.3048  16.0130  17.0432  18.1250  20.1699

          k = 0.0000-0.0000 0.6569 (  2030 PWs)   bands (ev):

   -30.7674   0.8031   7.2384   7.8159   7.8159   8.7830   9.0620   9.6261
     9.6261  12.7653  18.1208  18.1208  18.2629  20.1711

          k =-0.0826-0.0000 0.8211 (  2030 PWs)   bands (ev):

   -30.7649   2.3172   5.2558   6.1436   6.4466   8.6168   9.6200  10.9732
    11.4753  13.4139  18.3168  19.4683  19.9787  20.9447

          k =-0.1651-0.0000 0.9853 (  2011 PWs)   bands (ev):

   -30.7643   3.1598   4.1915   4.7628   5.5364   8.2479  10.7528  12.2161
    14.0510  15.3329  18.0033  18.2866  18.9855  20.5538

          k = 0.5779 0.0000-0.4927 (  2012 PWs)   bands (ev):

   -30.7708   1.4603   3.7832   4.7467   6.4719   8.2419  12.2430  13.4411
    15.6487  16.5130  17.0751  18.0193  18.2884  19.2002

          k = 0.4954 0.0000-0.3284 (  2013 PWs)   bands (ev):

   -30.7773   0.1370   3.2255   4.4708   7.8151   9.6231  13.5839  13.6454
    14.4484  15.8583  17.4710  18.0807  19.7446  21.1773

          k = 0.4128 0.0000-0.1642 (  2001 PWs)   bands (ev):

   -30.7805  -0.7800   3.0968   4.4932   8.3675  11.5710  12.6196  12.8815
    16.2513  16.5718  16.8430  17.8540  20.2211  21.5961

          k = 0.3302 0.0000 0.0000 (  2005 PWs)   bands (ev):

   -30.7831  -1.2845   3.3974   4.8331   8.9031  10.5443  11.9616  14.8231
    15.6914  16.4245  17.7432  18.5656  19.0206  21.1573

          k = 0.2477-0.0000 0.1642 (  2005 PWs)   bands (ev):

   -30.7813  -1.3752   4.1206   5.4927   8.9445   9.9342  11.9874  13.3660
    15.5822  15.9548  16.2066  17.0342  19.6273  21.0876

          k = 0.0826 0.1651 0.8211 (  2027 PWs)   bands (ev):

   -30.7649   2.4656   4.6809   5.9664   7.2079   8.2816   9.5327  11.0755
    12.0690  14.0592  16.9633  18.6333  18.9505  20.6446

          k =-0.0826 0.1651 1.1496 (  2012 PWs)   bands (ev):

   -30.7706   1.9434   3.3158   4.6581   6.1344   7.9212  12.5295  14.2860
    15.8914  16.7488  17.2211  17.6629  19.1640  20.1543

          k =-0.1651 0.1651 1.3138 (  1998 PWs)   bands (ev):

   -30.7753   0.8993   2.2715   4.4030   6.8882   9.3526  14.1575  14.6157
    15.9903  17.4704  17.7314  18.8500  19.1055  20.6594

          k = 0.5779 0.1651-0.1642 (  1996 PWs)   bands (ev):

   -30.7801   0.0530   1.8000   4.4808   7.1357  11.8342  13.0804  14.9370
    15.9117  17.4049  18.4503  19.3511  19.6022  21.0503

          k = 0.4954 0.1651 0.0000 (  1991 PWs)   bands (ev):

   -30.7810  -0.4945   1.8372   4.8678   7.7008  11.4182  14.2259  14.2930
    15.3679  17.2023  17.5209  19.1669  20.7112  21.7055

          k = 0.4128 0.1651 0.1642 (  2001 PWs)   bands (ev):

   -30.7810  -0.6782   2.3251   5.5517   8.6506  10.3566  12.7543  13.9514
    14.0366  16.0603  18.5075  19.2677  19.8378  21.4382

          k = 0.2477 0.1651 0.4927 (  2015 PWs)   bands (ev):

   -30.7708   0.1214   4.5341   7.6621   8.2347   9.1103  10.3554  11.6807
    12.5849  13.4701  14.3445  16.9827  20.7600  21.1630

          k = 0.0826-0.4954-0.4927 (  2008 PWs)   bands (ev):

   -30.7700   1.0091   3.7706   5.5526   6.9493   8.8197  11.4278  13.3769
    13.8396  16.0239  16.5340  17.1258  19.5342  19.7390

          k =-0.0826-0.4954-0.1642 (  1998 PWs)   bands (ev):

   -30.7804  -0.3609   2.4398   4.3688   7.5808  12.0577  12.9475  13.7229
    15.9506  16.5543  18.3797  18.8945  20.0655  21.5187

          k = 0.5779-0.4954-1.4780 (  2003 PWs)   bands (ev):

   -30.7812  -0.2913   1.6428   5.8274   7.9720  11.2086  12.3014  13.0472
    15.2567  16.6748  18.8747  19.8940  20.3482  21.5125

          k = 0.4128-0.4954-1.1496 (  2010 PWs)   bands (ev):

   -30.7704   0.9304   2.8015   7.5958   8.4325   8.9666  10.8150  10.8711
    13.0400  15.3070  16.3055  17.8456  18.2410  19.7962

          k = 0.3302-0.4954-0.9853 (  2005 PWs)   bands (ev):

   -30.7641   1.9210   4.1250   5.6925   7.0923  10.1076  10.9298  12.1313
    12.8018  13.1396  14.7287  16.3794  17.7633  20.1088

          k = 0.2477-0.4954-0.8211 (  2003 PWs)   bands (ev):

   -30.7614   3.1707   3.8655   5.2327   6.4142   9.7676  10.9986  11.9687
    12.3128  14.5715  14.9846  15.3746  17.9386  19.7379

          k = 0.0826-0.3302-0.1642 (  2007 PWs)   bands (ev):

   -30.7815  -1.0817   3.2727   5.3379   9.2669  10.0036  12.5306  13.0347
    14.8664  15.9731  17.1811  18.0585  20.2750  20.9491

          k = 0.5779-0.3302-1.1496 (  2006 PWs)   bands (ev):

   -30.7698   0.5309   3.5128   7.7982   7.9667   9.4852  10.0240  11.7682
    12.9203  14.1546  15.3203  17.4495  18.9609  21.5789

          k = 0.4128-0.3302-0.8211 (  2008 PWs)   bands (ev):

   -30.7623   3.5932   3.7276   4.7369   6.0825  11.0792  11.3544  12.4608
    12.9395  13.2540  13.9255  14.4385  18.2587  20.4350

          k = 0.2477-0.0000 0.8211 (  2019 PWs)   bands (ev):

   -30.7638   2.6077   4.2110   6.4534   7.1017   8.3159   9.1117  11.1473
    12.9990  14.1547  16.3812  18.1753  18.8876  20.0159

          k = 0.0826-0.0000 1.1496 (  2010 PWs)   bands (ev):

   -30.7707   2.5425   3.4394   3.7954   5.8035   7.6597  13.4454  14.6004
    15.3430  16.5926  18.3259  18.7390  19.8541  20.3725

          k = 0.0000-0.0000 1.3138 (  2002 PWs)   bands (ev):

   -30.7765   2.1016   2.5324   2.5324   6.0713   9.0942  16.1350  17.1786
    17.1786  18.1349  18.5136  18.5136  19.3661  20.0914

          k = 0.7431-0.0000-0.1642 (  1994 PWs)   bands (ev):

   -30.7798   1.1616   2.0547   2.4365   5.9813  11.5945  16.9171  17.2102
    18.2418  18.3817  18.7627  18.9280  19.7751  20.1040

          k = 0.6605 0.0000 0.0000 (  1986 PWs)   bands (ev):

   -30.7802   0.4341   2.0117   2.8282   6.2120  13.6308  15.1818  16.0092
    16.6026  18.1387  18.6099  19.4930  20.6223  20.6974

          k = 0.5779-0.0000 0.1642 (  1990 PWs)   bands (ev):

   -30.7795   0.0877   2.4037   3.5226   6.8442  11.8299  14.3651  14.9412
    17.2101  17.4025  17.7831  18.6336  19.6232  21.8198

          k = 0.4128 0.0000 0.4927 (  2008 PWs)   bands (ev):

   -30.7698   0.5818   4.4648   5.6004   7.3185   9.5388  11.2598  12.2322
    13.2492  14.5264  16.2914  17.8957  18.8302  19.9208

          k = 0.2477-0.6605-0.4927 (  2008 PWs)   bands (ev):

   -30.7699   1.4433   3.0876   5.7951   6.6336   8.4300  11.4679  13.8569
    15.1052  15.9194  16.2571  18.1288  18.8210  20.2477

          k = 0.0826-0.6605-0.1642 (  1991 PWs)   bands (ev):

   -30.7794   0.5582   1.9776   3.3187   6.3961  11.7123  14.9392  16.6681
    16.8780  17.9761  18.5268  18.8574  19.4521  20.7887

          k = 0.4128-0.6605-0.8211 (  2004 PWs)   bands (ev):

   -30.7617   3.1531   3.6163   5.8300   6.5880   9.2268   9.9640  12.1230
    12.7606  14.6162  15.1592  16.5659  18.2221  18.5879

          k = 0.1651-0.0826-0.4927 (  2012 PWs)   bands (ev):

   -30.7699  -0.1742   5.6993   7.5334   8.4677   9.2059  10.2900  10.8423
    11.4884  13.2547  15.0038  16.9720  19.4203  21.0290

          k = 0.1651-0.2477-0.8211 (  2013 PWs)   bands (ev):

   -30.7628   2.7570   4.1919   5.6789   6.9911   8.8892   9.7745  11.4518
    12.6772  14.3068  16.3790  17.0476  17.6644  19.8002

          k = 0.1651-0.3302-0.9853 (  2007 PWs)   bands (ev):

   -30.7642   2.2461   4.2408   5.1171   7.1476   8.9151  10.0022  12.0224
    14.4601  15.2452  15.6870  15.9665  18.5150  19.1109

          k = 0.1651 0.4128 0.4927 (  2010 PWs)   bands (ev):

   -30.7702   0.6923   3.6108   6.7285   7.4142   9.5433  10.6593  12.0012
    13.9786  14.2008  15.9735  17.7651  18.5041  21.0784

          k = 0.1651 0.3302 0.3284 (  2003 PWs)   bands (ev):

   -30.7762  -0.4747   3.2308   6.5812   8.9097  10.2913  11.3840  12.2178
    12.6740  14.9638  16.0807  18.2274  20.8061  21.9515

          k = 0.1651 0.2477 0.1642 (  2010 PWs)   bands (ev):

   -30.7819  -1.2366   3.2447   6.7004   7.9588  11.0597  11.8118  12.8549
    14.1024  15.3794  17.7114  18.8770  20.1489  21.0031

          k = 0.1651 0.0826-0.1642 (  2007 PWs)   bands (ev):

   -30.7816  -1.5267   4.4001   6.4126   7.8823   9.5764  12.8286  13.9112
    14.3449  15.5437  16.4480  17.4904  18.5715  20.2951

          k = 0.3302-0.0826-0.8211 (  2016 PWs)   bands (ev):

   -30.7631   2.8741   3.7957   6.2866   7.2075   8.1065   9.5959  11.6450
    12.7915  15.1992  15.9573  16.5255  18.6470  18.9845

          k = 0.3302-0.2477-1.1496 (  2009 PWs)   bands (ev):

   -30.7702   1.1023   2.9016   6.9607   7.3198   8.9399  10.7236  12.4212
    14.2627  15.1029  16.1383  17.9688  18.9324  19.9480

          k = 0.3302 0.4128 0.1642 (  2003 PWs)   bands (ev):

   -30.7811  -0.4651   1.5565   7.2656   8.4088   9.9504  11.5762  12.9377
    14.5573  16.6159  18.6173  20.2192  20.6537  21.6600

          k = 0.3302 0.2477-0.1642 (  2005 PWs)   bands (ev):

   -30.7813  -0.8400   2.2421   6.8977   8.6269   9.8430  12.3593  13.1007
    13.8048  15.5893  18.8472  20.0639  20.1870  20.9369

          k = 0.3302 0.0826-0.4927 (  2015 PWs)   bands (ev):

   -30.7707   0.2773   4.5865   6.4717   7.7689   9.8840  10.9986  11.5826
    12.3576  13.9819  15.2704  17.2606  19.6233  21.4336

          k = 0.1651 0.0826-0.8211 (  2027 PWs)   bands (ev):

   -30.7649   2.4657   4.6769   6.0037   7.0740   8.5999   9.2321  11.1040
    12.2266  13.8876  17.2919  18.0103  19.4628  20.4611

          k = 0.1651-0.0826-1.1496 (  2012 PWs)   bands (ev):

   -30.7706   1.9434   3.3159   4.6573   6.1371   7.9181  12.4978  14.5323
    15.5346  16.4616  17.6563  18.0715  18.6269  20.1993

          k = 0.1651 0.5779 0.1642 (  1996 PWs)   bands (ev):

   -30.7801   0.0533   1.7981   4.4907   7.1102  11.9260  13.2079  14.4544
    16.2078  16.9191  19.1764  19.5346  19.9998  21.1419

          k = 0.1651 0.4954 0.0000 (  1991 PWs)   bands (ev):

   -30.7810  -0.4941   1.8336   4.8969   7.5926  12.0100  13.3911  14.2259
    15.1441  17.5193  18.4115  19.6011  20.5390  20.7208

          k = 0.1651 0.4128-0.1642 (  2001 PWs)   bands (ev):

   -30.7810  -0.6780   2.3211   5.6010   8.3185  11.3292  12.4088  12.7166
    14.9534  15.8193  18.6919  19.8200  20.3601  21.1518

          k = 0.1651 0.2477-0.4927 (  2015 PWs)   bands (ev):

   -30.7708   0.1214   4.5347   7.6779   8.1409   9.3306  10.1378  11.8678
    12.4784  13.3568  14.4472  17.0434  20.6554  21.2317

          k =-0.4954 0.0826 0.4927 (  2008 PWs)   bands (ev):

   -30.7700   1.0091   3.7707   5.5566   6.9281   8.8574  11.4946  12.8425
    14.7496  15.0928  16.9543  18.0438  18.2931  19.4563

          k =-0.4954-0.0826 0.1642 (  1998 PWs)   bands (ev):

   -30.7804  -0.3611   2.4445   4.3517   7.6356  11.7582  12.8246  14.4725
    15.7069  16.7813  18.0003  18.5938  19.6779  21.9445

          k =-0.4954 0.5779 1.4780 (  2003 PWs)   bands (ev):

[...]

          k = 0.0852 0.1704 0.1421 (  4048 PWs)   bands (ev):

   -31.8635  -2.0327   4.3195   6.3638   7.8316   9.6563  10.4592  11.6011
    12.6635  13.5301  14.5082  15.5949  16.4558  17.9844

          k =-0.0852 0.3409 0.7106 (  4048 PWs)   bands (ev):

   -31.8581   1.3353   2.4369   5.0914   6.0131   7.2710   8.3419  10.5465
    12.4307  13.5131  16.0001  16.6370  17.3602  18.6544

          k =-0.2556 0.3409 0.9948 (  4029 PWs)   bands (ev):

   -31.8599   0.4331   2.0763   4.8800   6.6916   7.9062   9.1983  12.3337
    13.3087  14.0444  14.9808  16.0341  18.2290  19.2214

          k =-0.3409 0.3409 1.1369 (  4037 PWs)   bands (ev):

   -31.8616  -0.2354   1.3375   6.7916   7.0727   8.4156   9.6880  11.0664
    12.8171  15.6157  16.1181  17.2498  18.0002  18.2520

          k = 0.4261 0.3409-0.1421 (  4050 PWs)   bands (ev):

   -31.8630  -0.7925   1.0984   7.3005   8.5890   9.4842   9.6216  10.6436
    12.1598  15.0335  16.3995  17.2093  17.8371  18.9384

          k = 0.3409 0.3409-0.0000 (  4049 PWs)   bands (ev):

   -31.8636  -1.1550   1.3080   7.6188   8.1221  10.0328  10.8600  11.1723
    11.8926  13.5206  15.1649  17.3479  17.8144  19.5840

          k = 0.2556 0.3409 0.1421 (  4040 PWs)   bands (ev):

   -31.8631  -1.2508   1.8972   7.0423   8.1897   9.5043  10.6190  10.9918
    12.1238  14.3448  15.5419  15.9011  17.3224  18.6983

          k = 0.0852 0.3409 0.4263 (  4047 PWs)   bands (ev):

   -31.8601  -0.5356   4.0091   5.2418   6.1871   8.5749   9.6950  10.2719
    12.2674  12.7661  14.4652  17.0909  18.7510  19.8354

          k = 0.0852-0.0000 0.4263 (  4065 PWs)   bands (ev):

   -31.8604  -1.2029   6.3929   6.8713   7.2755   8.0120   8.5491   8.6698
     8.9182  12.0956  16.0190  17.2214  18.1782  19.6684

          k = 0.0000-0.0000 0.5685 (  4081 PWs)   bands (ev):

   -31.8588  -0.3834   5.8625   6.2702   6.2702   7.7463   8.0204   8.9225
     8.9225  11.8961  18.0411  18.0411  18.2150  19.7452

          k =-0.0852-0.0000 0.7106 (  4044 PWs)   bands (ev):

   -31.8581   0.7462   4.0517   4.9580   5.3205   7.3688   8.6077   9.9504
    10.5687  12.5425  17.7988  19.0999  19.6560  20.8839

          k =-0.1704-0.0000 0.8527 (  4039 PWs)   bands (ev):

   -31.8584   1.9823   2.4721   3.9531   4.7562   7.2390   9.2596  10.7987
    12.7914  14.1178  17.4492  18.1639  19.1264  20.2258

          k = 0.5965 0.0000-0.4263 (  4041 PWs)   bands (ev):

   -31.8597   0.7744   3.2852   3.6322   4.7197   7.4270  10.2005  11.6038
    15.0451  15.9691  16.2592  16.6709  18.1056  19.0486

          k = 0.5113-0.0000-0.2842 (  4044 PWs)   bands (ev):

   -31.8614  -0.3752   2.9640   3.9951   6.2048   7.9692  11.4135  12.4699
    13.9341  14.8997  16.7444  17.0982  17.9078  18.8778

          k = 0.4261-0.0000-0.1421 (  4038 PWs)   bands (ev):

   -31.8630  -1.2029   2.9923   4.1896   7.9266   9.1190  12.1593  12.6184
    13.0379  14.2191  14.8261  17.0665  17.4470  18.5264

          k = 0.3409 0.0000 0.0000 (  4033 PWs)   bands (ev):

   -31.8637  -1.7000   3.3691   4.5929   8.9195  10.5742  10.8753  11.9130
    13.7044  13.7556  14.7203  16.2861  16.6023  17.5396

          k = 0.2556-0.0000 0.1421 (  4036 PWs)   bands (ev):

   -31.8634  -1.8649   4.0882   5.2338   8.9745   9.8236  10.2223  11.7050
    12.3085  13.4508  15.3723  15.7037  16.6513  17.4827

          k = 0.0852 0.1704 0.7106 (  4048 PWs)   bands (ev):

   -31.8581   0.9061   3.4122   4.7202   6.2037   7.1634   8.3555  10.0429
    11.1999  13.3024  16.3840  18.1204  18.6032  20.6346

          k =-0.0852 0.1704 0.9948 (  4029 PWs)   bands (ev):

   -31.8596   1.3348   2.6292   3.7941   4.3367   6.9607  10.4976  12.5214
    14.1019  15.8526  16.9786  17.4844  18.6919  19.3891

          k =-0.1704 0.1704 1.1369 (  4044 PWs)   bands (ev):

   -31.8612   0.5170   1.7852   4.2527   5.3460   7.2476  11.5847  14.6749
    15.1693  15.3835  16.2949  16.8325  18.4335  19.1728

          k = 0.5965 0.1704-0.1421 (  4030 PWs)   bands (ev):

   -31.8626  -0.2381   1.4447   4.4660   6.4200   8.5584  12.7045  13.2358
    14.4227  15.3469  16.3954  17.3602  17.9563  19.4337

          k = 0.5113 0.1704 0.0000 (  4044 PWs)   bands (ev):

   -31.8633  -0.7964   1.5468   4.8709   7.3090   9.9047  11.6712  13.3199
    13.5135  14.3096  15.6671  17.0968  18.0589  19.8499

          k = 0.4261 0.1704 0.1421 (  4041 PWs)   bands (ev):

   -31.8630  -1.0756   2.0185   5.4781   8.1604   9.2452  10.7361  11.8479
    14.1427  14.6534  14.9648  15.5468  17.9667  18.9962

          k = 0.2556 0.1704 0.4263 (  4054 PWs)   bands (ev):

   -31.8602  -0.7057   3.9252   5.8488   7.2718   7.6356   9.6397  10.6156
    11.5379  12.2066  14.3186  16.0276  19.6646  20.7059

          k = 0.0852-0.5113-0.4263 (  4048 PWs)   bands (ev):

   -31.8598   0.2785   3.1261   4.3134   5.4466   8.0443   9.5282  11.5123
    13.8238  14.7809  16.3058  16.7137  18.0056  18.9033

          k =-0.0852-0.5113-0.1421 (  4039 PWs)   bands (ev):

   -31.8628  -0.7304   2.2129   4.1913   7.0268   8.7425  12.8213  13.2859
    13.9699  14.3325  15.1173  17.1449  18.8336  19.4039

          k = 0.5965-0.5113-1.2790 (  4036 PWs)   bands (ev):

   -31.8629  -0.6066   1.2182   5.8966   7.4483   9.0157  11.5068  11.7173
    13.0789  14.6500  16.6420  17.2460  18.3506  18.6125

          k = 0.4261-0.5113-0.9948 (  4039 PWs)   bands (ev):

   -31.8600   0.2491   1.9574   5.3762   6.9137   8.3775  10.3381  10.6301
    12.6163  13.5237  14.5843  16.3042  17.6881  19.2268

          k = 0.3409-0.5113-0.8527 (  4050 PWs)   bands (ev):

   -31.8586   0.8776   2.9615   3.9151   5.6135   9.5965  10.3290  11.1119
    12.1278  12.2479  13.7882  15.1684  17.2984  19.1069

          k = 0.2556-0.5113-0.7106 (  4054 PWs)   bands (ev):

   -31.8581   1.6722   2.5279   3.7685   5.4025   8.8051  10.0334  11.0094
    11.4762  14.0369  14.2714  14.6432  17.2700  19.0568

          k = 0.0852-0.3409-0.1421 (  4040 PWs)   bands (ev):

   -31.8632  -1.5367   3.1046   5.1472   8.8015   9.7231  10.3637  11.8274
    13.0072  14.1607  15.1051  15.2695  17.2183  18.4544

          k = 0.5965-0.3409-0.9948 (  4040 PWs)   bands (ev):

   -31.8600  -0.2386   2.7847   5.5699   6.8199   8.6214   9.3289  11.2990
    12.3427  12.7464  14.1860  16.7593  17.3524  19.9858

          k = 0.4261-0.3409-0.7106 (  4044 PWs)   bands (ev):

   -31.8581   2.1568   2.3873   3.1777   5.0406  10.1750  10.5342  11.6191
    11.9986  12.6593  13.2223  13.5923  17.2415  20.1015

          k = 0.2556 0.0000 0.7106 (  4041 PWs)   bands (ev):

   -31.8581   1.0564   2.8842   5.3055   5.9892   7.2116   8.0595   9.9908
    12.2227  13.4125  15.6999  17.8112  18.7467  19.5211

          k = 0.0852-0.0000 0.9948 (  4031 PWs)   bands (ev):

   -31.8596   1.9908   2.9163   3.1808   3.6108   6.5708  11.5124  12.6955
    13.5020  14.8828  18.6857  19.1560  19.2485  19.8901

          k = 0.0000-0.0000 1.1369 (  4001 PWs)   bands (ev):

   -31.8610   1.8345   2.2220   2.2220   4.4873   6.7584  13.7121  14.7799
    14.7799  15.7534  16.6101  19.3666  19.3666  19.4964

          k = 0.7669 0.0000-0.1421 (  4028 PWs)   bands (ev):

   -31.8623   0.9611   1.8781   2.2894   4.9815   8.0671  13.7144  15.1256
    16.2543  17.1413  17.7640  18.2674  18.4200  19.4315

          k = 0.6817 0.0000-0.0000 (  4038 PWs)   bands (ev):

   -31.8629   0.2147   1.8879   2.7076   5.4521   9.2369  12.4226  15.7322
    16.1725  16.6607  16.9483  18.2961  18.5069  19.4249

          k = 0.5965-0.0000 0.1421 (  4041 PWs)   bands (ev):

   -31.8626  -0.2360   2.2511   3.2964   6.1190   8.4039  13.7723  13.8862
    14.7074  15.1473  15.9815  18.1054  18.5379  19.1046

          k = 0.4261 0.0000 0.4263 (  4048 PWs)   bands (ev):

   -31.8600  -0.2007   4.0167   4.3738   5.6137   8.8031   9.3312  10.6663
    13.2230  13.5386  15.4315  17.7664  18.3955  18.6342

          k = 0.2556-0.6817-0.4263 (  4038 PWs)   bands (ev):

   -31.8598   0.7981   2.3070   4.3330   5.4839   7.6015   9.4298  12.6255
    14.4136  14.8914  15.7503  16.5886  18.5198  19.0479

          k = 0.0852-0.6817-0.1421 (  4033 PWs)   bands (ev):

   -31.8624   0.3041   1.7234   3.2270   5.5218   8.2328  13.7637  14.0498
    15.7537  16.0917  17.1585  17.7778  18.0657  19.6234

          k = 0.4261-0.6817-0.7106 (  4064 PWs)   bands (ev):

   -31.8581   1.6234   2.2624   4.4305   5.6276   8.0873   9.0953  11.2144
    11.7163  13.9504  14.7004  15.9171  17.6487  18.1154

          k = 0.1704-0.0852-0.4263 (  4050 PWs)   bands (ev):

   -31.8603  -1.0351   5.2255   6.4181   6.8669   8.3380   8.7797   9.3511
    10.4119  12.2573  14.7674  16.6236  19.5108  21.0437

          k = 0.1704-0.2556-0.7106 (  4043 PWs)   bands (ev):

   -31.8581   1.2207   2.8820   4.3096   6.0540   7.7481   8.7603  10.4130
    11.8456  13.5364  16.0732  16.3866  17.1102  19.0763

          k = 0.1704-0.3409-0.8527 (  4040 PWs)   bands (ev):

   -31.8586   1.2145   2.7220   3.7751   6.2926   7.6387   9.0425  10.8650
    13.5724  14.1817  14.9905  15.6280  18.1811  18.2212

          k = 0.1704 0.4261 0.4263 (  4043 PWs)   bands (ev):

   -31.8600  -0.0646   2.9026   5.0252   6.3650   8.3462   9.3459  11.2653
    12.8294  14.0831  14.7177  16.7840  17.2390  20.3016

          k = 0.1704 0.3409 0.2842 (  4038 PWs)   bands (ev):

   -31.8618  -1.0479   2.8225   6.2819   7.3312   9.1019   9.6196  11.3254
    12.6530  13.1880  14.5582  16.3812  18.2329  19.8397

          k = 0.1704 0.2556 0.1421 (  4040 PWs)   bands (ev):

   -31.8633  -1.7069   3.0259   6.6357   8.0329   9.7830  11.0971  11.3430
    12.0713  13.7653  14.4146  15.8063  16.5566  18.2519

          k = 0.1704 0.0852-0.1421 (  4048 PWs)   bands (ev):

   -31.8635  -2.0327   4.3232   6.3274   7.9218   9.6026  10.4253  11.4689
    13.0109  13.4274  14.4230  15.9106  16.0654  17.8933

          k = 0.3409-0.0852-0.7106 (  4048 PWs)   bands (ev):

   -31.8581   1.3351   2.4379   5.0425   6.2445   6.9077   8.6013  10.5701
    11.9221  14.5850  15.3057  16.0185  18.2802  18.5490

          k = 0.3409-0.2556-0.9948 (  4029 PWs)   bands (ev):

   -31.8599   0.4329   2.0769   4.8660   6.8654   7.5821   9.4189  12.4104
    13.2320  14.1261  14.3212  17.0757  17.8717  19.2638

          k = 0.3409 0.4261 0.1421 (  4050 PWs)   bands (ev):

   -31.8630  -0.7924   1.0980   7.4017   8.2738   9.4213  10.2228  10.4189
    12.0344  14.9433  16.5880  17.0898  17.9687  18.9943

          k = 0.3409 0.2556-0.1421 (  4040 PWs)   bands (ev):

   -31.8631  -1.2509   1.8984   6.9233   8.6020   9.5378   9.8928  11.0258
    12.6308  14.5020  15.3533  15.7419  17.2912  18.7227

          k = 0.3409 0.0852-0.4263 (  4047 PWs)   bands (ev):

   -31.8601  -0.5356   4.0161   5.1758   6.3565   8.1215  10.1436  10.7939
    11.3618  12.7382  14.9953  16.7136  19.4051  19.8535

          k = 0.1704 0.0852-0.7106 (  4048 PWs)   bands (ev):

   -31.8581   0.9061   3.4098   4.7418   6.0891   7.4487   8.1048  10.0480
    11.3620  13.1191  16.6441  17.7237  19.0644  19.9964

          k = 0.1704-0.0852-0.9948 (  4029 PWs)   bands (ev):

   -31.8596   1.3346   2.6312   3.7824   4.3499   6.9536  10.4917  12.6314
    13.9100  16.0149  16.6404  17.8399  18.8968  19.4054

          k = 0.1704 0.5965 0.1421 (  4030 PWs)   bands (ev):

   -31.8626  -0.2377   1.4429   4.4767   6.4004   8.5588  12.7478  13.5818
    14.0862  14.9744  16.3899  17.7420  18.2638  18.9921

          k = 0.1704 0.5113-0.0000 (  4044 PWs)   bands (ev):

   -31.8633  -0.7961   1.5437   4.8993   7.2260   9.9047  12.4516  12.7466
    13.5130  13.6630  16.2400  17.0994  17.7965  19.9858

          k = 0.1704 0.4261-0.1421 (  4041 PWs)   bands (ev):

   -31.8630  -1.0754   2.0151   5.5208   7.9840   9.1996  11.3615  11.9359
    13.1307  14.2137  15.2237  16.3379  18.0483  18.9862

          k = 0.1704 0.2556-0.4263 (  4054 PWs)   bands (ev):

   -31.8602  -0.7057   3.9235   5.9218   6.8286   8.4401   9.0643  10.4335
    11.8136  12.6045  13.8023  16.2375  19.3200  21.1638

          k =-0.5113 0.0852 0.4263 (  4048 PWs)   bands (ev):

   -31.8598   0.2786   3.1214   4.3434   5.3888   8.2006   9.3898  11.3622
    14.2811  15.0276  15.8406  16.3800  17.8390  18.9410

          k =-0.5113-0.0852 0.1421 (  4039 PWs)   bands (ev):

   -31.8628  -0.7306   2.2173   4.1758   7.0621   8.7436  12.5380  12.9889
    14.5169  14.6469  15.6039  16.1840  18.7120  19.2732

          k =-0.5113 0.5965 1.2790 (  4036 PWs)   bands (ev):

   -31.8629  -0.6068   1.2194   5.8641   7.5285   9.0191  11.2115  11.7231
    13.3965  14.8080  16.5777  17.0049  18.0533  18.8822

          k =-0.5113 0.4261 0.9948 (  4039 PWs)   bands (ev):

   -31.8600   0.2492   1.9572   5.3869   6.8400   8.6471   9.7155  11.1394
    12.4557  13.4969  15.1014  15.6932  17.8240  19.1738

          k =-0.5113 0.2556 0.7106 (  4054 PWs)   bands (ev):

   -31.8581   1.6724   2.5265   3.7733   5.3915   9.0192   9.5972  10.9925
    12.2260  12.9266  14.4692  15.1679  17.2462  18.8321

          k =-0.3409 0.0852 0.1421 (  4040 PWs)   bands (ev):

   -31.8632  -1.5366   3.0989   5.1752   8.6284   9.5145  11.3625  11.8092
    12.1865  14.1428  14.5766  16.1883  17.1565  18.5298

          k =-0.3409 0.5965 0.9948 (  4040 PWs)   bands (ev):

   -31.8600  -0.2387   2.7853   5.5345   7.0571   7.9881  10.1033  11.0794
    12.0545  12.7381  14.3721  16.5343  17.8370  19.7068

          k =-0.6817 0.2556 0.4263 (  4038 PWs)   bands (ev):

   -31.8598   0.7979   2.3082   4.3197   5.5191   7.5391   9.4733  12.8873
    13.9739  14.5967  15.9276  17.4048  18.1055  19.1542

          k =-0.6817 0.0852 0.1421 (  4033 PWs)   bands (ev):

   -31.8624   0.3044   1.7217   3.2303   5.5183   8.2330  13.7761  14.1055
    15.6067  16.3412  16.6798  17.6563  18.6680  19.5813

     the Fermi energy is    14.2164 ev

!    total energy              =     -47.96890722 Ry
     estimated scf accuracy    <          1.4E-11 Ry
     smearing contrib. (-TS)   =      -0.00029266 Ry
     internal energy E=F+TS    =     -47.96861456 Ry

     The total energy is F=E-TS. E is the sum of the following terms:
     one-electron contribution =      17.71294745 Ry
     hartree contribution      =       2.93017907 Ry
     xc contribution           =     -16.96607859 Ry
     ewald contribution        =     -51.64566250 Ry

     convergence has been achieved in   8 iterations

     Forces acting on atoms (cartesian axes, Ry/au):

     atom    1 type  1   force =    -0.00010430    0.00011014   -0.00000000
     atom    2 type  1   force =     0.00010430   -0.00011014    0.00000000
     atom    3 type  1   force =    -0.00011014   -0.00010430   -0.00000000
     atom    4 type  1   force =     0.00011014    0.00010430   -0.00000000
     atom    5 type  2   force =     0.00000000   -0.00000000   -0.00000000
     The non-local contrib.  to forces
     atom    1 type  1   force =    -0.03451232   -0.02683701    0.00000000
     atom    2 type  1   force =     0.03451232    0.02683701   -0.00000000
     atom    3 type  1   force =     0.02683701   -0.03451232    0.00000000
     atom    4 type  1   force =    -0.02683701    0.03451232   -0.00000000
     atom    5 type  2   force =     0.00000000   -0.00000000   -0.00000000
     The ionic contribution  to forces
     atom    1 type  1   force =    -0.04594030   -0.05261174    0.00000000
     atom    2 type  1   force =     0.04594030    0.05261174   -0.00000000
     atom    3 type  1   force =     0.05261174   -0.04594030   -0.00000000
     atom    4 type  1   force =    -0.05261174    0.04594030    0.00000000
     atom    5 type  2   force =     0.00000000    0.00000000    0.00000000
     The local contribution  to forces
     atom    1 type  1   force =     0.07777726    0.07807425   -0.00000000
     atom    2 type  1   force =    -0.07777726   -0.07807425    0.00000000
     atom    3 type  1   force =    -0.07807425    0.07777726    0.00000000
     atom    4 type  1   force =     0.07807425   -0.07777726    0.00000000
     atom    5 type  2   force =     0.00000000    0.00000000    0.00000000
     The core correction contribution to forces
     atom    1 type  1   force =     0.00257150    0.00148472   -0.00000000
     atom    2 type  1   force =    -0.00257150   -0.00148472    0.00000000
     atom    3 type  1   force =    -0.00148472    0.00257150    0.00000000
     atom    4 type  1   force =     0.00148472   -0.00257150    0.00000000
     atom    5 type  2   force =     0.00000000    0.00000000    0.00000000
     The Hubbard contrib.    to forces
     atom    1 type  1   force =     0.00000000    0.00000000    0.00000000
     atom    2 type  1   force =     0.00000000    0.00000000    0.00000000
     atom    3 type  1   force =     0.00000000    0.00000000    0.00000000
     atom    4 type  1   force =     0.00000000    0.00000000    0.00000000
     atom    5 type  2   force =     0.00000000    0.00000000    0.00000000
     The SCF correction term to forces
     atom    1 type  1   force =    -0.00000044   -0.00000009    0.00000000
     atom    2 type  1   force =     0.00000044    0.00000009   -0.00000000
     atom    3 type  1   force =     0.00000009   -0.00000044   -0.00000000
     atom    4 type  1   force =    -0.00000009    0.00000044   -0.00000000
     atom    5 type  2   force =    -0.00000000    0.00000000    0.00000000

     Total force =     0.000303     Total SCF correction =     0.000001


     Computing stress (Cartesian axis) and pressure

          total   stress  (Ry/bohr**3)                   (kbar)     P=      547.06
   0.00354805  -0.00000000   0.00000000          521.94       -0.00        0.00
   0.00000000   0.00354805  -0.00000000            0.00      521.94       -0.00
   0.00000000   0.00000000   0.00406043            0.00        0.00      597.31


     Writing all to output data dir ./output/SiLi.save/

     init_run     :      1.58s CPU      1.91s WALL (       2 calls)
     electrons    :     83.91s CPU     93.07s WALL (      13 calls)
     update_pot   :      1.83s CPU      1.89s WALL (      11 calls)
     forces       :      2.23s CPU      2.31s WALL (      13 calls)
     stress       :     11.83s CPU     12.04s WALL (      13 calls)

     Called by init_run:
     wfcinit      :      0.85s CPU      0.88s WALL (       2 calls)
     potinit      :      0.23s CPU      0.42s WALL (       2 calls)
     hinit0       :      0.47s CPU      0.56s WALL (       2 calls)

     Called by electrons:
     c_bands      :     74.40s CPU     82.56s WALL (      88 calls)
     sum_band     :      8.86s CPU      9.24s WALL (      88 calls)
     v_of_rho     :      0.61s CPU      1.20s WALL (      97 calls)
     mix_rho      :      0.09s CPU      0.12s WALL (      88 calls)

     Called by c_bands:
     init_us_2    :      1.45s CPU      1.59s WALL (   17136 calls)
     init_us_2:cp :      1.43s CPU      1.57s WALL (   17136 calls)
     cegterg      :     69.95s CPU     72.22s WALL (    7392 calls)

     Called by *egterg:
     cdiaghg      :      6.73s CPU      6.97s WALL (   32560 calls)
     h_psi        :     57.95s CPU     59.80s WALL (   33988 calls)
     g_psi        :      0.23s CPU      0.24s WALL (   26428 calls)

     Called by h_psi:
     h_psi:calbec :      3.94s CPU      4.08s WALL (   33988 calls)
     vloc_psi     :     50.72s CPU     52.32s WALL (   33988 calls)
     add_vuspsi   :      3.08s CPU      3.17s WALL (   33988 calls)

     General routines
     calbec       :      4.77s CPU      4.93s WALL (   39448 calls)
     fft          :      0.91s CPU      1.72s WALL (    1297 calls)
     ffts         :      0.03s CPU      0.08s WALL (      88 calls)
     fftw         :     51.86s CPU     53.46s WALL (  746640 calls)

     Parallel routines

     PWSCF        :   1m41.80s CPU   1m52.14s WALL


   This run was terminated on:  20:31:35  29Dec2024            

=------------------------------------------------------------------------------=
   JOB DONE.
=------------------------------------------------------------------------------=
