
     Program PWSCF v.7.2 starts on 22Jan2025 at  1:29:28 

     This program is part of the open-source Quantum ESPRESSO suite
     for quantum simulation of materials; please cite
         "P. Giannozzi et al., J. Phys.:Condens. Matter 21 395502 (2009);
         "P. Giannozzi et al., J. Phys.:Condens. Matter 29 465901 (2017);
         "P. Giannozzi et al., J. Chem. Phys. 152 154105 (2020);
          URL http://www.quantum-espresso.org", 
     in publications or presentations arising from this work. More details at
     http://www.quantum-espresso.org/quote

     Parallel version (MPI & OpenMP), running on       8 processor cores
     Number of MPI processes:                 8
     Threads/MPI process:                     1

     MPI processes distributed on     1 nodes
     481498 MiB available memory on the printing compute node when the environment starts

     Waiting for input...
     Reading input from standard input

     Current dimensions of program PWSCF are:
     Max number of different atomic species (ntypx) = 10
     Max number of k-points (npk) =  40000
     Max angular momentum in pseudopotentials (lmaxx) =  4

     R & G space division:  proc/nbgrp/npool/nimage =       8
     Subspace diagonalization in iterative solution of the eigenvalue problem:
     a serial algorithm will be used


     Parallelization info
     --------------------
     sticks:   dense  smooth     PW     G-vecs:    dense   smooth      PW
     Min          59      59     18                 4547     4547     788
     Max          60      60     19                 4553     4553     800
     Sum         473     473    145                36405    36405    6337

     Using Slab Decomposition



     bravais-lattice index     =            6
     lattice parameter (alat)  =       4.9441  a.u.
     unit-cell volume          =     579.8442 (a.u.)^3
     number of atoms/cell      =           10
     number of atomic types    =            2
     number of electrons       =        32.00
     number of Kohn-Sham states=           20
     kinetic-energy cutoff     =      60.0000  Ry
     charge density cutoff     =     240.0000  Ry
     scf convergence threshold =      1.0E-08
     mixing beta               =       0.8000
     number of iterations used =            8  plain     mixing
     energy convergence thresh.=      5.0E-03
     force convergence thresh. =      1.0E-02
     press convergence thresh. =      2.0E+00
     Exchange-correlation= PBE
                           (   1   4   3   4   0   0   0)
     nstep                     =           50


     celldm(1)=   4.944111  celldm(2)=   0.000000  celldm(3)=   4.797850
     celldm(4)=   0.000000  celldm(5)=   0.000000  celldm(6)=   0.000000

     crystal axes: (cart. coord. in units of alat)
               a(1) = (   1.000000   0.000000   0.000000 )  
               a(2) = (   0.000000   1.000000   0.000000 )  
               a(3) = (   0.000000   0.000000   4.797850 )  

     reciprocal axes: (cart. coord. in units 2 pi/alat)
               b(1) = (  1.000000  0.000000  0.000000 )  
               b(2) = (  0.000000  1.000000  0.000000 )  
               b(3) = (  0.000000  0.000000  0.208427 )  


     PseudoPot. # 1 for Si read from file:
     ../pseudo/Si_ONCV_PBE_sr.upf
     MD5 check sum: e543d271109d17c80368dfa7c482276d
     Pseudo is Norm-conserving + core correction, Zval =  4.0
     Generated using ONCVPSP code by D. R. Hamann
     Using radial grid of 1510 points,  6 beta functions with: 
                l(1) =   0
                l(2) =   0
                l(3) =   1
                l(4) =   1
                l(5) =   2
                l(6) =   2

     PseudoPot. # 2 for Li read from file:
     ../pseudo/Li_ONCV_PBE_sr.upf
     MD5 check sum: 50ff420e78310ffa21704f3361e624a4
     Pseudo is Norm-conserving, Zval =  3.0
     Generated using ONCVPSP code by D. R. Hamann
     Using radial grid of 1944 points,  4 beta functions with: 
                l(1) =   0
                l(2) =   0
                l(3) =   1
                l(4) =   1

     atomic species   valence    mass     pseudopotential
        Si             4.00    28.08550     Si( 1.00)
        Li             3.00     6.94100     Li( 1.00)

     16 Sym. Ops., with inversion, found ( 8 have fractional translation)



   Cartesian axes

     site n.     atom                  positions (alat units)
         1           Si  tau(   1) = (   0.0000000   0.5000000   3.3573292  )
         2           Si  tau(   2) = (   0.5000000   0.0000000   1.4405209  )
         3           Li  tau(   3) = (   0.0000000   0.5000000   0.4814355  )
         4           Li  tau(   4) = (   0.5000000   0.0000000   4.3164147  )
         5           Li  tau(   5) = (   0.0000000   0.5000000   1.4381268  )
         6           Li  tau(   6) = (   0.5000000   0.0000000   3.3597234  )
         7           Li  tau(   7) = (   0.0000000   0.5000000   2.4020725  )
         8           Li  tau(   8) = (   0.5000000   0.0000000   2.3957777  )
         9           Li  tau(   9) = (   0.0000000   0.5000000   4.3160021  )
        10           Li  tau(  10) = (   0.5000000   0.0000000   0.4818481  )

     number of k points=    20  Marzari-Vanderbilt smearing, width (Ry)=  0.0200
                       cart. coord. in units 2pi/alat
        k(    1) = (   0.0000000   0.0000000   0.0000000), wk =   0.0185185
        k(    2) = (   0.0000000   0.0000000   0.0694756), wk =   0.0370370
        k(    3) = (   0.0000000   0.1666667   0.0000000), wk =   0.0740741
        k(    4) = (   0.0000000   0.1666667   0.0694756), wk =   0.1481481
        k(    5) = (   0.0000000   0.3333333   0.0000000), wk =   0.0740741
        k(    6) = (   0.0000000   0.3333333   0.0694756), wk =   0.1481481
        k(    7) = (   0.0000000  -0.5000000   0.0000000), wk =   0.0370370
        k(    8) = (   0.0000000  -0.5000000   0.0694756), wk =   0.0740741
        k(    9) = (   0.1666667   0.1666667   0.0000000), wk =   0.0740741
        k(   10) = (   0.1666667   0.1666667   0.0694756), wk =   0.1481481
        k(   11) = (   0.1666667   0.3333333   0.0000000), wk =   0.1481481
        k(   12) = (   0.1666667   0.3333333   0.0694756), wk =   0.2962963
        k(   13) = (   0.1666667  -0.5000000   0.0000000), wk =   0.0740741
        k(   14) = (   0.1666667  -0.5000000   0.0694756), wk =   0.1481481
        k(   15) = (   0.3333333   0.3333333   0.0000000), wk =   0.0740741
        k(   16) = (   0.3333333   0.3333333   0.0694756), wk =   0.1481481
        k(   17) = (   0.3333333  -0.5000000   0.0000000), wk =   0.0740741
        k(   18) = (   0.3333333  -0.5000000   0.0694756), wk =   0.1481481
        k(   19) = (  -0.5000000  -0.5000000   0.0000000), wk =   0.0185185
        k(   20) = (  -0.5000000  -0.5000000   0.0694756), wk =   0.0370370

     Dense  grid:    36405 G-vectors     FFT dimensions: (  30,  30, 120)

     Estimated max dynamical RAM per process >      18.21 MB

     Estimated total dynamical RAM >     145.70 MB

     Initial potential from superposition of free atoms

     starting charge      31.9623, renormalised to      32.0000
     Starting wfcs are   24 randomized atomic wfcs

     total cpu time spent up to now is        1.2 secs

     Self-consistent Calculation

     iteration #  1     ecut=    60.00 Ry     beta= 0.80
     Davidson diagonalization with overlap
     ethr =  1.00E-02,  avg # of iterations =  6.2

     Threshold (ethr) on eigenvalues was too large:
     Diagonalizing with lowered threshold

     Davidson diagonalization with overlap
     ethr =  6.81E-04,  avg # of iterations =  2.6

     total cpu time spent up to now is        2.5 secs

     total energy              =    -130.67242823 Ry
     estimated scf accuracy    <       0.23490878 Ry

     iteration #  2     ecut=    60.00 Ry     beta= 0.80
     Davidson diagonalization with overlap
     ethr =  7.34E-04,  avg # of iterations =  5.4

     total cpu time spent up to now is        3.2 secs

     total energy              =    -129.70948747 Ry
     estimated scf accuracy    <      20.03201410 Ry

     iteration #  3     ecut=    60.00 Ry     beta= 0.80
     Davidson diagonalization with overlap
     ethr =  7.34E-04,  avg # of iterations =  5.9

     total cpu time spent up to now is        4.0 secs

     total energy              =    -130.65291535 Ry
     estimated scf accuracy    <       1.95220578 Ry

     iteration #  4     ecut=    60.00 Ry     beta= 0.80
     Davidson diagonalization with overlap
     ethr =  7.34E-04,  avg # of iterations =  2.4

     total cpu time spent up to now is        4.5 secs

     total energy              =    -130.79455130 Ry
     estimated scf accuracy    <       0.08616154 Ry

     iteration #  5     ecut=    60.00 Ry     beta= 0.80
     Davidson diagonalization with overlap
     ethr =  2.69E-04,  avg # of iterations =  2.6

     total cpu time spent up to now is        5.0 secs

     total energy              =    -130.80866299 Ry
     estimated scf accuracy    <       0.00612187 Ry

     iteration #  6     ecut=    60.00 Ry     beta= 0.80
     Davidson diagonalization with overlap
     ethr =  1.91E-05,  avg # of iterations =  4.1

     total cpu time spent up to now is        5.6 secs

     total energy              =    -130.80953473 Ry
     estimated scf accuracy    <       0.00056579 Ry

     iteration #  7     ecut=    60.00 Ry     beta= 0.80
     Davidson diagonalization with overlap
     ethr =  1.77E-06,  avg # of iterations =  4.0

     total cpu time spent up to now is        6.2 secs

     total energy              =    -130.80960267 Ry
     estimated scf accuracy    <       0.00001225 Ry

     iteration #  8     ecut=    60.00 Ry     beta= 0.80
     Davidson diagonalization with overlap
     ethr =  3.83E-08,  avg # of iterations =  3.1

     total cpu time spent up to now is        6.7 secs

     total energy              =    -130.80960571 Ry
     estimated scf accuracy    <       0.00000127 Ry

     iteration #  9     ecut=    60.00 Ry     beta= 0.80
     Davidson diagonalization with overlap
     ethr =  3.98E-09,  avg # of iterations =  2.4

     total cpu time spent up to now is        7.3 secs

     total energy              =    -130.80960585 Ry
     estimated scf accuracy    <       0.00000021 Ry

     iteration # 10     ecut=    60.00 Ry     beta= 0.80
     Davidson diagonalization with overlap
     ethr =  6.63E-10,  avg # of iterations =  2.0

     total cpu time spent up to now is        7.7 secs

     End of self-consistent calculation

          k = 0.0000 0.0000 0.0000 (  4515 PWs)   bands (ev):

   -40.1662 -39.8035 -39.7719 -38.9980 -38.9583 -38.9571 -38.6279 -38.6115
    -2.7692  -2.7386   1.5180   1.5205   4.1818   7.7378   8.3734  12.2049
    12.2049  12.3297  12.7582  12.9543

          k = 0.0000 0.0000 0.0695 (  4550 PWs)   bands (ev):

   -40.1666 -39.8048 -39.7716 -38.9987 -38.9593 -38.9572 -38.6285 -38.6124
    -2.7697  -2.7387   1.5186   1.5199   4.1818   7.6645   8.5045  11.9780
    12.2101  12.2101  12.3236  12.3236

          k = 0.0000 0.1667 0.0000 (  4546 PWs)   bands (ev):

   -40.0833 -39.7209 -39.6893 -39.0705 -38.9426 -38.9425 -38.7010 -38.6849
    -2.4444  -2.4239   2.0191   2.0742   4.6080   7.7122   8.1127   8.8932
     9.0905  12.8099  12.8368  12.9151

          k = 0.0000 0.1667 0.0695 (  4538 PWs)   bands (ev):

   -40.0830 -39.7208 -39.6890 -39.0705 -38.9426 -38.9423 -38.7011 -38.6847
    -2.4446  -2.4236   2.0205   2.0728   4.6103   7.6264   8.1795   8.8632
     9.2339  12.0147  12.9901  13.4190

          k = 0.0000 0.3333 0.0000 (  4540 PWs)   bands (ev):

   -39.8590 -39.4953 -39.4688 -39.2730 -38.9139 -38.9121 -38.8997 -38.8835
    -1.6010  -1.6005   3.4821   3.7123   5.0762   5.0868   5.9023   8.9249
     9.0137   9.6612  10.1822  10.5897

          k = 0.0000 0.3333 0.0695 (  4534 PWs)   bands (ev):

   -39.8586 -39.4954 -39.4678 -39.2732 -38.9141 -38.9115 -38.8996 -38.8843
    -1.6009  -1.6006   3.4930   3.6966   5.0679   5.1048   5.9076   8.6850
     9.1460   9.6815  10.1548  11.2582

          k = 0.0000-0.5000 0.0000 (  4528 PWs)   bands (ev):

   -39.5604 -39.5604 -39.2126 -39.2126 -39.1535 -39.1535 -38.8930 -38.8930
    -0.9771  -0.9771   3.6607   3.6607   5.6079   5.6079   6.7278   6.7278
     7.8719   7.8719  10.5414  10.5414

          k = 0.0000-0.5000 0.0695 (  4532 PWs)   bands (ev):

   -39.5605 -39.5605 -39.2126 -39.2126 -39.1536 -39.1536 -38.8931 -38.8931
    -0.9771  -0.9771   3.6602   3.6602   5.6288   5.6288   6.6348   6.6348
     8.0675   8.0675   9.9351   9.9351

          k = 0.1667 0.1667 0.0000 (  4521 PWs)   bands (ev):

   -40.0086 -39.6456 -39.6161 -39.1314 -38.9273 -38.9273 -38.7620 -38.7452
    -2.0863  -2.0754   2.5071   2.6233   5.0075   7.4046   7.5233   8.0748
     8.8215  11.7685  11.8390  11.8959

          k = 0.1667 0.1667 0.0695 (  4539 PWs)   bands (ev):

   -40.0087 -39.6456 -39.6161 -39.1319 -38.9277 -38.9274 -38.7627 -38.7456
    -2.0866  -2.0752   2.5107   2.6189   5.0142   7.4093   7.5179   7.9212
     9.0976  11.8353  11.9090  12.0332

          k = 0.1667 0.3333 0.0000 (  4552 PWs)   bands (ev):

   -39.8111 -39.4474 -39.4216 -39.3039 -38.9357 -38.9185 -38.8961 -38.8951
    -1.1532  -1.1434   3.9173   4.2403   4.8808   4.9454   6.1752   8.8980
     8.9502   9.6278  10.1849  10.3445

          k = 0.1667 0.3333 0.0695 (  4561 PWs)   bands (ev):

   -39.8111 -39.4475 -39.4216 -39.3041 -38.9358 -38.9188 -38.8963 -38.8952
    -1.1530  -1.1436   3.9372   4.2072   4.8824   4.9504   6.2130   8.5644
     9.1055   9.5714  10.2705  11.0302

          k = 0.1667-0.5000 0.0000 (  4552 PWs)   bands (ev):

   -39.5511 -39.5511 -39.2032 -39.2032 -39.1443 -39.1443 -38.8818 -38.8818
    -0.4160  -0.4160   3.5301   3.5301   5.9649   5.9649   7.0973   7.0973
     7.9418   7.9418  10.5542  10.5542

          k = 0.1667-0.5000 0.0695 (  4544 PWs)   bands (ev):

   -39.5509 -39.5509 -39.2031 -39.2031 -39.1441 -39.1441 -38.8817 -38.8817
    -0.4160  -0.4160   3.5296   3.5296   6.0044   6.0044   6.9108   6.9108
     8.2926   8.2926   9.7487   9.7487

          k = 0.3333 0.3333 0.0000 (  4570 PWs)   bands (ev):

   -39.6866 -39.3941 -39.3232 -39.2996 -39.0244 -39.0052 -38.8718 -38.8714
     0.0672   0.1043   4.0904   4.2240   5.1185   5.7705   6.8805   8.2322
     9.1003   9.1149   9.2171   9.4649

          k = 0.3333 0.3333 0.0695 (  4565 PWs)   bands (ev):

   -39.6868 -39.3937 -39.3235 -39.2998 -39.0237 -39.0052 -38.8718 -38.8713
     0.0681   0.1034   4.0961   4.2173   5.1814   5.6138   7.1401   8.3791
     8.5747   8.7893   9.2564   9.3037

          k = 0.3333-0.5000 0.0000 (  4588 PWs)   bands (ev):

   -39.5319 -39.5319 -39.1840 -39.1840 -39.1253 -39.1253 -38.8591 -38.8591
     1.2097   1.2097   3.2254   3.2254   6.7094   6.7094   7.8389   7.8389
     7.9925   7.9925   8.2457   8.2457

          k = 0.3333-0.5000 0.0695 (  4568 PWs)   bands (ev):

   -39.5316 -39.5316 -39.1837 -39.1837 -39.1249 -39.1249 -38.8588 -38.8588
     1.2097   1.2097   3.2249   3.2249   6.8331   6.8331   7.3377   7.3377
     8.1127   8.1127   8.7889   8.7889

          k =-0.5000-0.5000 0.0000 (  4584 PWs)   bands (ev):

   -39.5218 -39.5218 -39.1739 -39.1739 -39.1154 -39.1154 -38.8473 -38.8473
     2.9842   2.9842   3.1238   3.1238   5.2965   5.2965   7.0363   7.0363
     7.9350   7.9350   8.6726   8.6726

          k =-0.5000-0.5000 0.0695 (  4612 PWs)   bands (ev):

   -39.5222 -39.5222 -39.1743 -39.1743 -39.1158 -39.1158 -38.8476 -38.8476
     2.9902   2.9902   3.1165   3.1165   5.2965   5.2965   7.1856   7.1856
     7.6021   7.6021   8.9126   8.9126

     the Fermi energy is     8.3066 ev

!    total energy              =    -130.80960587 Ry
     estimated scf accuracy    <          8.7E-09 Ry
     smearing contrib. (-TS)   =      -0.00008002 Ry
     internal energy E=F+TS    =    -130.80952584 Ry

     The total energy is F=E-TS. E is the sum of the following terms:
     one-electron contribution =     -48.42917052 Ry
     hartree contribution      =      25.05537333 Ry
     xc contribution           =     -34.73576744 Ry
     ewald contribution        =     -72.69996121 Ry

     convergence has been achieved in  10 iterations

     Forces acting on atoms (cartesian axes, Ry/au):

     atom    1 type  1   force =     0.00000000    0.00000000   -0.00244900
     atom    2 type  1   force =     0.00000000    0.00000000    0.00244900
     atom    3 type  2   force =     0.00000000    0.00000000   -0.00850460
     atom    4 type  2   force =     0.00000000    0.00000000    0.00850460
     atom    5 type  2   force =     0.00000000    0.00000000   -0.00006860
     atom    6 type  2   force =     0.00000000    0.00000000    0.00006860
     atom    7 type  2   force =     0.00000000    0.00000000   -0.00300847
     atom    8 type  2   force =     0.00000000    0.00000000    0.00300847
     atom    9 type  2   force =     0.00000000    0.00000000    0.01276422
     atom   10 type  2   force =     0.00000000    0.00000000   -0.01276422
     The non-local contrib.  to forces
     atom    1 type  1   force =     0.00000000    0.00000000   -0.00091406
     atom    2 type  1   force =     0.00000000    0.00000000    0.00091406
     atom    3 type  2   force =     0.00000000    0.00000000    0.07779576
     atom    4 type  2   force =     0.00000000    0.00000000   -0.07779576
     atom    5 type  2   force =     0.00000000    0.00000000    0.00246232
     atom    6 type  2   force =     0.00000000    0.00000000   -0.00246232
     atom    7 type  2   force =     0.00000000    0.00000000   -0.01107968
     atom    8 type  2   force =     0.00000000    0.00000000    0.01107968
     atom    9 type  2   force =     0.00000000    0.00000000   -0.06865514
     atom   10 type  2   force =     0.00000000    0.00000000    0.06865514
     The ionic contribution  to forces
     atom    1 type  1   force =    -0.00000000    0.00000000    0.40663653
     atom    2 type  1   force =     0.00000000   -0.00000000   -0.40663653
     atom    3 type  2   force =    -0.00000000   -0.00000000   -0.64332620
     atom    4 type  2   force =     0.00000000   -0.00000000    0.64332620
     atom    5 type  2   force =    -0.00000000    0.00000000   -0.32011731
     atom    6 type  2   force =     0.00000000    0.00000000    0.32011731
     atom    7 type  2   force =     0.00000000    0.00000000   -0.02000138
     atom    8 type  2   force =    -0.00000000   -0.00000000    0.02000138
     atom    9 type  2   force =    -0.00000000    0.00000000    0.67019517
     atom   10 type  2   force =     0.00000000   -0.00000000   -0.67019517
     The local contribution  to forces
     atom    1 type  1   force =    -0.00000000    0.00000000   -0.40834969
     atom    2 type  1   force =     0.00000000   -0.00000000    0.40834969
     atom    3 type  2   force =    -0.00000000    0.00000000    0.55712589
     atom    4 type  2   force =    -0.00000000    0.00000000   -0.55712589
     atom    5 type  2   force =    -0.00000000    0.00000000    0.31762565
     atom    6 type  2   force =    -0.00000000    0.00000000   -0.31762565
     atom    7 type  2   force =    -0.00000000   -0.00000000    0.02807841
     atom    8 type  2   force =     0.00000000    0.00000000   -0.02807841
     atom    9 type  2   force =    -0.00000000   -0.00000000   -0.58887855
     atom   10 type  2   force =     0.00000000    0.00000000    0.58887855
     The core correction contribution to forces
     atom    1 type  1   force =    -0.00000000    0.00000000    0.00012319
     atom    2 type  1   force =     0.00000000   -0.00000000   -0.00012319
     atom    3 type  2   force =     0.00000000    0.00000000    0.00000000
     atom    4 type  2   force =     0.00000000    0.00000000    0.00000000
     atom    5 type  2   force =     0.00000000    0.00000000    0.00000000
     atom    6 type  2   force =     0.00000000    0.00000000    0.00000000
     atom    7 type  2   force =     0.00000000    0.00000000    0.00000000
     atom    8 type  2   force =     0.00000000    0.00000000    0.00000000
     atom    9 type  2   force =     0.00000000    0.00000000    0.00000000
     atom   10 type  2   force =     0.00000000    0.00000000    0.00000000
     The Hubbard contrib.    to forces
     atom    1 type  1   force =     0.00000000    0.00000000    0.00000000
     atom    2 type  1   force =     0.00000000    0.00000000    0.00000000
     atom    3 type  2   force =     0.00000000    0.00000000    0.00000000
     atom    4 type  2   force =     0.00000000    0.00000000    0.00000000
     atom    5 type  2   force =     0.00000000    0.00000000    0.00000000
     atom    6 type  2   force =     0.00000000    0.00000000    0.00000000
     atom    7 type  2   force =     0.00000000    0.00000000    0.00000000
     atom    8 type  2   force =     0.00000000    0.00000000    0.00000000
     atom    9 type  2   force =     0.00000000    0.00000000    0.00000000
     atom   10 type  2   force =     0.00000000    0.00000000    0.00000000
     The SCF correction term to forces
     atom    1 type  1   force =     0.00000000    0.00000000    0.00005503
     atom    2 type  1   force =     0.00000000    0.00000000   -0.00005503
     atom    3 type  2   force =     0.00000000   -0.00000000   -0.00010006
     atom    4 type  2   force =    -0.00000000   -0.00000000    0.00010006
     atom    5 type  2   force =     0.00000000    0.00000000   -0.00003925
     atom    6 type  2   force =    -0.00000000    0.00000000    0.00003925
     atom    7 type  2   force =    -0.00000000   -0.00000000   -0.00000583
     atom    8 type  2   force =     0.00000000    0.00000000    0.00000583
     atom    9 type  2   force =     0.00000000    0.00000000    0.00010274
     atom   10 type  2   force =    -0.00000000    0.00000000   -0.00010274

     Total force =     0.022374     Total SCF correction =     0.000224


     Computing stress (Cartesian axis) and pressure

          total   stress  (Ry/bohr**3)                   (kbar)     P=      661.38
   0.00719572   0.00000000   0.00000000         1058.53        0.00        0.00
   0.00000000   0.00719572   0.00000000            0.00     1058.53        0.00
   0.00000000   0.00000000  -0.00090345            0.00        0.00     -132.90


     BFGS Geometry Optimization
     Energy error            =      0.0E+00 Ry
     Gradient error          =      1.3E-02 Ry/Bohr
     Cell gradient error     =      6.3E+02 kbar

     number of scf cycles    =   1
     number of bfgs steps    =   0

     enthalpy           new  =    -128.8387554591 Ry

     new trust radius        =       0.5000000000 bohr
ibrav =      6
 celldm(1) =      5.39709221
 celldm(3) =      3.93885433
Input lattice vectors:
     1.09162035     0.00000000     0.00000000
     0.00000000     1.09162035     0.00000000
     0.00000000     0.00000000     4.29973355
New lattice vectors in INITIAL alat:
     1.09162035     0.00000000     0.00000000
     0.00000000     1.09162035     0.00000000
     0.00000000     0.00000000     4.29973355
New lattice vectors in NEW alat (for information only):
     1.00000000     0.00000000     0.00000000
     0.00000000     1.00000000     0.00000000
     0.00000000     0.00000000     3.93885433
Discrepancy in bohr =     0.000000    0.000000    0.000000
     new conv_thr            =       0.0000000100 Ry

     new unit-cell volume =    619.22636 a.u.^3 (    91.75988 Ang^3 )
     density =      2.02137 g/cm^3

CELL_PARAMETERS (alat=  4.94411102)
   1.091620351   0.000000000   0.000000000
   0.000000000   1.091620351   0.000000000
   0.000000000   0.000000000   4.299733546

ATOMIC_POSITIONS (crystal)
Si            0.0000000000        0.5000000000        0.6996573473
Si            0.5000000000        0.0000000000        0.3003426527
Li            0.0000000000        0.5000000000        0.0999979375
Li            0.5000000000        0.0000000000        0.9000020625
Li            0.0000000000        0.5000000000        0.2997412087
Li            0.5000000000        0.0000000000        0.7002587913
Li            0.0000000000        0.5000000000        0.5005335817
Li            0.5000000000        0.0000000000        0.4994664183
Li            0.0000000000        0.5000000000        0.9000893914
Li            0.5000000000        0.0000000000        0.0999106086



     Writing config-only to output data dir ./output/SiLi.save/
     NEW-OLD atomic charge density approx. for the potential
     extrapolated charge   34.03277, renormalised to   32.00000

     total cpu time spent up to now is        9.8 secs

     Self-consistent Calculation

     iteration #  1     ecut=    60.00 Ry     beta= 0.80
     Davidson diagonalization with overlap
     c_bands:  2 eigenvalues not converged
     c_bands:  2 eigenvalues not converged
     ethr =  1.00E-06,  avg # of iterations = 12.3

     total cpu time spent up to now is       11.3 secs

     total energy              =    -131.16509654 Ry
     estimated scf accuracy    <       0.25074105 Ry

     iteration #  2     ecut=    60.00 Ry     beta= 0.80
     Davidson diagonalization with overlap
     ethr =  7.84E-04,  avg # of iterations =  6.3

     total cpu time spent up to now is       12.1 secs

     total energy              =    -130.41154071 Ry
     estimated scf accuracy    <      20.25908002 Ry

     iteration #  3     ecut=    60.00 Ry     beta= 0.80
     Davidson diagonalization with overlap
     ethr =  7.84E-04,  avg # of iterations =  5.8

     total cpu time spent up to now is       12.8 secs

     total energy              =    -131.38314154 Ry
     estimated scf accuracy    <       0.12203615 Ry

     iteration #  4     ecut=    60.00 Ry     beta= 0.80
     Davidson diagonalization with overlap
     ethr =  3.81E-04,  avg # of iterations =  2.5

     total cpu time spent up to now is       13.2 secs

     total energy              =    -131.39436693 Ry
     estimated scf accuracy    <       0.02658329 Ry

     iteration #  5     ecut=    60.00 Ry     beta= 0.80
     Davidson diagonalization with overlap
     ethr =  8.31E-05,  avg # of iterations =  1.9

     total cpu time spent up to now is       13.7 secs

     total energy              =    -131.39536624 Ry
     estimated scf accuracy    <       0.00344750 Ry

     iteration #  6     ecut=    60.00 Ry     beta= 0.80
     Davidson diagonalization with overlap
     ethr =  1.08E-05,  avg # of iterations =  4.0

     total cpu time spent up to now is       14.2 secs

     total energy              =    -131.39581448 Ry
     estimated scf accuracy    <       0.00046948 Ry

     iteration #  7     ecut=    60.00 Ry     beta= 0.80
     Davidson diagonalization with overlap
     ethr =  1.47E-06,  avg # of iterations =  2.9

     total cpu time spent up to now is       14.6 secs

     total energy              =    -131.39585736 Ry
     estimated scf accuracy    <       0.00001505 Ry

     iteration #  8     ecut=    60.00 Ry     beta= 0.80
     Davidson diagonalization with overlap
     ethr =  4.70E-08,  avg # of iterations =  2.9

     total cpu time spent up to now is       15.1 secs

     total energy              =    -131.39585901 Ry
     estimated scf accuracy    <       0.00000767 Ry

     iteration #  9     ecut=    60.00 Ry     beta= 0.80
     Davidson diagonalization with overlap
     ethr =  2.40E-08,  avg # of iterations =  1.6

     total cpu time spent up to now is       15.6 secs

     total energy              =    -131.39586000 Ry
     estimated scf accuracy    <       0.00000091 Ry

     iteration # 10     ecut=    60.00 Ry     beta= 0.80
     Davidson diagonalization with overlap
     ethr =  2.86E-09,  avg # of iterations =  1.6

     total cpu time spent up to now is       16.0 secs

     total energy              =    -131.39586012 Ry
     estimated scf accuracy    <       0.00000001 Ry

     iteration # 11     ecut=    60.00 Ry     beta= 0.80
     Davidson diagonalization with overlap
     ethr =  3.31E-11,  avg # of iterations =  3.6

     total cpu time spent up to now is       16.5 secs

     End of self-consistent calculation

          k = 0.0000 0.0000 0.0000 (  4515 PWs)   bands (ev):

   -40.1779 -39.5898 -39.5517 -39.5155 -38.9180 -38.8767 -38.8554 -38.8448
    -2.9106  -2.9031   1.6464   1.9095   3.8596   8.7399   9.7582   9.9659
     9.9659  10.3045  10.3045  12.6758

          k = 0.0000 0.0000 0.0775 (  4550 PWs)   bands (ev):

   -40.1774 -39.5895 -39.5546 -39.5152 -38.9187 -38.8788 -38.8596 -38.8462
    -2.9101  -2.9040   1.6617   1.8882   3.8754   8.4821   9.9850   9.9850
    10.2662  10.2756  10.2756  13.4318

          k = 0.0000 0.1527 0.0000 (  4546 PWs)   bands (ev):

   -40.1314 -39.5946 -39.5458 -39.4724 -38.9536 -38.9070 -38.8529 -38.8507
    -2.6179  -2.5995   2.0260   2.3562   4.2028   7.1259   7.3433   9.0799
     9.9982  10.4192  10.7502  10.8832

          k = 0.0000 0.1527 0.0775 (  4538 PWs)   bands (ev):

   -40.1318 -39.5940 -39.5463 -39.4726 -38.9532 -38.9066 -38.8522 -38.8509
    -2.6172  -2.6002   2.0486   2.3227   4.2293   7.1489   7.2920   8.8078
    10.4377  10.5737  10.7226  11.1394

          k = 0.0000 0.3054 0.0000 (  4540 PWs)   bands (ev):

   -40.0116 -39.7022 -39.4315 -39.3747 -39.0446 -39.0011 -38.8405 -38.8400
    -1.8380  -1.7994   3.1331   3.6569   4.2076   4.3136   5.3280   7.6729
     8.9783   9.5006   9.9131  10.7621

          k = 0.0000 0.3054 0.0775 (  4534 PWs)   bands (ev):

   -40.0126 -39.7018 -39.4343 -39.3737 -39.0440 -39.0010 -38.8407 -38.8401
    -1.8373  -1.8006   3.1787   3.5640   4.2146   4.3456   5.3545   7.8797
     8.4152   9.3861  10.2408  11.5238

          k = 0.0000-0.4580 0.0000 (  4528 PWs)   bands (ev):

   -39.8544 -39.8544 -39.3238 -39.3238 -39.0969 -39.0969 -38.8343 -38.8343
    -1.2109  -1.2109   2.9173   2.9173   4.7843   4.7843   6.1882   6.1882
     7.1352   7.1352  11.1278  11.1278

          k = 0.0000-0.4580 0.0775 (  4532 PWs)   bands (ev):

   -39.8537 -39.8537 -39.3231 -39.3231 -39.0962 -39.0962 -38.8336 -38.8336
    -1.2108  -1.2108   2.9139   2.9139   4.8458   4.8458   5.9606   5.9606
     7.4280   7.4280  10.4015  10.4015

          k = 0.1527 0.1527 0.0000 (  4521 PWs)   bands (ev):

   -40.0902 -39.6296 -39.5045 -39.4379 -38.9859 -38.9370 -38.8469 -38.8460
    -2.3022  -2.2717   2.3946   2.7985   4.5309   6.3775   6.7264   8.6374
     9.1073  10.0143  10.0773  10.3762

          k = 0.1527 0.1527 0.0775 (  4539 PWs)   bands (ev):

   -40.0899 -39.6300 -39.5046 -39.4373 -38.9861 -38.9374 -38.8469 -38.8462
    -2.3013  -2.2727   2.4267   2.7479   4.5736   6.3979   6.6956   8.3683
     9.2328   9.9242  10.3441  10.9361

          k = 0.1527 0.3054 0.0000 (  4552 PWs)   bands (ev):

   -39.9884 -39.7233 -39.4116 -39.3580 -39.0600 -39.0180 -38.8379 -38.8370
    -1.4528  -1.3987   3.4614   4.0357   4.1726   4.3197   5.5606   7.6597
     8.9988   9.2557   9.6666   9.7430

          k = 0.1527 0.3054 0.0775 (  4561 PWs)   bands (ev):

   -39.9888 -39.7237 -39.4118 -39.3583 -39.0600 -39.0189 -38.8382 -38.8377
    -1.4513  -1.4003   3.5213   3.9198   4.1703   4.3353   5.6409   7.8907
     8.4184   9.0548   9.6099   9.9780

          k = 0.1527-0.4580 0.0000 (  4552 PWs)   bands (ev):

   -39.8537 -39.8537 -39.3232 -39.3232 -39.0960 -39.0960 -38.8324 -38.8324
    -0.7339  -0.7339   2.8964   2.8964   5.0688   5.0688   6.4757   6.4757
     7.2862   7.2862  10.1897  10.1897

          k = 0.1527-0.4580 0.0775 (  4544 PWs)   bands (ev):

   -39.8531 -39.8531 -39.3228 -39.3228 -39.0952 -39.0952 -38.8317 -38.8317
    -0.7338  -0.7338   2.8927   2.8927   5.1577   5.1577   6.1504   6.1504
     7.6972   7.6972  10.1135  10.1135

          k = 0.3054 0.3054 0.0000 (  4570 PWs)   bands (ev):

   -39.9260 -39.7757 -39.3614 -39.3225 -39.0874 -39.0558 -38.8291 -38.8290
    -0.3830  -0.2855   3.5699   3.9425   4.3963   5.3211   6.0232   7.1322
     7.1367   7.2362   8.9610   9.6561

          k = 0.3054 0.3054 0.0775 (  4565 PWs)   bands (ev):

   -39.9259 -39.7753 -39.3619 -39.3218 -39.0865 -39.0560 -38.8291 -38.8286
    -0.3796  -0.2894   3.5924   3.9074   4.5100   5.0047   6.4066   6.9441
     7.2886   7.4124   8.1936   9.3998

          k = 0.3054-0.4580 0.0000 (  4588 PWs)   bands (ev):

   -39.8477 -39.8477 -39.3172 -39.3172 -39.0899 -39.0899 -38.8244 -38.8244
     0.6805   0.6805   2.8437   2.8437   5.7408   5.7408   6.1204   6.1204
     7.2429   7.2429   7.9500   7.9500

          k = 0.3054-0.4580 0.0775 (  4568 PWs)   bands (ev):

   -39.8479 -39.8479 -39.3176 -39.3176 -39.0900 -39.0900 -38.8245 -38.8245
     0.6808   0.6808   2.8394   2.8394   5.8693   5.8693   6.0956   6.0956
     6.8658   6.8658   8.3689   8.3689

          k =-0.4580-0.4580 0.0000 (  4584 PWs)   bands (ev):

   -39.8453 -39.8453 -39.3146 -39.3146 -39.0878 -39.0878 -38.8212 -38.8212
     2.6232   2.6232   3.0047   3.0047   3.2143   3.2143   6.1385   6.1385
     7.9831   7.9831   8.4390   8.4390

          k =-0.4580-0.4580 0.0775 (  4612 PWs)   bands (ev):

   -39.8462 -39.8462 -39.3154 -39.3154 -39.0887 -39.0887 -38.8220 -38.8220
     2.6464   2.6464   2.9679   2.9679   3.2144   3.2144   6.4175   6.4175
     7.2058   7.2058   8.4387   8.4387

     the Fermi energy is     7.4998 ev

!    total energy              =    -131.39586013 Ry
     estimated scf accuracy    <          2.0E-09 Ry
     smearing contrib. (-TS)   =       0.00106202 Ry
     internal energy E=F+TS    =    -131.39692214 Ry

     The total energy is F=E-TS. E is the sum of the following terms:
     one-electron contribution =     -47.60226536 Ry
     hartree contribution      =      24.07342901 Ry
     xc contribution           =     -34.42135758 Ry
     ewald contribution        =     -73.44672822 Ry

     convergence has been achieved in  11 iterations

     Forces acting on atoms (cartesian axes, Ry/au):

     atom    1 type  1   force =     0.00000000    0.00000000   -0.00499954
     atom    2 type  1   force =     0.00000000    0.00000000    0.00499954
     atom    3 type  2   force =     0.00000000    0.00000000    0.01231552
     atom    4 type  2   force =     0.00000000    0.00000000   -0.01231552
     atom    5 type  2   force =     0.00000000    0.00000000    0.00254182
     atom    6 type  2   force =     0.00000000    0.00000000   -0.00254182
     atom    7 type  2   force =     0.00000000    0.00000000   -0.03296005
     atom    8 type  2   force =     0.00000000    0.00000000    0.03296005
     atom    9 type  2   force =     0.00000000    0.00000000    0.01493585
     atom   10 type  2   force =     0.00000000    0.00000000   -0.01493585
     The non-local contrib.  to forces
     atom    1 type  1   force =     0.00000000    0.00000000   -0.00516162
     atom    2 type  1   force =     0.00000000    0.00000000    0.00516162
     atom    3 type  2   force =     0.00000000    0.00000000    0.07840115
     atom    4 type  2   force =     0.00000000    0.00000000   -0.07840115
     atom    5 type  2   force =     0.00000000    0.00000000    0.00055295
     atom    6 type  2   force =     0.00000000    0.00000000   -0.00055295
     atom    7 type  2   force =     0.00000000    0.00000000   -0.04980008
     atom    8 type  2   force =     0.00000000    0.00000000    0.04980008
     atom    9 type  2   force =     0.00000000    0.00000000   -0.03586890
     atom   10 type  2   force =     0.00000000    0.00000000    0.03586890
     The ionic contribution  to forces
     atom    1 type  1   force =    -0.00000000   -0.00000000    0.35568997
     atom    2 type  1   force =     0.00000000   -0.00000000   -0.35568997
     atom    3 type  2   force =    -0.00000000    0.00000000   -0.48345248
     atom    4 type  2   force =     0.00000000   -0.00000000    0.48345248
     atom    5 type  2   force =    -0.00000000    0.00000000   -0.26626454
     atom    6 type  2   force =     0.00000000   -0.00000000    0.26626454
     atom    7 type  2   force =    -0.00000000    0.00000000   -0.08026969
     atom    8 type  2   force =     0.00000000   -0.00000000    0.08026969
     atom    9 type  2   force =    -0.00000000    0.00000000    0.55372870
     atom   10 type  2   force =     0.00000000   -0.00000000   -0.55372870
     The local contribution  to forces
     atom    1 type  1   force =    -0.00000000    0.00000000   -0.35566345
     atom    2 type  1   force =     0.00000000   -0.00000000    0.35566345
     atom    3 type  2   force =    -0.00000000    0.00000000    0.41734762
     atom    4 type  2   force =     0.00000000    0.00000000   -0.41734762
     atom    5 type  2   force =    -0.00000000    0.00000000    0.26820353
     atom    6 type  2   force =     0.00000000    0.00000000   -0.26820353
     atom    7 type  2   force =    -0.00000000    0.00000000    0.09710810
     atom    8 type  2   force =     0.00000000    0.00000000   -0.09710810
     atom    9 type  2   force =    -0.00000000    0.00000000   -0.50290583
     atom   10 type  2   force =     0.00000000    0.00000000    0.50290583
     The core correction contribution to forces
     atom    1 type  1   force =     0.00000000    0.00000000    0.00019992
     atom    2 type  1   force =     0.00000000   -0.00000000   -0.00019992
     atom    3 type  2   force =     0.00000000    0.00000000    0.00000000
     atom    4 type  2   force =     0.00000000    0.00000000    0.00000000
     atom    5 type  2   force =     0.00000000    0.00000000    0.00000000
     atom    6 type  2   force =     0.00000000    0.00000000    0.00000000
     atom    7 type  2   force =     0.00000000    0.00000000    0.00000000
     atom    8 type  2   force =     0.00000000    0.00000000    0.00000000
     atom    9 type  2   force =     0.00000000    0.00000000    0.00000000
     atom   10 type  2   force =     0.00000000    0.00000000    0.00000000
     The Hubbard contrib.    to forces
     atom    1 type  1   force =     0.00000000    0.00000000    0.00000000
     atom    2 type  1   force =     0.00000000    0.00000000    0.00000000
     atom    3 type  2   force =     0.00000000    0.00000000    0.00000000
     atom    4 type  2   force =     0.00000000    0.00000000    0.00000000
     atom    5 type  2   force =     0.00000000    0.00000000    0.00000000
     atom    6 type  2   force =     0.00000000    0.00000000    0.00000000
     atom    7 type  2   force =     0.00000000    0.00000000    0.00000000
     atom    8 type  2   force =     0.00000000    0.00000000    0.00000000
     atom    9 type  2   force =     0.00000000    0.00000000    0.00000000
     atom   10 type  2   force =     0.00000000    0.00000000    0.00000000
     The SCF correction term to forces
     atom    1 type  1   force =     0.00000000   -0.00000000   -0.00006437
     atom    2 type  1   force =    -0.00000000   -0.00000000    0.00006437
     atom    3 type  2   force =     0.00000000    0.00000000    0.00001922
     atom    4 type  2   force =     0.00000000   -0.00000000   -0.00001922
     atom    5 type  2   force =    -0.00000000    0.00000000    0.00004988
     atom    6 type  2   force =    -0.00000000   -0.00000000   -0.00004988
     atom    7 type  2   force =     0.00000000    0.00000000    0.00000161
     atom    8 type  2   force =     0.00000000   -0.00000000   -0.00000161
     atom    9 type  2   force =     0.00000000   -0.00000000   -0.00001811
     atom   10 type  2   force =    -0.00000000   -0.00000000    0.00001811

     Total force =     0.054636     Total SCF correction =     0.000121


     Computing stress (Cartesian axis) and pressure

          total   stress  (Ry/bohr**3)                   (kbar)     P=      406.72
   0.00377251   0.00000000   0.00000000          554.96        0.00        0.00
   0.00000000   0.00377251   0.00000000            0.00      554.96        0.00
   0.00000000   0.00000000   0.00074942            0.00        0.00      110.24

     Energy error            =      4.5E-01 Ry
     Gradient error          =      3.3E-02 Ry/Bohr
     Cell gradient error     =      3.9E+02 kbar

     number of scf cycles    =   2
     number of bfgs steps    =   1

     enthalpy           old  =    -128.8387554591 Ry
     enthalpy           new  =    -129.2911525146 Ry

     CASE: enthalpy          _new < enthalpy          _old

     new trust radius        =       0.7985763440 bohr
ibrav =      6
 celldm(1) =      5.56712355
 celldm(3) =      3.20583568
Input lattice vectors:
     1.12601103     0.00000000     0.00000000
     0.00000000     1.12601103     0.00000000
     0.00000000     0.00000000     3.60980634
New lattice vectors in INITIAL alat:
     1.12601103     0.00000000     0.00000000
     0.00000000     1.12601103     0.00000000
     0.00000000     0.00000000     3.60980634
New lattice vectors in NEW alat (for information only):
     1.00000000     0.00000000     0.00000000
     0.00000000     1.00000000     0.00000000
     0.00000000     0.00000000     3.20583568
Discrepancy in bohr =     0.000000    0.000000    0.000000
     new conv_thr            =       0.0000000003 Ry

     new unit-cell volume =    553.13844 a.u.^3 (    81.96666 Ang^3 )
     density =      2.26288 g/cm^3

CELL_PARAMETERS (alat=  4.94411102)
   1.126011032   0.000000000   0.000000000
   0.000000000   1.126011032   0.000000000
   0.000000000   0.000000000   3.609806338

ATOMIC_POSITIONS (crystal)
Si            0.0000000000        0.5000000000        0.6993464050
Si            0.5000000000        0.0000000000        0.3006535950
Li            0.0000000000        0.5000000000        0.1006320239
Li            0.5000000000        0.0000000000        0.8993679761
Li            0.0000000000        0.5000000000        0.2998873786
Li            0.5000000000        0.0000000000        0.7001126214
Li            0.0000000000        0.5000000000        0.4986028238
Li            0.5000000000        0.0000000000        0.5013971762
Li            0.0000000000        0.5000000000        0.9010677315
Li            0.5000000000        0.0000000000        0.0989322685



     Writing config-only to output data dir ./output/SiLi.save/
     NEW-OLD atomic charge density approx. for the potential
     extrapolated charge   28.18121, renormalised to   32.00000

     total cpu time spent up to now is       18.4 secs

     Self-consistent Calculation

     iteration #  1     ecut=    60.00 Ry     beta= 0.80
     Davidson diagonalization with overlap
     c_bands:  1 eigenvalues not converged
     ethr =  1.00E-06,  avg # of iterations = 11.8

     total cpu time spent up to now is       19.8 secs

     total energy              =    -131.00117636 Ry
     estimated scf accuracy    <       0.13538400 Ry

     iteration #  2     ecut=    60.00 Ry     beta= 0.80
     Davidson diagonalization with overlap
     ethr =  4.23E-04,  avg # of iterations =  6.2

     total cpu time spent up to now is       20.5 secs

     total energy              =    -130.81449296 Ry
     estimated scf accuracy    <       4.97171893 Ry

     iteration #  3     ecut=    60.00 Ry     beta= 0.80
     Davidson diagonalization with overlap
     ethr =  4.23E-04,  avg # of iterations =  4.3

     total cpu time spent up to now is       21.1 secs

     total energy              =    -131.17131871 Ry
     estimated scf accuracy    <       0.06030419 Ry

     iteration #  4     ecut=    60.00 Ry     beta= 0.80
     Davidson diagonalization with overlap
     ethr =  1.88E-04,  avg # of iterations =  1.9

     total cpu time spent up to now is       21.5 secs

     total energy              =    -131.17124653 Ry
     estimated scf accuracy    <       0.01695923 Ry

     iteration #  5     ecut=    60.00 Ry     beta= 0.80
     Davidson diagonalization with overlap
     ethr =  5.30E-05,  avg # of iterations =  2.5

     total cpu time spent up to now is       22.0 secs

     total energy              =    -131.17139581 Ry
     estimated scf accuracy    <       0.00281783 Ry

     iteration #  6     ecut=    60.00 Ry     beta= 0.80
     Davidson diagonalization with overlap
     ethr =  8.81E-06,  avg # of iterations =  3.6

     total cpu time spent up to now is       22.5 secs

     total energy              =    -131.17158965 Ry
     estimated scf accuracy    <       0.00028667 Ry

     iteration #  7     ecut=    60.00 Ry     beta= 0.80
     Davidson diagonalization with overlap
     ethr =  8.96E-07,  avg # of iterations =  2.2

     total cpu time spent up to now is       22.9 secs

     total energy              =    -131.17163383 Ry
     estimated scf accuracy    <       0.00000438 Ry

     iteration #  8     ecut=    60.00 Ry     beta= 0.80
     Davidson diagonalization with overlap
     ethr =  1.37E-08,  avg # of iterations =  3.6

     total cpu time spent up to now is       23.4 secs

     total energy              =    -131.17163529 Ry
     estimated scf accuracy    <       0.00000037 Ry

     iteration #  9     ecut=    60.00 Ry     beta= 0.80
     Davidson diagonalization with overlap
     ethr =  1.16E-09,  avg # of iterations =  2.5

     total cpu time spent up to now is       23.9 secs

     total energy              =    -131.17163535 Ry
     estimated scf accuracy    <       0.00000018 Ry

     iteration # 10     ecut=    60.00 Ry     beta= 0.80
     Davidson diagonalization with overlap
     ethr =  5.62E-10,  avg # of iterations =  1.9

     total cpu time spent up to now is       24.3 secs

     total energy              =    -131.17163537 Ry
     estimated scf accuracy    <          8.4E-09 Ry

     iteration # 11     ecut=    60.00 Ry     beta= 0.80
     Davidson diagonalization with overlap
     ethr =  2.62E-11,  avg # of iterations =  2.1

     total cpu time spent up to now is       24.7 secs

     total energy              =    -131.17163538 Ry
     estimated scf accuracy    <          8.1E-10 Ry

     iteration # 12     ecut=    60.00 Ry     beta= 0.80
     Davidson diagonalization with overlap
     ethr =  2.52E-12,  avg # of iterations =  2.2

     total cpu time spent up to now is       25.2 secs

     End of self-consistent calculation

          k = 0.0000 0.0000 0.0000 (  4515 PWs)   bands (ev):

   -38.7968 -38.6112 -38.5005 -38.2540 -38.1412 -38.0314 -37.6655 -37.4708
    -2.1310  -2.0827   3.1227   3.6208   5.6271   9.4285   9.4285  10.1815
    10.1815  12.7139  12.8339  13.3386

          k = 0.0000 0.0000 0.0923 (  4550 PWs)   bands (ev):

   -38.7926 -38.6246 -38.4824 -38.2732 -38.1281 -38.0384 -37.6670 -37.4767
    -2.1266  -2.0872   3.1765   3.5416   5.6725   9.4809   9.4809  10.0758
    10.0758  12.3589  13.8341  13.8342

          k = 0.0000 0.1480 0.0000 (  4546 PWs)   bands (ev):

   -38.7664 -38.6094 -38.4771 -38.2230 -38.1729 -38.0130 -37.6835 -37.5102
    -1.8745  -1.8073   3.4274   4.0148   5.9038   7.0610   7.6918   9.8612
    10.6034  11.0393  12.8825  13.8068

          k = 0.0000 0.1480 0.0923 (  4538 PWs)   bands (ev):

   -38.7640 -38.6196 -38.4633 -38.2473 -38.1533 -38.0153 -37.6835 -37.5094
    -1.8699  -1.8121   3.4956   3.9077   5.9712   7.1164   7.5906   9.9126
    10.5009  11.4488  12.2899  12.7420

          k = 0.0000 0.2960 0.0000 (  4540 PWs)   bands (ev):

   -38.6948 -38.6108 -38.4247 -38.2469 -38.1420 -37.9947 -37.7093 -37.5822
    -1.1912  -1.0939   4.3140   4.4346   4.8183   5.1822   6.9066   8.2463
    10.1811  10.9773  11.1468  13.6500

          k = 0.0000 0.2960 0.0923 (  4534 PWs)   bands (ev):

   -38.6979 -38.6150 -38.4181 -38.2546 -38.1391 -37.9948 -37.7085 -37.5824
    -1.1867  -1.0997   4.3585   4.4574   4.8160   5.0551   6.9521   8.6010
     9.4111  11.1949  11.6508  11.7557

          k = 0.0000-0.4440 0.0000 (  4528 PWs)   bands (ev):

   -38.6365 -38.6365 -38.3428 -38.3428 -38.0444 -38.0444 -37.6691 -37.6691
    -0.6198  -0.6198   3.4175   3.4175   5.7202   5.7202   7.4232   7.4232
     8.6813   8.6813  14.5865  14.5865

          k = 0.0000-0.4440 0.0923 (  4532 PWs)   bands (ev):

   -38.6365 -38.6365 -38.3419 -38.3419 -38.0439 -38.0439 -37.6685 -37.6685
    -0.6196  -0.6196   3.4049   3.4049   5.8714   5.8714   7.0480   7.0480
     9.0235   9.0235  13.8874  13.8874

          k = 0.1480 0.1480 0.0000 (  4521 PWs)   bands (ev):

   -38.7385 -38.6090 -38.4589 -38.1988 -38.1935 -38.0028 -37.6991 -37.5349
    -1.5962  -1.5064   3.7205   4.4049   6.1733   6.2833   7.0427   9.1116
     9.3935  10.2634  12.9140  14.0288

          k = 0.1480 0.1480 0.0923 (  4539 PWs)   bands (ev):

   -38.7363 -38.6160 -38.4475 -38.2319 -38.1634 -38.0036 -37.6986 -37.5352
    -1.5909  -1.5121   3.8065   4.2625   6.2703   6.3379   6.9336   9.1549
     9.3014  10.7651  12.0744  12.6622

          k = 0.1480 0.2960 0.0000 (  4552 PWs)   bands (ev):

   -38.6874 -38.6154 -38.4136 -38.2643 -38.1281 -37.9990 -37.7101 -37.5997
    -0.8486  -0.7189   4.2834   4.5593   4.8019   5.5442   7.0529   8.1513
     9.3382   9.5030  10.6408  11.1759

          k = 0.1480 0.2960 0.0923 (  4561 PWs)   bands (ev):

   -38.6867 -38.6184 -38.4101 -38.2708 -38.1259 -38.0010 -37.7111 -37.6012
    -0.8418  -0.7267   4.2971   4.6142   4.8402   5.3175   7.1688   8.5250
     9.1398   9.5584   9.9254  11.6582

          k = 0.1480-0.4440 0.0000 (  4552 PWs)   bands (ev):

   -38.6399 -38.6399 -38.3443 -38.3443 -38.0473 -38.0473 -37.6712 -37.6712
    -0.1844  -0.1844   3.3525   3.3525   5.9214   5.9214   7.6654   7.6654
     8.6251   8.6251  10.3429  10.3429

          k = 0.1480-0.4440 0.0923 (  4544 PWs)   bands (ev):

   -38.6403 -38.6403 -38.3435 -38.3435 -38.0468 -38.0468 -37.6702 -37.6702
    -0.1840  -0.1840   3.3385   3.3385   6.1224   6.1224   7.1443   7.1443
     9.1623   9.1623  10.1793  10.1793

          k = 0.2960 0.2960 0.0000 (  4570 PWs)   bands (ev):

   -38.6633 -38.6224 -38.3827 -38.3001 -38.0900 -38.0129 -37.6978 -37.6329
     0.1014   0.3187   3.6589   4.4458   5.2951   6.4595   6.5259   7.3657
     7.5469   8.2797  11.0462  11.2425

          k = 0.2960 0.2960 0.0923 (  4565 PWs)   bands (ev):

   -38.6625 -38.6232 -38.3792 -38.3028 -38.0889 -38.0124 -37.6967 -37.6331
     0.1139   0.3037   3.7166   4.3272   5.4711   5.9577   6.8596   7.3537
     8.0613   8.2945   9.3964  11.1076

          k = 0.2960-0.4440 0.0000 (  4588 PWs)   bands (ev):

   -38.6361 -38.6361 -38.3417 -38.3417 -38.0450 -38.0450 -37.6692 -37.6692
     1.1033   1.1033   3.2209   3.2209   6.1606   6.1606   6.3780   6.3780
     8.3761   8.3761   9.8075   9.8075

          k = 0.2960-0.4440 0.0923 (  4568 PWs)   bands (ev):

   -38.6370 -38.6370 -38.3421 -38.3421 -38.0453 -38.0453 -37.6692 -37.6692
     1.1059   1.1059   3.2033   3.2033   5.9982   5.9982   6.8329   6.8329
     7.9407   7.9407   9.6850   9.6850

          k =-0.4440-0.4440 0.0000 (  4584 PWs)   bands (ev):

   -38.6333 -38.6333 -38.3427 -38.3427 -38.0452 -38.0452 -37.6710 -37.6710
     2.7680   2.7680   3.3575   3.3575   3.5653   3.5653   6.6181   6.6181
     9.1992   9.1992  10.1386  10.1386

          k =-0.4440-0.4440 0.0923 (  4612 PWs)   bands (ev):

   -38.6341 -38.6341 -38.3451 -38.3451 -38.0466 -38.0466 -37.6723 -37.6723
     2.8268   2.8268   3.3577   3.3577   3.4430   3.4430   7.1373   7.1373
     8.4797   8.4797   9.1978   9.1978

     the Fermi energy is     8.4977 ev

!    total energy              =    -131.17163538 Ry
     estimated scf accuracy    <          2.2E-11 Ry
     smearing contrib. (-TS)   =      -0.00066846 Ry
     internal energy E=F+TS    =    -131.17096692 Ry

     The total energy is F=E-TS. E is the sum of the following terms:
     one-electron contribution =     -43.13179783 Ry
     hartree contribution      =      23.14912163 Ry
     xc contribution           =     -34.73799080 Ry
     ewald contribution        =     -76.45029992 Ry

     convergence has been achieved in  12 iterations

     Forces acting on atoms (cartesian axes, Ry/au):

     atom    1 type  1   force =     0.00000000    0.00000000    0.00204798
     atom    2 type  1   force =     0.00000000    0.00000000   -0.00204798
     atom    3 type  2   force =     0.00000000    0.00000000    0.01665562
     atom    4 type  2   force =     0.00000000    0.00000000   -0.01665562
     atom    5 type  2   force =     0.00000000    0.00000000   -0.00548671
     atom    6 type  2   force =     0.00000000    0.00000000    0.00548671
     atom    7 type  2   force =     0.00000000    0.00000000   -0.12943372
     atom    8 type  2   force =     0.00000000    0.00000000    0.12943372
     atom    9 type  2   force =     0.00000000    0.00000000    0.10192908
     atom   10 type  2   force =     0.00000000    0.00000000   -0.10192908
     The non-local contrib.  to forces
     atom    1 type  1   force =     0.00000000    0.00000000   -0.00051203
     atom    2 type  1   force =     0.00000000    0.00000000    0.00051203
     atom    3 type  2   force =     0.00000000    0.00000000    0.06749512
     atom    4 type  2   force =     0.00000000    0.00000000   -0.06749512
     atom    5 type  2   force =     0.00000000    0.00000000   -0.01148912
     atom    6 type  2   force =     0.00000000    0.00000000    0.01148912
     atom    7 type  2   force =     0.00000000    0.00000000   -0.09415291
     atom    8 type  2   force =     0.00000000    0.00000000    0.09415291
     atom    9 type  2   force =     0.00000000    0.00000000    0.02708613
     atom   10 type  2   force =     0.00000000    0.00000000   -0.02708613
     The ionic contribution  to forces
     atom    1 type  1   force =    -0.00000000   -0.00000000    0.35709669
     atom    2 type  1   force =    -0.00000000   -0.00000000   -0.35709669
     atom    3 type  2   force =    -0.00000000   -0.00000000   -0.40997696
     atom    4 type  2   force =    -0.00000000   -0.00000000    0.40997696
     atom    5 type  2   force =    -0.00000000   -0.00000000   -0.27335615
     atom    6 type  2   force =    -0.00000000   -0.00000000    0.27335615
     atom    7 type  2   force =    -0.00000000   -0.00000000   -0.15271772
     atom    8 type  2   force =    -0.00000000   -0.00000000    0.15271772
     atom    9 type  2   force =     0.00000000   -0.00000000    0.55566868
     atom   10 type  2   force =    -0.00000000   -0.00000000   -0.55566868
     The local contribution  to forces
     atom    1 type  1   force =    -0.00000000    0.00000000   -0.35434949
     atom    2 type  1   force =     0.00000000    0.00000000    0.35434949
     atom    3 type  2   force =    -0.00000000    0.00000000    0.35913892
     atom    4 type  2   force =     0.00000000   -0.00000000   -0.35913892
     atom    5 type  2   force =    -0.00000000    0.00000000    0.27936397
     atom    6 type  2   force =     0.00000000   -0.00000000   -0.27936397
     atom    7 type  2   force =    -0.00000000    0.00000000    0.11743737
     atom    8 type  2   force =     0.00000000   -0.00000000   -0.11743737
     atom    9 type  2   force =    -0.00000000    0.00000000   -0.48082684
     atom   10 type  2   force =     0.00000000    0.00000000    0.48082684
     The core correction contribution to forces
     atom    1 type  1   force =    -0.00000000    0.00000000   -0.00019399
     atom    2 type  1   force =     0.00000000   -0.00000000    0.00019399
     atom    3 type  2   force =     0.00000000    0.00000000    0.00000000
     atom    4 type  2   force =     0.00000000    0.00000000    0.00000000
     atom    5 type  2   force =     0.00000000    0.00000000    0.00000000
     atom    6 type  2   force =     0.00000000    0.00000000    0.00000000
     atom    7 type  2   force =     0.00000000    0.00000000    0.00000000
     atom    8 type  2   force =     0.00000000    0.00000000    0.00000000
     atom    9 type  2   force =     0.00000000    0.00000000    0.00000000
     atom   10 type  2   force =     0.00000000    0.00000000    0.00000000
     The Hubbard contrib.    to forces
     atom    1 type  1   force =     0.00000000    0.00000000    0.00000000
     atom    2 type  1   force =     0.00000000    0.00000000    0.00000000
     atom    3 type  2   force =     0.00000000    0.00000000    0.00000000
     atom    4 type  2   force =     0.00000000    0.00000000    0.00000000
     atom    5 type  2   force =     0.00000000    0.00000000    0.00000000
     atom    6 type  2   force =     0.00000000    0.00000000    0.00000000
     atom    7 type  2   force =     0.00000000    0.00000000    0.00000000
     atom    8 type  2   force =     0.00000000    0.00000000    0.00000000
     atom    9 type  2   force =     0.00000000    0.00000000    0.00000000
     atom   10 type  2   force =     0.00000000    0.00000000    0.00000000
     The SCF correction term to forces
     atom    1 type  1   force =     0.00000000   -0.00000000    0.00000681
     atom    2 type  1   force =     0.00000000   -0.00000000   -0.00000681
     atom    3 type  2   force =     0.00000000   -0.00000000   -0.00000146
     atom    4 type  2   force =    -0.00000000    0.00000000    0.00000146
     atom    5 type  2   force =    -0.00000000   -0.00000000   -0.00000541
     atom    6 type  2   force =     0.00000000   -0.00000000    0.00000541
     atom    7 type  2   force =     0.00000000    0.00000000   -0.00000047
     atom    8 type  2   force =    -0.00000000   -0.00000000    0.00000047
     atom    9 type  2   force =     0.00000000   -0.00000000    0.00000112
     atom   10 type  2   force =     0.00000000    0.00000000   -0.00000112

     Total force =     0.234326     Total SCF correction =     0.000013


     Computing stress (Cartesian axis) and pressure

          total   stress  (Ry/bohr**3)                   (kbar)     P=      577.25
   0.00250376   0.00000000   0.00000000          368.32        0.00        0.00
   0.00000000   0.00250376   0.00000000            0.00      368.32        0.00
   0.00000000   0.00000000   0.00676475            0.00        0.00      995.13

     Energy error            =      4.0E-04 Ry
     Gradient error          =      1.3E-01 Ry/Bohr
     Cell gradient error     =      5.0E+02 kbar

     number of scf cycles    =   3
     number of bfgs steps    =   2

     enthalpy           old  =    -129.2911525146 Ry
     enthalpy           new  =    -129.2915560421 Ry

     CASE: enthalpy          _new > enthalpy          _old

     new trust radius        =       0.4501519455 bohr
ibrav =      6
 celldm(1) =      5.48222989
 celldm(3) =      3.56613536
Input lattice vectors:
     1.10884037     0.00000000     0.00000000
     0.00000000     1.10884037     0.00000000
     0.00000000     0.00000000     3.95427486
New lattice vectors in INITIAL alat:
     1.10884037     0.00000000     0.00000000
     0.00000000     1.10884037     0.00000000
     0.00000000     0.00000000     3.95427486
New lattice vectors in NEW alat (for information only):
     1.00000000     0.00000000     0.00000000
     0.00000000     1.00000000     0.00000000
     0.00000000     0.00000000     3.56613536
Discrepancy in bohr =     0.000000    0.000000    0.000000
     new conv_thr            =       0.0000000003 Ry

     new unit-cell volume =    587.58345 a.u.^3 (    87.07088 Ang^3 )
     density =      2.13022 g/cm^3

CELL_PARAMETERS (alat=  4.94411102)
   1.108840370   0.000000000   0.000000000
   0.000000000   1.108840370   0.000000000
   0.000000000   0.000000000   3.954274857

ATOMIC_POSITIONS (crystal)
Si            0.0000000000        0.5000000000        0.6995016530
Si            0.5000000000        0.0000000000        0.3004983470
Li            0.0000000000        0.5000000000        0.1003154357
Li            0.5000000000        0.0000000000        0.8996845643
Li            0.0000000000        0.5000000000        0.2998143985
Li            0.5000000000        0.0000000000        0.7001856015
Li            0.0000000000        0.5000000000        0.4995668173
Li            0.5000000000        0.0000000000        0.5004331827
Li            0.0000000000        0.5000000000        0.9005792635
Li            0.5000000000        0.0000000000        0.0994207365



     Writing config-only to output data dir ./output/SiLi.save/
     NEW-OLD atomic charge density approx. for the potential
     extrapolated charge   33.87368, renormalised to   32.00000

     total cpu time spent up to now is       27.1 secs

     Self-consistent Calculation

     iteration #  1     ecut=    60.00 Ry     beta= 0.80
     Davidson diagonalization with overlap
     ethr =  1.00E-06,  avg # of iterations =  9.0

     total cpu time spent up to now is       28.3 secs

     total energy              =    -131.32307474 Ry
     estimated scf accuracy    <       0.03941072 Ry

     iteration #  2     ecut=    60.00 Ry     beta= 0.80
     Davidson diagonalization with overlap
     ethr =  1.23E-04,  avg # of iterations =  4.8

     total cpu time spent up to now is       28.9 secs

     total energy              =    -131.19917363 Ry
     estimated scf accuracy    <       2.79328088 Ry

     iteration #  3     ecut=    60.00 Ry     beta= 0.80
     Davidson diagonalization with overlap
     ethr =  1.23E-04,  avg # of iterations =  4.2

     total cpu time spent up to now is       29.5 secs

     total energy              =    -131.36812437 Ry
     estimated scf accuracy    <       0.01529838 Ry

     iteration #  4     ecut=    60.00 Ry     beta= 0.80
     Davidson diagonalization with overlap
     ethr =  4.78E-05,  avg # of iterations =  2.3

     total cpu time spent up to now is       30.0 secs

     total energy              =    -131.36966667 Ry
     estimated scf accuracy    <       0.00799443 Ry

     iteration #  5     ecut=    60.00 Ry     beta= 0.80
     Davidson diagonalization with overlap
     ethr =  2.50E-05,  avg # of iterations =  1.4

     total cpu time spent up to now is       30.3 secs

     total energy              =    -131.36919297 Ry
     estimated scf accuracy    <       0.00303370 Ry

     iteration #  6     ecut=    60.00 Ry     beta= 0.80
     Davidson diagonalization with overlap
     ethr =  9.48E-06,  avg # of iterations =  1.9

     total cpu time spent up to now is       30.8 secs

     total energy              =    -131.36948146 Ry
     estimated scf accuracy    <       0.00006677 Ry

     iteration #  7     ecut=    60.00 Ry     beta= 0.80
     Davidson diagonalization with overlap
     ethr =  2.09E-07,  avg # of iterations =  2.6

     total cpu time spent up to now is       31.2 secs

     total energy              =    -131.36949060 Ry
     estimated scf accuracy    <       0.00000287 Ry

     iteration #  8     ecut=    60.00 Ry     beta= 0.80
     Davidson diagonalization with overlap
     ethr =  8.98E-09,  avg # of iterations =  3.0

     total cpu time spent up to now is       31.7 secs

     total energy              =    -131.36949141 Ry
     estimated scf accuracy    <       0.00000013 Ry

     iteration #  9     ecut=    60.00 Ry     beta= 0.80
     Davidson diagonalization with overlap
     ethr =  4.14E-10,  avg # of iterations =  2.9

     total cpu time spent up to now is       32.2 secs

     total energy              =    -131.36949143 Ry
     estimated scf accuracy    <       0.00000001 Ry

     iteration # 10     ecut=    60.00 Ry     beta= 0.80
     Davidson diagonalization with overlap
     ethr =  3.72E-11,  avg # of iterations =  2.0

     total cpu time spent up to now is       32.6 secs

     total energy              =    -131.36949143 Ry
     estimated scf accuracy    <          2.3E-09 Ry

     iteration # 11     ecut=    60.00 Ry     beta= 0.80
     Davidson diagonalization with overlap
     ethr =  7.34E-12,  avg # of iterations =  2.0

     total cpu time spent up to now is       33.1 secs

     End of self-consistent calculation

          k = 0.0000 0.0000 0.0000 (  4515 PWs)   bands (ev):

   -39.4031 -38.9231 -38.8498 -38.7926 -38.6357 -38.6134 -38.2465 -38.1445
    -2.5709  -2.5509   2.2743   2.6255   4.6011   9.7140   9.7140  10.2258
    10.2258  10.5854  11.7131  12.6870

          k = 0.0000 0.0000 0.0843 (  4550 PWs)   bands (ev):

   -39.4023 -38.9238 -38.8445 -38.7997 -38.6308 -38.6204 -38.2480 -38.1493
    -2.5691  -2.5528   2.3024   2.5856   4.6264   9.7464   9.7464  10.1696
    10.1696  10.2358  12.4131  12.7120

          k = 0.0000 0.1503 0.0000 (  4546 PWs)   bands (ev):

   -39.3601 -38.8850 -38.8815 -38.7694 -38.6276 -38.6066 -38.2757 -38.1842
    -2.2937  -2.2593   2.6201   3.0473   4.9174   7.1018   7.5064  10.1571
    10.6598  10.8102  10.9172  11.8705

          k = 0.0000 0.1503 0.0843 (  4538 PWs)   bands (ev):

   -39.3606 -38.8952 -38.8692 -38.7730 -38.6254 -38.6078 -38.2755 -38.1835
    -2.2919  -2.2613   2.6583   2.9894   4.9568   7.1354   7.4477  10.1888
    10.4270  10.6056  11.2407  12.0832

          k = 0.0000 0.3006 0.0000 (  4540 PWs)   bands (ev):

   -39.2511 -38.9741 -38.7913 -38.7213 -38.6104 -38.5831 -38.3395 -38.2640
    -1.5554  -1.4956   3.6283   4.1996   4.3892   4.5308   5.9791   7.9049
     9.4977  10.1414  11.4747  11.5500

          k = 0.0000 0.3006 0.0843 (  4534 PWs)   bands (ev):

   -39.2531 -38.9737 -38.7946 -38.7222 -38.6088 -38.5831 -38.3387 -38.2642
    -1.5536  -1.4981   3.6915   4.0787   4.3918   4.5572   6.0165   8.1698
     8.8305  10.8207  11.0027  11.5038

          k = 0.0000-0.4509 0.0000 (  4528 PWs)   bands (ev):

   -39.1099 -39.1099 -38.7170 -38.7170 -38.5815 -38.5815 -38.3474 -38.3474
    -0.9532  -0.9532   3.1288   3.1288   5.1590   5.1590   6.6949   6.6949
     7.7822   7.7822  12.6804  12.6804

          k = 0.0000-0.4509 0.0843 (  4532 PWs)   bands (ev):

   -39.1093 -39.1093 -38.7165 -38.7165 -38.5807 -38.5807 -38.3468 -38.3468
    -0.9531  -0.9531   3.1223   3.1223   5.2508   5.2508   6.4166   6.4166
     8.0855   8.0855  11.9474  11.9474

          k = 0.1503 0.1503 0.0000 (  4521 PWs)   bands (ev):

   -39.3217 -38.9127 -38.8494 -38.7495 -38.6220 -38.5983 -38.3016 -38.2106
    -1.9944  -1.9435   2.9550   3.4649   5.2206   6.3417   6.8632   9.1620
     9.2105  10.1541  11.1457  11.9604

          k = 0.1503 0.1503 0.0843 (  4539 PWs)   bands (ev):

   -39.3212 -38.9140 -38.8470 -38.7509 -38.6192 -38.5995 -38.3015 -38.2111
    -1.9922  -1.9459   3.0061   3.3830   5.2803   6.3759   6.8041   9.0722
     9.2256  10.5194  10.8337  11.5341

          k = 0.1503 0.3006 0.0000 (  4552 PWs)   bands (ev):

   -39.2309 -38.9950 -38.7778 -38.7165 -38.6062 -38.5795 -38.3489 -38.2801
    -1.1895  -1.1073   3.9236   4.1835   4.5268   4.6965   6.1885   7.8663
     9.3359   9.3518  10.0061  10.3000

          k = 0.1503 0.3006 0.0843 (  4561 PWs)   bands (ev):

   -39.2315 -38.9954 -38.7778 -38.7169 -38.6060 -38.5816 -38.3492 -38.2813
    -1.1863  -1.1109   3.9975   4.1804   4.4854   4.5979   6.2814   8.1574
     8.8031   9.5275   9.5697  10.8788

          k = 0.1503-0.4509 0.0000 (  4552 PWs)   bands (ev):

   -39.1110 -39.1110 -38.7182 -38.7182 -38.5813 -38.5813 -38.3482 -38.3482
    -0.4959  -0.4959   3.0937   3.0937   5.4133   5.4133   6.9606   6.9606
     7.8985   7.8985  10.1827  10.1827

          k = 0.1503-0.4509 0.0843 (  4544 PWs)   bands (ev):

   -39.1106 -39.1106 -38.7183 -38.7183 -38.5802 -38.5802 -38.3473 -38.3473
    -0.4958  -0.4958   3.0866   3.0866   5.5416   5.5416   6.5727   6.5727
     8.3255   8.3255  10.1057  10.1057

          k = 0.3006 0.3006 0.0000 (  4570 PWs)   bands (ev):

   -39.1761 -39.0430 -38.7437 -38.7077 -38.5922 -38.5713 -38.3573 -38.3123
    -0.1737  -0.0299   3.6236   4.1712   4.7721   5.8274   6.2817   7.1664
     7.3226   7.5604   9.8930  10.4971

          k = 0.3006 0.3006 0.0843 (  4565 PWs)   bands (ev):

   -39.1759 -39.0426 -38.7438 -38.7073 -38.5918 -38.5707 -38.3564 -38.3127
    -0.1672  -0.0375   3.6604   4.1057   4.9158   5.4235   6.6709   7.0552
     7.5735   7.6984   8.7376  10.4849

          k = 0.3006-0.4509 0.0000 (  4588 PWs)   bands (ev):

   -39.1066 -39.1066 -38.7130 -38.7130 -38.5765 -38.5765 -38.3441 -38.3441
     0.8598   0.8598   3.0177   3.0177   6.0035   6.0035   6.1142   6.1142
     7.7031   7.7031   8.7675   8.7675

          k = 0.3006-0.4509 0.0843 (  4568 PWs)   bands (ev):

   -39.1071 -39.1071 -38.7139 -38.7139 -38.5764 -38.5764 -38.3442 -38.3442
     0.8607   0.8607   3.0090   3.0090   5.9455   5.9455   6.3568   6.3568
     7.3112   7.3112   8.9376   8.9376

          k =-0.4509-0.4509 0.0000 (  4584 PWs)   bands (ev):

   -39.1052 -39.1052 -38.7101 -38.7101 -38.5762 -38.5762 -38.3437 -38.3437
     2.7044   2.7044   3.2238   3.2238   3.2618   3.2618   6.3587   6.3587
     8.6819   8.6819   8.9505   8.9505

          k =-0.4509-0.4509 0.0843 (  4612 PWs)   bands (ev):

   -39.1062 -39.1062 -38.7111 -38.7111 -38.5775 -38.5775 -38.3447 -38.3447
     2.7421   2.7421   3.1937   3.1937   3.2239   3.2239   6.7385   6.7385
     7.7849   7.7849   8.6813   8.6813

     the Fermi energy is     7.9339 ev

!    total energy              =    -131.36949144 Ry
     estimated scf accuracy    <          6.4E-11 Ry
     smearing contrib. (-TS)   =      -0.00003895 Ry
     internal energy E=F+TS    =    -131.36945248 Ry

     The total energy is F=E-TS. E is the sum of the following terms:
     one-electron contribution =     -45.21439587 Ry
     hartree contribution      =      23.50909017 Ry
     xc contribution           =     -34.56015954 Ry
     ewald contribution        =     -75.10398724 Ry

     convergence has been achieved in  11 iterations

     Forces acting on atoms (cartesian axes, Ry/au):

     atom    1 type  1   force =     0.00000000    0.00000000   -0.00262379
     atom    2 type  1   force =     0.00000000    0.00000000    0.00262379
     atom    3 type  2   force =     0.00000000    0.00000000    0.01758882
     atom    4 type  2   force =     0.00000000    0.00000000   -0.01758882
     atom    5 type  2   force =     0.00000000    0.00000000   -0.00079102
     atom    6 type  2   force =     0.00000000    0.00000000    0.00079102
     atom    7 type  2   force =     0.00000000    0.00000000   -0.07015481
     atom    8 type  2   force =     0.00000000    0.00000000    0.07015481
     atom    9 type  2   force =     0.00000000    0.00000000    0.04355266
     atom   10 type  2   force =     0.00000000    0.00000000   -0.04355266
     The non-local contrib.  to forces
     atom    1 type  1   force =     0.00000000    0.00000000   -0.00133953
     atom    2 type  1   force =     0.00000000    0.00000000    0.00133953
     atom    3 type  2   force =     0.00000000    0.00000000    0.07153893
     atom    4 type  2   force =     0.00000000    0.00000000   -0.07153893
     atom    5 type  2   force =     0.00000000    0.00000000   -0.00442187
     atom    6 type  2   force =     0.00000000    0.00000000    0.00442187
     atom    7 type  2   force =     0.00000000    0.00000000   -0.07299908
     atom    8 type  2   force =     0.00000000    0.00000000    0.07299908
     atom    9 type  2   force =     0.00000000    0.00000000   -0.00442911
     atom   10 type  2   force =     0.00000000    0.00000000    0.00442911
     The ionic contribution  to forces
     atom    1 type  1   force =    -0.00000000    0.00000000    0.35766871
     atom    2 type  1   force =     0.00000000   -0.00000000   -0.35766871
     atom    3 type  2   force =    -0.00000000    0.00000000   -0.44724842
     atom    4 type  2   force =     0.00000000   -0.00000000    0.44724842
     atom    5 type  2   force =    -0.00000000    0.00000000   -0.26820918
     atom    6 type  2   force =     0.00000000   -0.00000000    0.26820918
     atom    7 type  2   force =    -0.00000000    0.00000000   -0.11492900
     atom    8 type  2   force =    -0.00000000   -0.00000000    0.11492900
     atom    9 type  2   force =    -0.00000000   -0.00000000    0.55063541
     atom   10 type  2   force =     0.00000000   -0.00000000   -0.55063541
     The local contribution  to forces
     atom    1 type  1   force =    -0.00000000    0.00000000   -0.35884708
     atom    2 type  1   force =     0.00000000   -0.00000000    0.35884708
     atom    3 type  2   force =    -0.00000000    0.00000000    0.39329330
     atom    4 type  2   force =    -0.00000000    0.00000000   -0.39329330
     atom    5 type  2   force =    -0.00000000    0.00000000    0.27183220
     atom    6 type  2   force =     0.00000000    0.00000000   -0.27183220
     atom    7 type  2   force =    -0.00000000    0.00000000    0.11777330
     atom    8 type  2   force =     0.00000000    0.00000000   -0.11777330
     atom    9 type  2   force =    -0.00000000    0.00000000   -0.50264872
     atom   10 type  2   force =     0.00000000    0.00000000    0.50264872
     The core correction contribution to forces
     atom    1 type  1   force =    -0.00000000    0.00000000   -0.00009553
     atom    2 type  1   force =     0.00000000   -0.00000000    0.00009553
     atom    3 type  2   force =     0.00000000    0.00000000    0.00000000
     atom    4 type  2   force =     0.00000000    0.00000000    0.00000000
     atom    5 type  2   force =     0.00000000    0.00000000    0.00000000
     atom    6 type  2   force =     0.00000000    0.00000000    0.00000000
     atom    7 type  2   force =     0.00000000    0.00000000    0.00000000
     atom    8 type  2   force =     0.00000000    0.00000000    0.00000000
     atom    9 type  2   force =     0.00000000    0.00000000    0.00000000
     atom   10 type  2   force =     0.00000000    0.00000000    0.00000000
     The Hubbard contrib.    to forces
     atom    1 type  1   force =     0.00000000    0.00000000    0.00000000
     atom    2 type  1   force =     0.00000000    0.00000000    0.00000000
     atom    3 type  2   force =     0.00000000    0.00000000    0.00000000
     atom    4 type  2   force =     0.00000000    0.00000000    0.00000000
     atom    5 type  2   force =     0.00000000    0.00000000    0.00000000
     atom    6 type  2   force =     0.00000000    0.00000000    0.00000000
     atom    7 type  2   force =     0.00000000    0.00000000    0.00000000
     atom    8 type  2   force =     0.00000000    0.00000000    0.00000000
     atom    9 type  2   force =     0.00000000    0.00000000    0.00000000
     atom   10 type  2   force =     0.00000000    0.00000000    0.00000000
     The SCF correction term to forces
     atom    1 type  1   force =    -0.00000000   -0.00000000   -0.00001037
     atom    2 type  1   force =     0.00000000    0.00000000    0.00001037
     atom    3 type  2   force =     0.00000000    0.00000000    0.00000501
     atom    4 type  2   force =     0.00000000   -0.00000000   -0.00000501
     atom    5 type  2   force =    -0.00000000    0.00000000    0.00000783
     atom    6 type  2   force =     0.00000000    0.00000000   -0.00000783
     atom    7 type  2   force =     0.00000000    0.00000000   -0.00000003
     atom    8 type  2   force =    -0.00000000    0.00000000    0.00000003
     atom    9 type  2   force =    -0.00000000   -0.00000000   -0.00000492
     atom   10 type  2   force =     0.00000000   -0.00000000    0.00000492

     Total force =     0.119461     Total SCF correction =     0.000021


     Computing stress (Cartesian axis) and pressure

          total   stress  (Ry/bohr**3)                   (kbar)     P=      466.49
   0.00317227   0.00000000   0.00000000          466.66        0.00        0.00
   0.00000000   0.00317227   0.00000000            0.00      466.66        0.00
   0.00000000   0.00000000   0.00316887            0.00        0.00      466.16

     Energy error            =      8.1E-02 Ry
     Gradient error          =      7.0E-02 Ry/Bohr
     Cell gradient error     =      3.4E+01 kbar

     number of scf cycles    =   4
     number of bfgs steps    =   2

     enthalpy           old  =    -129.2911525146 Ry
     enthalpy           new  =    -129.3723358796 Ry

     CASE: enthalpy          _new < enthalpy          _old

     new trust radius        =       0.0640559484 bohr
ibrav =      6
 celldm(1) =      5.47222751
 celldm(3) =      3.52544897
Input lattice vectors:
     1.10681728     0.00000000     0.00000000
     0.00000000     1.10681728     0.00000000
     0.00000000     0.00000000     3.90202783
New lattice vectors in INITIAL alat:
     1.10681728     0.00000000     0.00000000
     0.00000000     1.10681728     0.00000000
     0.00000000     0.00000000     3.90202783
New lattice vectors in NEW alat (for information only):
     1.00000000     0.00000000     0.00000000
     0.00000000     1.00000000     0.00000000
     0.00000000     0.00000000     3.52544897
Discrepancy in bohr =     0.000000    0.000000    0.000000
     new conv_thr            =       0.0000000007 Ry

     new unit-cell volume =    577.70599 a.u.^3 (    85.60719 Ang^3 )
     density =      2.16665 g/cm^3

CELL_PARAMETERS (alat=  4.94411102)
   1.106817280   0.000000000   0.000000000
   0.000000000   1.106817280   0.000000000
   0.000000000   0.000000000   3.902027834

ATOMIC_POSITIONS (crystal)
Si            0.0000000000        0.5000000000        0.6994008864
Si            0.5000000000        0.0000000000        0.3005991136
Li            0.0000000000        0.5000000000        0.1009601037
Li            0.5000000000        0.0000000000        0.8990398963
Li            0.0000000000        0.5000000000        0.2997831321
Li            0.5000000000        0.0000000000        0.7002168679
Li            0.0000000000        0.5000000000        0.4969263434
Li            0.5000000000        0.0000000000        0.5030736566
Li            0.0000000000        0.5000000000        0.9022392671
Li            0.5000000000        0.0000000000        0.0977607329



     Writing config-only to output data dir ./output/SiLi.save/
     NEW-OLD atomic charge density approx. for the potential
     extrapolated charge   31.45352, renormalised to   32.00000

     total cpu time spent up to now is       34.9 secs

     Self-consistent Calculation

     iteration #  1     ecut=    60.00 Ry     beta= 0.80
     Davidson diagonalization with overlap
     ethr =  1.00E-06,  avg # of iterations =  6.5

     total cpu time spent up to now is       35.8 secs

     total energy              =    -131.34368630 Ry
     estimated scf accuracy    <       0.00239193 Ry

     iteration #  2     ecut=    60.00 Ry     beta= 0.80
     Davidson diagonalization with overlap
     ethr =  7.47E-06,  avg # of iterations =  5.2

     total cpu time spent up to now is       36.5 secs

     total energy              =    -131.33701158 Ry
     estimated scf accuracy    <       0.16341565 Ry

     iteration #  3     ecut=    60.00 Ry     beta= 0.80
     Davidson diagonalization with overlap
     ethr =  7.47E-06,  avg # of iterations =  3.8

     total cpu time spent up to now is       37.1 secs

     total energy              =    -131.34713624 Ry
     estimated scf accuracy    <       0.00168437 Ry

     iteration #  4     ecut=    60.00 Ry     beta= 0.80
     Davidson diagonalization with overlap
     ethr =  5.26E-06,  avg # of iterations =  1.4

     total cpu time spent up to now is       37.5 secs

     total energy              =    -131.34715455 Ry
     estimated scf accuracy    <       0.00067022 Ry

     iteration #  5     ecut=    60.00 Ry     beta= 0.80
     Davidson diagonalization with overlap
     ethr =  2.09E-06,  avg # of iterations =  1.1

     total cpu time spent up to now is       37.9 secs

     total energy              =    -131.34710212 Ry
     estimated scf accuracy    <       0.00037586 Ry

     iteration #  6     ecut=    60.00 Ry     beta= 0.80
     Davidson diagonalization with overlap
     ethr =  1.17E-06,  avg # of iterations =  1.4

     total cpu time spent up to now is       38.3 secs

     total energy              =    -131.34711492 Ry
     estimated scf accuracy    <       0.00002890 Ry

     iteration #  7     ecut=    60.00 Ry     beta= 0.80
     Davidson diagonalization with overlap
     ethr =  9.03E-08,  avg # of iterations =  2.3

     total cpu time spent up to now is       38.7 secs

     total energy              =    -131.34711810 Ry
     estimated scf accuracy    <       0.00000009 Ry

     iteration #  8     ecut=    60.00 Ry     beta= 0.80
     Davidson diagonalization with overlap
     ethr =  2.91E-10,  avg # of iterations =  4.5

[...]
        k(   19) = (  -0.5129546  -0.5129546   0.0000000), wk =   0.0185185
        k(   20) = (  -0.5129546  -0.5129546   0.0672288), wk =   0.0370370

     Dense  grid:    35741 G-vectors     FFT dimensions: (  24,  24, 125)

     Estimated max dynamical RAM per process >      17.86 MB

     Estimated total dynamical RAM >     142.90 MB

     Initial potential from superposition of free atoms

     starting charge      31.9623, renormalised to      32.0000
     Starting wfcs are   24 randomized atomic wfcs

     total cpu time spent up to now is      300.6 secs

     Self-consistent Calculation

     iteration #  1     ecut=    60.00 Ry     beta= 0.80
     Davidson diagonalization with overlap
     c_bands:  1 eigenvalues not converged
     c_bands:  1 eigenvalues not converged
     c_bands:  1 eigenvalues not converged
     c_bands:  1 eigenvalues not converged
     c_bands:  1 eigenvalues not converged
     c_bands:  1 eigenvalues not converged
     c_bands:  1 eigenvalues not converged
     c_bands:  1 eigenvalues not converged
     c_bands:  5 eigenvalues not converged
     c_bands:  2 eigenvalues not converged
     ethr =  1.00E-06,  avg # of iterations = 18.2

     total cpu time spent up to now is      302.0 secs

     total energy              =    -130.58878528 Ry
     estimated scf accuracy    <       1.27018344 Ry

     iteration #  2     ecut=    60.00 Ry     beta= 0.80
     Davidson diagonalization with overlap
     ethr =  3.97E-03,  avg # of iterations =  6.7

     total cpu time spent up to now is      302.6 secs

     total energy              =    -129.73175607 Ry
     estimated scf accuracy    <      56.09508718 Ry

     iteration #  3     ecut=    60.00 Ry     beta= 0.80
     Davidson diagonalization with overlap
     ethr =  3.97E-03,  avg # of iterations =  5.7

     total cpu time spent up to now is      303.2 secs

     total energy              =    -131.39726849 Ry
     estimated scf accuracy    <       5.68187364 Ry

     iteration #  4     ecut=    60.00 Ry     beta= 0.80
     Davidson diagonalization with overlap
     ethr =  3.97E-03,  avg # of iterations =  3.0

     total cpu time spent up to now is      303.6 secs

     total energy              =    -131.58345888 Ry
     estimated scf accuracy    <       0.36121301 Ry

     iteration #  5     ecut=    60.00 Ry     beta= 0.80
     Davidson diagonalization with overlap
     ethr =  1.13E-03,  avg # of iterations =  4.0

     total cpu time spent up to now is      304.0 secs

     total energy              =    -131.66679459 Ry
     estimated scf accuracy    <       0.70727631 Ry

     iteration #  6     ecut=    60.00 Ry     beta= 0.80
     Davidson diagonalization with overlap
     ethr =  1.13E-03,  avg # of iterations =  1.1

     total cpu time spent up to now is      304.3 secs

     total energy              =    -131.63962173 Ry
     estimated scf accuracy    <       0.31570099 Ry

     iteration #  7     ecut=    60.00 Ry     beta= 0.80
     Davidson diagonalization with overlap
     ethr =  9.87E-04,  avg # of iterations =  1.3

     total cpu time spent up to now is      304.7 secs

     total energy              =    -131.65594985 Ry
     estimated scf accuracy    <       0.00638412 Ry

     iteration #  8     ecut=    60.00 Ry     beta= 0.80
     Davidson diagonalization with overlap
     ethr =  2.00E-05,  avg # of iterations =  3.9

     total cpu time spent up to now is      305.0 secs

     total energy              =    -131.65629786 Ry
     estimated scf accuracy    <       0.00052309 Ry

     iteration #  9     ecut=    60.00 Ry     beta= 0.80
     Davidson diagonalization with overlap
     ethr =  1.63E-06,  avg # of iterations =  4.5

     total cpu time spent up to now is      305.5 secs

     total energy              =    -131.65591663 Ry
     estimated scf accuracy    <       0.00768181 Ry

     iteration # 10     ecut=    60.00 Ry     beta= 0.80
     Davidson diagonalization with overlap
     ethr =  1.63E-06,  avg # of iterations =  2.1

     total cpu time spent up to now is      305.8 secs

     total energy              =    -131.65623217 Ry
     estimated scf accuracy    <       0.00016192 Ry

     iteration # 11     ecut=    60.00 Ry     beta= 0.80
     Davidson diagonalization with overlap
     ethr =  5.06E-07,  avg # of iterations =  1.0

     total cpu time spent up to now is      306.1 secs

     total energy              =    -131.65624108 Ry
     estimated scf accuracy    <       0.00001829 Ry

     iteration # 12     ecut=    60.00 Ry     beta= 0.80
     Davidson diagonalization with overlap
     ethr =  5.72E-08,  avg # of iterations =  1.3

     total cpu time spent up to now is      306.4 secs

     total energy              =    -131.65624134 Ry
     estimated scf accuracy    <       0.00000199 Ry

     iteration # 13     ecut=    60.00 Ry     beta= 0.80
     Davidson diagonalization with overlap
     ethr =  6.22E-09,  avg # of iterations =  2.0

     total cpu time spent up to now is      306.8 secs

     total energy              =    -131.65624148 Ry
     estimated scf accuracy    <       0.00000013 Ry

     iteration # 14     ecut=    60.00 Ry     beta= 0.80
     Davidson diagonalization with overlap
     ethr =  4.19E-10,  avg # of iterations =  3.0

     total cpu time spent up to now is      307.2 secs

     total energy              =    -131.65624150 Ry
     estimated scf accuracy    <       0.00000006 Ry

     iteration # 15     ecut=    60.00 Ry     beta= 0.80
     Davidson diagonalization with overlap
     ethr =  1.79E-10,  avg # of iterations =  1.2

     total cpu time spent up to now is      307.5 secs

     total energy              =    -131.65624150 Ry
     estimated scf accuracy    <          7.2E-09 Ry

     iteration # 16     ecut=    60.00 Ry     beta= 0.80
     Davidson diagonalization with overlap
     ethr =  2.24E-11,  avg # of iterations =  2.4

     total cpu time spent up to now is      307.8 secs

     End of self-consistent calculation

          k = 0.0000 0.0000 0.0000 (  4441 PWs)   bands (ev):

   -38.3821 -37.9685 -37.9220 -37.9175 -37.4467 -37.3158 -37.1649 -36.9273
    -4.5007  -4.4958   2.5746   3.4068   4.6336   5.9586   7.0673  10.3712
    10.5648  13.8967  13.8967  14.4513

          k = 0.0000 0.0000 0.0672 (  4452 PWs)   bands (ev):

   -38.3820 -37.9690 -37.9214 -37.9178 -37.4465 -37.3161 -37.1657 -36.9279
    -4.5008  -4.4959   2.5760   3.3953   4.7456   5.6231   7.7207   8.9603
    12.1880  13.8981  13.8982  14.1774

          k = 0.0000 0.1710 0.0000 (  4448 PWs)   bands (ev):

   -38.3412 -37.9823 -37.8915 -37.8888 -37.4127 -37.3108 -37.1678 -36.9495
    -3.9716  -3.9555   2.8393   3.6748   4.8899   6.2104   7.0473   8.6619
     9.3881  11.1065  11.1573  14.2091

          k = 0.0000 0.1710 0.0672 (  4443 PWs)   bands (ev):

   -38.3410 -37.9823 -37.8910 -37.8890 -37.4126 -37.3106 -37.1677 -36.9497
    -3.9715  -3.9555   2.8402   3.6625   5.0051   5.8498   7.6325   8.4159
     9.2431  10.3655  12.4394  14.0215

          k = 0.0000 0.3420 0.0000 (  4452 PWs)   bands (ev):

   -38.2391 -38.0309 -37.8286 -37.8279 -37.3378 -37.3006 -37.1636 -37.0141
    -2.4294  -2.3835   3.5773   4.1303   4.2441   4.3993   5.7916   6.8955
     8.3435   9.7006  10.8691  12.0075

          k = 0.0000 0.3420 0.0672 (  4445 PWs)   bands (ev):

   -38.2389 -38.0309 -37.8284 -37.8279 -37.3378 -37.3006 -37.1632 -37.0142
    -2.4293  -2.3835   3.5783   4.1281   4.2453   4.3948   5.8374   6.7819
     8.5248   9.6187  10.7673  11.9576

          k = 0.0000-0.5130 0.0000 (  4460 PWs)   bands (ev):

   -38.1217 -38.1217 -37.7957 -37.7957 -37.2973 -37.2973 -37.1063 -37.1063
    -0.6144  -0.6144   1.4944   1.4944   4.4536   4.4536   7.2549   7.2549
     7.7622   7.7622  10.8989  10.8989

          k = 0.0000-0.5130 0.0672 (  4454 PWs)   bands (ev):

   -38.1217 -38.1217 -37.7956 -37.7956 -37.2972 -37.2972 -37.1062 -37.1062
    -0.6144  -0.6144   1.4944   1.4944   4.4536   4.4536   7.2506   7.2506
     7.7691   7.7691  10.8723  10.8723

          k = 0.1710 0.1710 0.0000 (  4471 PWs)   bands (ev):

   -38.3045 -37.9931 -37.8655 -37.8636 -37.3831 -37.3046 -37.1662 -36.9663
    -3.4408  -3.4104   3.1380   3.9936   5.1638   6.5306   7.3418   8.3924
     8.8613   9.9325  10.3422  13.0260

          k = 0.1710 0.1710 0.0672 (  4458 PWs)   bands (ev):

   -38.3043 -37.9929 -37.8650 -37.8636 -37.3828 -37.3043 -37.1659 -36.9663
    -3.4407  -3.4104   3.1396   3.9777   5.2877   6.1469   7.9848   8.3933
     8.8595   9.0396  10.8793  12.7629

          k = 0.1710 0.3420 0.0000 (  4466 PWs)   bands (ev):

   -38.2124 -38.0323 -37.8111 -37.8107 -37.3194 -37.2903 -37.1511 -37.0181
    -1.8913  -1.8224   3.9803   4.5604   4.7398   4.8332   6.0840   7.3266
     8.5776   9.8890  10.7780  11.1257

          k = 0.1710 0.3420 0.0672 (  4471 PWs)   bands (ev):

   -38.2126 -38.0323 -37.8111 -37.8109 -37.3193 -37.2905 -37.1513 -37.0181
    -1.8913  -1.8224   3.9826   4.5576   4.7414   4.8211   6.1574   7.1447
     8.8825   9.7551  10.5845  11.1080

          k = 0.1710-0.5130 0.0000 (  4480 PWs)   bands (ev):

   -38.1093 -38.1093 -37.7833 -37.7833 -37.2856 -37.2856 -37.0948 -37.0948
    -0.0146  -0.0146   1.9273   1.9273   4.9961   4.9961   7.5324   7.5324
     8.2059   8.2059  10.9121  10.9121

          k = 0.1710-0.5130 0.0672 (  4482 PWs)   bands (ev):

   -38.1094 -38.1094 -37.7833 -37.7833 -37.2857 -37.2857 -37.0948 -37.0948
    -0.0146  -0.0146   1.9273   1.9273   4.9963   4.9963   7.5224   7.5224
     8.2238   8.2238  10.8628  10.8628

          k = 0.3420 0.3420 0.0000 (  4478 PWs)   bands (ev):

   -38.1489 -38.0448 -37.7757 -37.7756 -37.2818 -37.2701 -37.1169 -37.0348
    -0.3211  -0.1845   4.8834   5.1053   5.3893   6.0220   6.8959   7.6981
     8.0676   8.7164   9.2858  10.5405

          k = 0.3420 0.3420 0.0672 (  4495 PWs)   bands (ev):

   -38.1492 -38.0451 -37.7762 -37.7757 -37.2820 -37.2706 -37.1172 -37.0351
    -0.3211  -0.1845   4.8845   5.1148   5.3869   5.9638   7.0888   7.5082
     8.1105   8.6554   9.4610  10.0469

          k = 0.3420-0.5130 0.0000 (  4498 PWs)   bands (ev):

   -38.0844 -38.0844 -37.7582 -37.7582 -37.2622 -37.2622 -37.0715 -37.0715
     1.7396   1.7396   3.0830   3.0830   6.5607   6.5607   8.1881   8.1881
     8.7655   8.7655   9.3268   9.3268

          k = 0.3420-0.5130 0.0672 (  4510 PWs)   bands (ev):

   -38.0846 -38.0846 -37.7584 -37.7584 -37.2624 -37.2624 -37.0717 -37.0717
     1.7396   1.7396   3.0828   3.0828   6.5679   6.5679   8.1118   8.1118
     8.8786   8.8786   9.3160   9.3160

          k =-0.5130-0.5130 0.0000 (  4544 PWs)   bands (ev):

   -38.0726 -38.0726 -37.7464 -37.7464 -37.2512 -37.2512 -37.0607 -37.0607
     3.7118   3.7118   4.2314   4.2314   5.6331   5.6331   8.0241   8.0241
     8.9205   8.9205   9.6016   9.6016

          k =-0.5130-0.5130 0.0672 (  4480 PWs)   bands (ev):

   -38.0715 -38.0715 -37.7453 -37.7453 -37.2501 -37.2501 -37.0596 -37.0596
     3.7131   3.7131   4.2288   4.2288   5.6331   5.6331   8.2013   8.2013
     8.7912   8.7912   8.9201   8.9201

     the Fermi energy is     8.2387 ev

!    total energy              =    -131.65624150 Ry
     estimated scf accuracy    <          1.9E-11 Ry
     smearing contrib. (-TS)   =      -0.00258587 Ry
     internal energy E=F+TS    =    -131.65365563 Ry

     The total energy is F=E-TS. E is the sum of the following terms:
     one-electron contribution =     -42.88054627 Ry
     hartree contribution      =      23.07540772 Ry
     xc contribution           =     -34.66795498 Ry
     ewald contribution        =     -77.18056211 Ry

     convergence has been achieved in  16 iterations

     Forces acting on atoms (cartesian axes, Ry/au):

     atom    1 type  1   force =     0.00000000    0.00000000   -0.00103225
     atom    2 type  1   force =     0.00000000    0.00000000    0.00103225
     atom    3 type  2   force =     0.00000000    0.00000000   -0.00001107
     atom    4 type  2   force =     0.00000000    0.00000000    0.00001107
     atom    5 type  2   force =     0.00000000    0.00000000    0.00062215
     atom    6 type  2   force =     0.00000000    0.00000000   -0.00062215
     atom    7 type  2   force =     0.00000000    0.00000000   -0.00007755
     atom    8 type  2   force =     0.00000000    0.00000000    0.00007755
     atom    9 type  2   force =     0.00000000    0.00000000    0.00076175
     atom   10 type  2   force =     0.00000000    0.00000000   -0.00076175
     The non-local contrib.  to forces
     atom    1 type  1   force =     0.00000000    0.00000000   -0.00066994
     atom    2 type  1   force =     0.00000000    0.00000000    0.00066994
     atom    3 type  2   force =     0.00000000    0.00000000   -0.04166752
     atom    4 type  2   force =     0.00000000    0.00000000    0.04166752
     atom    5 type  2   force =     0.00000000    0.00000000    0.02413433
     atom    6 type  2   force =     0.00000000    0.00000000   -0.02413433
     atom    7 type  2   force =     0.00000000    0.00000000    0.00761334
     atom    8 type  2   force =     0.00000000    0.00000000   -0.00761334
     atom    9 type  2   force =     0.00000000    0.00000000   -0.05477968
     atom   10 type  2   force =     0.00000000    0.00000000    0.05477968
     The ionic contribution  to forces
     atom    1 type  1   force =     0.00000000   -0.00000000    0.55536277
     atom    2 type  1   force =    -0.00000000    0.00000000   -0.55536277
     atom    3 type  2   force =     0.00000000   -0.00000000   -0.12907671
     atom    4 type  2   force =    -0.00000000    0.00000000    0.12907671
     atom    5 type  2   force =     0.00000000   -0.00000000   -0.76410442
     atom    6 type  2   force =    -0.00000000    0.00000000    0.76410442
     atom    7 type  2   force =     0.00000000   -0.00000000   -0.11479249
     atom    8 type  2   force =    -0.00000000    0.00000000    0.11479249
     atom    9 type  2   force =     0.00000000   -0.00000000    0.75445872
     atom   10 type  2   force =    -0.00000000    0.00000000   -0.75445872
     The local contribution  to forces
     atom    1 type  1   force =     0.00000000    0.00000000   -0.55565830
     atom    2 type  1   force =     0.00000000   -0.00000000    0.55565830
     atom    3 type  2   force =     0.00000000   -0.00000000    0.17073045
     atom    4 type  2   force =    -0.00000000    0.00000000   -0.17073045
     atom    5 type  2   force =     0.00000000   -0.00000000    0.74058844
     atom    6 type  2   force =    -0.00000000    0.00000000   -0.74058844
     atom    7 type  2   force =     0.00000000   -0.00000000    0.10710044
     atom    8 type  2   force =    -0.00000000    0.00000000   -0.10710044
     atom    9 type  2   force =     0.00000000   -0.00000000   -0.69891191
     atom   10 type  2   force =    -0.00000000    0.00000000    0.69891191
     The core correction contribution to forces
     atom    1 type  1   force =     0.00000000    0.00000000   -0.00006321
     atom    2 type  1   force =     0.00000000   -0.00000000    0.00006321
     atom    3 type  2   force =     0.00000000    0.00000000    0.00000000
     atom    4 type  2   force =     0.00000000    0.00000000    0.00000000
     atom    5 type  2   force =     0.00000000    0.00000000    0.00000000
     atom    6 type  2   force =     0.00000000    0.00000000    0.00000000
     atom    7 type  2   force =     0.00000000    0.00000000    0.00000000
     atom    8 type  2   force =     0.00000000    0.00000000    0.00000000
     atom    9 type  2   force =     0.00000000    0.00000000    0.00000000
     atom   10 type  2   force =     0.00000000    0.00000000    0.00000000
     The Hubbard contrib.    to forces
     atom    1 type  1   force =     0.00000000    0.00000000    0.00000000
     atom    2 type  1   force =     0.00000000    0.00000000    0.00000000
     atom    3 type  2   force =     0.00000000    0.00000000    0.00000000
     atom    4 type  2   force =     0.00000000    0.00000000    0.00000000
     atom    5 type  2   force =     0.00000000    0.00000000    0.00000000
     atom    6 type  2   force =     0.00000000    0.00000000    0.00000000
     atom    7 type  2   force =     0.00000000    0.00000000    0.00000000
     atom    8 type  2   force =     0.00000000    0.00000000    0.00000000
     atom    9 type  2   force =     0.00000000    0.00000000    0.00000000
     atom   10 type  2   force =     0.00000000    0.00000000    0.00000000
     The SCF correction term to forces
     atom    1 type  1   force =     0.00000000   -0.00000000   -0.00000356
     atom    2 type  1   force =    -0.00000000   -0.00000000    0.00000356
     atom    3 type  2   force =     0.00000000    0.00000000    0.00000272
     atom    4 type  2   force =     0.00000000   -0.00000000   -0.00000272
     atom    5 type  2   force =     0.00000000    0.00000000    0.00000380
     atom    6 type  2   force =     0.00000000   -0.00000000   -0.00000380
     atom    7 type  2   force =     0.00000000   -0.00000000    0.00000115
     atom    8 type  2   force =     0.00000000   -0.00000000   -0.00000115
     atom    9 type  2   force =    -0.00000000   -0.00000000   -0.00000537
     atom   10 type  2   force =     0.00000000   -0.00000000    0.00000537

     Total force =     0.002019     Total SCF correction =     0.000011


     Computing stress (Cartesian axis) and pressure

          total   stress  (Ry/bohr**3)                   (kbar)     P=      498.76
   0.00335650   0.00000000   0.00000000          493.76        0.00        0.00
   0.00000000   0.00335650   0.00000000            0.00      493.76        0.00
   0.00000000   0.00000000   0.00345852            0.00        0.00      508.77


     Writing all to output data dir ./output/SiLi.save/

     init_run     :      1.36s CPU      1.59s WALL (       2 calls)
     electrons    :    219.58s CPU    231.00s WALL (      42 calls)
     update_pot   :     15.43s CPU     15.76s WALL (      40 calls)
     forces       :     10.48s CPU     10.80s WALL (      42 calls)
     stress       :     46.54s CPU     48.68s WALL (      42 calls)

     Called by init_run:
     wfcinit      :      0.34s CPU      0.35s WALL (       2 calls)
     potinit      :      0.35s CPU      0.43s WALL (       2 calls)
     hinit0       :      0.62s CPU      0.70s WALL (       2 calls)

     Called by electrons:
     c_bands      :    191.10s CPU    199.62s WALL (     448 calls)
     sum_band     :     24.38s CPU     25.41s WALL (     448 calls)
     v_of_rho     :      3.91s CPU      5.05s WALL (     489 calls)
     mix_rho      :      0.35s CPU      0.46s WALL (     448 calls)

     Called by c_bands:
     init_us_2    :      3.83s CPU      4.22s WALL (   19640 calls)
     init_us_2:cp :      3.80s CPU      4.20s WALL (   19640 calls)
     cegterg      :    180.80s CPU    185.91s WALL (    8960 calls)

     Called by *egterg:
     cdiaghg      :     15.34s CPU     15.81s WALL (   37932 calls)
     h_psi        :    143.55s CPU    147.66s WALL (   38792 calls)
     g_psi        :      0.66s CPU      0.67s WALL (   29792 calls)

     Called by h_psi:
     h_psi:calbec :     13.98s CPU     14.38s WALL (   38792 calls)
     vloc_psi     :    117.58s CPU    121.01s WALL (   38792 calls)
     add_vuspsi   :     11.48s CPU     11.73s WALL (   38792 calls)

     General routines
     calbec       :     17.42s CPU     17.89s WALL (   42992 calls)
     fft          :      2.61s CPU      4.01s WALL (    5939 calls)
     ffts         :      0.15s CPU      0.23s WALL (     448 calls)
     fftw         :    121.14s CPU    124.55s WALL ( 1175316 calls)

     Parallel routines

     PWSCF        :   4m54.17s CPU   5m 9.36s WALL


   This run was terminated on:   1:34:37  22Jan2025            

=------------------------------------------------------------------------------=
   JOB DONE.
=------------------------------------------------------------------------------=
