
     Program PWSCF v.7.2 starts on 29Dec2024 at 21:42:21 

     This program is part of the open-source Quantum ESPRESSO suite
     for quantum simulation of materials; please cite
         "P. Giannozzi et al., J. Phys.:Condens. Matter 21 395502 (2009);
         "P. Giannozzi et al., J. Phys.:Condens. Matter 29 465901 (2017);
         "P. Giannozzi et al., J. Chem. Phys. 152 154105 (2020);
          URL http://www.quantum-espresso.org", 
     in publications or presentations arising from this work. More details at
     http://www.quantum-espresso.org/quote

     Parallel version (MPI & OpenMP), running on       8 processor cores
     Number of MPI processes:                 8
     Threads/MPI process:                     1

     MPI processes distributed on     1 nodes
     489435 MiB available memory on the printing compute node when the environment starts

     Waiting for input...
     Reading input from standard input

     Current dimensions of program PWSCF are:
     Max number of different atomic species (ntypx) = 10
     Max number of k-points (npk) =  40000
     Max angular momentum in pseudopotentials (lmaxx) =  4

     R & G space division:  proc/nbgrp/npool/nimage =       8
     Subspace diagonalization in iterative solution of the eigenvalue problem:
     a serial algorithm will be used


     Parallelization info
     --------------------
     sticks:   dense  smooth     PW     G-vecs:    dense   smooth      PW
     Min         183     183     52                 4343     4343     678
     Max         184     184     53                 4344     4344     679
     Sum        1465    1465    421                34749    34749    5429

     Using Slab Decomposition



     bravais-lattice index     =            7
     lattice parameter (alat)  =       9.1539  a.u.
     unit-cell volume          =     360.7634 (a.u.)^3
     number of atoms/cell      =           10
     number of atomic types    =            2
     number of electrons       =        38.00
     number of Kohn-Sham states=           23
     kinetic-energy cutoff     =      80.0000  Ry
     charge density cutoff     =     320.0000  Ry
     scf convergence threshold =      1.0E-08
     mixing beta               =       0.7000
     number of iterations used =            8  plain     mixing
     energy convergence thresh.=      1.0E-04
     force convergence thresh. =      1.0E-03
     press convergence thresh. =      1.0E+00
     Exchange-correlation= PBE
                           (   1   4   3   4   0   0   0)
     nstep                     =           50


     celldm(1)=   9.153904  celldm(2)=   0.000000  celldm(3)=   0.940662
     celldm(4)=   0.000000  celldm(5)=   0.000000  celldm(6)=   0.000000

     crystal axes: (cart. coord. in units of alat)
               a(1) = (   0.500000  -0.500000   0.470331 )  
               a(2) = (   0.500000   0.500000   0.470331 )  
               a(3) = (  -0.500000  -0.500000   0.470331 )  

     reciprocal axes: (cart. coord. in units 2 pi/alat)
               b(1) = (  1.000000 -1.000000  0.000000 )  
               b(2) = (  0.000000  1.000000  1.063082 )  
               b(3) = ( -1.000000  0.000000  1.063082 )  


     PseudoPot. # 1 for Si read from file:
     ../pseudo/Si_ONCV_PBE_sr.upf
     MD5 check sum: e543d271109d17c80368dfa7c482276d
     Pseudo is Norm-conserving + core correction, Zval =  4.0
     Generated using ONCVPSP code by D. R. Hamann
     Using radial grid of 1510 points,  6 beta functions with: 
                l(1) =   0
                l(2) =   0
                l(3) =   1
                l(4) =   1
                l(5) =   2
                l(6) =   2

     PseudoPot. # 2 for Li read from file:
     ../pseudo/Li_ONCV_PBE_sr.upf
     MD5 check sum: 50ff420e78310ffa21704f3361e624a4
     Pseudo is Norm-conserving, Zval =  3.0
     Generated using ONCVPSP code by D. R. Hamann
     Using radial grid of 1944 points,  4 beta functions with: 
                l(1) =   0
                l(2) =   0
                l(3) =   1
                l(4) =   1

     atomic species   valence    mass     pseudopotential
        Si             4.00    28.08550     Si( 1.00)
        Li             3.00     6.94100     Li( 1.00)

     16 Sym. Ops., with inversion, found ( 8 have fractional translation)



   Cartesian axes

     site n.     atom                  positions (alat units)
         1           Si  tau(   1) = (   0.0000000   0.1866810   0.2917184  )
         2           Si  tau(   2) = (   0.8133190   0.5000000   0.5268838  )
         3           Si  tau(   3) = (   0.5000000   0.3133190   0.7620492  )
         4           Si  tau(   4) = (   0.6866810   0.0000000   0.0565530  )
         5           Si  tau(   5) = (  -0.0000000   0.3133190   0.8841085  )
         6           Si  tau(   6) = (   0.8133190   0.0000000   0.6489431  )
         7           Si  tau(   7) = (   0.5000000   0.1866810   0.4137777  )
         8           Si  tau(   8) = (   0.6866810   0.5000000   0.1786123  )
         9           Li  tau(   9) = (   0.0000000   0.0000000   0.0000000  )
        10           Li  tau(  10) = (   0.0000000   0.5000000   0.2351654  )

     number of k points=    18  Marzari-Vanderbilt smearing, width (Ry)=  0.0200
                       cart. coord. in units 2pi/alat
        k(    1) = (   0.0000000   0.0000000   0.0000000), wk =   0.0160000
        k(    2) = (  -0.2000000   0.0000000   0.2126163), wk =   0.1280000
        k(    3) = (  -0.4000000   0.0000000   0.4252327), wk =   0.1280000
        k(    4) = (  -0.2000000   0.2000000   0.4252327), wk =   0.1280000
        k(    5) = (  -0.4000000   0.2000000   0.6378490), wk =   0.2560000
        k(    6) = (   0.4000000   0.2000000  -0.2126163), wk =   0.2560000
        k(    7) = (   0.2000000   0.2000000   0.0000000), wk =   0.0640000
        k(    8) = (  -0.4000000   0.4000000   0.8504653), wk =   0.1280000
        k(    9) = (   0.4000000   0.4000000  -0.0000000), wk =   0.0640000
        k(   10) = (   0.0000000   0.0000000   0.4252327), wk =   0.0320000
        k(   11) = (  -0.2000000   0.0000000   0.6378490), wk =   0.1280000
        k(   12) = (   0.6000000   0.0000000  -0.2126163), wk =   0.1280000
        k(   13) = (   0.4000000   0.0000000   0.0000000), wk =   0.0640000
        k(   14) = (  -0.2000000   0.2000000   0.8504653), wk =   0.1280000
        k(   15) = (   0.6000000   0.2000000  -0.0000000), wk =   0.1280000
        k(   16) = (   0.4000000  -0.6000000  -0.6378490), wk =   0.1280000
        k(   17) = (   0.0000000   0.0000000   0.8504653), wk =   0.0320000
        k(   18) = (   0.8000000   0.0000000  -0.0000000), wk =   0.0640000

     Dense  grid:    34749 G-vectors     FFT dimensions: (  48,  48,  48)

     Estimated max dynamical RAM per process >      20.25 MB

     Estimated total dynamical RAM >     162.00 MB

     Initial potential from superposition of free atoms

     starting charge      37.9860, renormalised to      38.0000
     Starting wfcs are   36 randomized atomic wfcs

     total cpu time spent up to now is        1.3 secs

     Self-consistent Calculation

     iteration #  1     ecut=    80.00 Ry     beta= 0.70
     Davidson diagonalization with overlap
     ethr =  1.00E-02,  avg # of iterations =  6.8

     total cpu time spent up to now is        2.2 secs

     total energy              =     -89.63265303 Ry
     estimated scf accuracy    <       1.24744497 Ry

     iteration #  2     ecut=    80.00 Ry     beta= 0.70
     Davidson diagonalization with overlap
     ethr =  3.28E-03,  avg # of iterations =  2.9

     total cpu time spent up to now is        2.8 secs

     total energy              =     -89.97957297 Ry
     estimated scf accuracy    <       0.55309579 Ry

     iteration #  3     ecut=    80.00 Ry     beta= 0.70
     Davidson diagonalization with overlap
     ethr =  1.46E-03,  avg # of iterations =  2.1

     total cpu time spent up to now is        3.4 secs

     total energy              =     -90.09811285 Ry
     estimated scf accuracy    <       0.00364520 Ry

     iteration #  4     ecut=    80.00 Ry     beta= 0.70
     Davidson diagonalization with overlap
     c_bands:  1 eigenvalues not converged
     c_bands:  2 eigenvalues not converged
     ethr =  9.59E-06,  avg # of iterations = 11.7

     total cpu time spent up to now is        4.5 secs

     total energy              =     -90.10052127 Ry
     estimated scf accuracy    <       0.00121613 Ry

     iteration #  5     ecut=    80.00 Ry     beta= 0.70
     Davidson diagonalization with overlap
     ethr =  3.20E-06,  avg # of iterations =  2.8

     total cpu time spent up to now is        5.1 secs

     total energy              =     -90.10081621 Ry
     estimated scf accuracy    <       0.00002029 Ry

     iteration #  6     ecut=    80.00 Ry     beta= 0.70
     Davidson diagonalization with overlap
     ethr =  5.34E-08,  avg # of iterations =  4.7

     total cpu time spent up to now is        5.8 secs

     total energy              =     -90.10082436 Ry
     estimated scf accuracy    <       0.00000018 Ry

     iteration #  7     ecut=    80.00 Ry     beta= 0.70
     Davidson diagonalization with overlap
     ethr =  4.63E-10,  avg # of iterations =  5.4

     total cpu time spent up to now is        6.5 secs

     End of self-consistent calculation

          k = 0.0000 0.0000 0.0000 (  4305 PWs)   bands (ev):

   -26.1070 -25.9841   4.5795  13.0819  13.2771  13.2771  14.1706  14.4784
    14.6847  15.1614  15.1614  15.2651  15.2651  16.2594  19.6961  24.3536
    24.5529  24.5529  26.4875  31.1392  32.5608  32.5608  32.7521

          k =-0.2000 0.0000 0.2126 (  4345 PWs)   bands (ev):

   -26.0976 -25.9922   4.9410  11.0624  11.9811  12.4616  13.0597  13.8303
    14.8875  16.0109  16.7212  17.1032  17.8405  18.4081  19.4816  22.6514
    24.7789  25.1081  27.1829  29.0869  29.8629  30.5412  30.6017

          k =-0.4000 0.0000 0.4252 (  4350 PWs)   bands (ev):

   -26.0782 -26.0095   5.9234   8.5638  11.0963  11.8333  12.1149  13.8268
    15.5373  16.8997  18.4578  18.9981  20.1019  20.4195  21.2836  23.2085
    23.7845  24.4761  25.5546  25.7406  27.7064  28.1020  29.6925

          k =-0.2000 0.2000 0.4252 (  4359 PWs)   bands (ev):

   -26.0837 -26.0044   5.6479   9.6105  10.1124  11.4120  13.8327  13.9435
    15.5995  16.5074  17.2364  18.4164  19.2504  21.0449  21.0651  22.4645
    24.0758  25.1223  26.0584  26.3880  26.8763  29.6795  29.9661

          k =-0.4000 0.2000 0.6378 (  4357 PWs)   bands (ev):

   -26.0667 -26.0203   6.5785   8.0753   9.5288  11.1689  13.7579  14.5841
    15.3479  16.6887  18.2532  19.0911  20.8761  21.9456  22.1557  22.7735
    23.6639  23.9297  24.4623  25.3610  27.1168  28.3169  29.4791

          k = 0.4000 0.2000-0.2126 (  4358 PWs)   bands (ev):

   -26.0769 -26.0112   5.6622   9.3217  10.3154  11.5927  13.7778  14.3931
    15.5383  16.3872  16.8271  17.9808  19.5546  20.6104  21.5106  22.2478
    23.7274  24.8608  26.4946  27.0850  27.8698  28.4346  29.8841

          k = 0.2000 0.2000 0.0000 (  4355 PWs)   bands (ev):

   -26.0946 -25.9952   4.9479  10.7158  12.2549  12.3743  13.4687  14.5960
    14.7606  15.4542  16.5265  16.6910  17.1650  18.9764  20.0795  21.9602
    23.6661  27.0748  27.5440  29.2840  29.9416  30.2662  30.4638

          k =-0.4000 0.4000 0.8505 (  4371 PWs)   bands (ev):

   -26.0492 -26.0379   7.0525   7.2262   9.9138  11.2644  14.0952  14.6520
    15.7603  16.3204  17.4693  18.2922  20.9697  21.7538  22.3502  22.6374
    24.1699  24.2213  25.3238  26.1128  26.6594  27.7613  28.9884

          k = 0.4000 0.4000-0.0000 (  4356 PWs)   bands (ev):

   -26.0628 -26.0249   6.0748   8.0002  11.5239  11.5548  13.3917  13.9404
    15.7045  16.7112  17.0731  17.1214  20.3315  21.4798  21.6598  23.3199
    23.7634  25.0389  25.3128  25.6572  27.1434  29.6298  29.6603

          k = 0.0000 0.0000 0.4252 (  4336 PWs)   bands (ev):

   -26.0935 -25.9953   5.3183  10.6808  10.6808  11.5167  12.8429  15.1443
    15.1876  15.1876  16.7901  17.3550  19.4614  20.3050  20.3050  24.3041
    24.9500  24.9500  25.2993  28.7623  28.7623  28.7856  29.4585

          k =-0.2000 0.0000 0.6378 (  4371 PWs)   bands (ev):

   -26.0757 -26.0113   6.3627   8.6879   9.6777  11.4224  12.7937  14.3911
    14.4939  16.3395  18.6804  18.6814  20.5706  22.5469  23.1382  23.4997
    24.0373  24.5716  25.8294  27.0212  27.0594  27.0994  29.4718

          k = 0.6000 0.0000-0.2126 (  4357 PWs)   bands (ev):

   -26.0669 -26.0201   6.3132   8.8854   9.6027  11.5912  12.6144  13.9569
    14.5147  16.8038  18.6734  19.2070  20.2332  22.1443  22.4100  23.6282
    23.7704  24.3518  26.0384  26.8825  27.5735  28.8451  29.2360

          k = 0.4000 0.0000 0.0000 (  4359 PWs)   bands (ev):

   -26.0846 -26.0042   5.3078  10.4696  11.3068  11.6119  12.1373  15.0865
    15.3219  16.1539  16.6654  16.7848  19.4612  19.5779  20.8560  22.1198
    24.8849  25.1469  27.7673  28.0828  30.0931  30.1960  30.3427

          k =-0.2000 0.2000 0.8505 (  4367 PWs)   bands (ev):

   -26.0580 -26.0284   7.3230   7.9303   9.0433  11.9104  12.3575  12.6305
    15.3915  17.6743  18.6030  19.5431  21.1613  21.6647  22.2029  24.4651
    25.1939  25.2777  25.9107  26.3846  27.2047  27.3416  28.6162

          k = 0.6000 0.2000-0.0000 (  4375 PWs)   bands (ev):

   -26.0589 -26.0282   6.4058   8.2580  10.8443  10.9483  12.4565  13.7727
    15.6915  16.1729  18.2485  18.6694  20.1419  22.2972  22.9987  23.4107
    24.3935  24.8204  25.0218  26.7429  27.5705  28.2615  29.5039

          k = 0.4000-0.6000-0.6378 (  4366 PWs)   bands (ev):

   -26.0587 -26.0284   6.6454   8.2006   9.5868   9.8063  15.7101  15.8928
    16.5050  16.7041  17.2972  17.3908  20.4576  20.8981  22.0739  22.1977
    22.4234  23.6441  25.1608  26.2845  28.0164  28.9075  29.1156

          k = 0.0000 0.0000 0.8505 (  4372 PWs)   bands (ev):

   -26.0614 -26.0247   7.6156   8.7085   8.7085  10.5569  11.7071  12.2946
    17.7937  17.7937  18.0739  19.0328  20.7916  22.3042  22.3042  22.9521
    26.1167  26.1730  26.1730  28.1745  29.0674  29.2023  29.2024

          k = 0.8000 0.0000-0.0000 (  4357 PWs)   bands (ev):

   -26.0489 -26.0372   7.3951   8.6821   9.5082  10.1049  11.5611  12.1751
    17.5776  17.9992  18.7409  19.2687  21.0234  21.0792  21.9725  22.7662
    26.4936  26.6010  26.8946  27.9709  28.3642  28.6055  29.1607

     the Fermi energy is    26.3416 ev

!    total energy              =     -90.10082460 Ry
     estimated scf accuracy    <          2.6E-09 Ry
     smearing contrib. (-TS)   =      -0.00033541 Ry
     internal energy E=F+TS    =     -90.10048919 Ry

     The total energy is F=E-TS. E is the sum of the following terms:
     one-electron contribution =      60.41180678 Ry
     hartree contribution      =       9.77501075 Ry
     xc contribution           =     -39.36053348 Ry
     ewald contribution        =    -120.92677324 Ry

     convergence has been achieved in   7 iterations

     Forces acting on atoms (cartesian axes, Ry/au):

     atom    1 type  1   force =     0.00000000   -0.00269037    0.57940303
     atom    2 type  1   force =     0.00269037    0.00000000    0.57940303
     atom    3 type  1   force =     0.00000000    0.00269037    0.57940303
     atom    4 type  1   force =    -0.00269037    0.00000000    0.57940303
     atom    5 type  1   force =    -0.00000000    0.00269037   -0.57940303
     atom    6 type  1   force =     0.00269037    0.00000000   -0.57940303
     atom    7 type  1   force =     0.00000000   -0.00269037   -0.57940303
     atom    8 type  1   force =    -0.00269037    0.00000000   -0.57940303
     atom    9 type  2   force =     0.00000000    0.00000000    0.00000000
     atom   10 type  2   force =    -0.00000000   -0.00000000   -0.00000000
     The non-local contrib.  to forces
     atom    1 type  1   force =     0.00000000    0.04737227    0.45493495
     atom    2 type  1   force =    -0.04737227    0.00000000    0.45493495
     atom    3 type  1   force =    -0.00000000   -0.04737227    0.45493495
     atom    4 type  1   force =     0.04737227    0.00000000    0.45493495
     atom    5 type  1   force =     0.00000000   -0.04737227   -0.45493495
     atom    6 type  1   force =    -0.04737227    0.00000000   -0.45493495
     atom    7 type  1   force =     0.00000000    0.04737227   -0.45493495
     atom    8 type  1   force =     0.04737227    0.00000000   -0.45493495
     atom    9 type  2   force =     0.00000000   -0.00000000   -0.00000000
     atom   10 type  2   force =    -0.00000000    0.00000000    0.00000000
     The ionic contribution  to forces
     atom    1 type  1   force =    -0.00000000   -1.01798550    2.21721186
     atom    2 type  1   force =     1.01798550    0.00000000    2.21721186
     atom    3 type  1   force =    -0.00000000    1.01798550    2.21721186
     atom    4 type  1   force =    -1.01798550   -0.00000000    2.21721186
     atom    5 type  1   force =     0.00000000    1.01798550   -2.21721186
     atom    6 type  1   force =     1.01798550   -0.00000000   -2.21721186
     atom    7 type  1   force =    -0.00000000   -1.01798550   -2.21721186
     atom    8 type  1   force =    -1.01798550    0.00000000   -2.21721186
     atom    9 type  2   force =    -0.00000000    0.00000000    0.00000000
     atom   10 type  2   force =    -0.00000000   -0.00000000   -0.00000000
     The local contribution  to forces
     atom    1 type  1   force =     0.00000000    0.97072465   -2.06424861
     atom    2 type  1   force =    -0.97072465    0.00000000   -2.06424861
     atom    3 type  1   force =     0.00000000   -0.97072465   -2.06424861
     atom    4 type  1   force =     0.97072465   -0.00000000   -2.06424861
     atom    5 type  1   force =    -0.00000000   -0.97072465    2.06424861
     atom    6 type  1   force =    -0.97072465    0.00000000    2.06424861
     atom    7 type  1   force =     0.00000000    0.97072465    2.06424861
     atom    8 type  1   force =     0.97072465   -0.00000000    2.06424861
     atom    9 type  2   force =    -0.00000000   -0.00000000   -0.00000000
     atom   10 type  2   force =    -0.00000000   -0.00000000    0.00000000
     The core correction contribution to forces
     atom    1 type  1   force =     0.00000000   -0.00280060   -0.02850034
     atom    2 type  1   force =     0.00280060   -0.00000000   -0.02850034
     atom    3 type  1   force =     0.00000000    0.00280060   -0.02850034
     atom    4 type  1   force =    -0.00280060   -0.00000000   -0.02850034
     atom    5 type  1   force =    -0.00000000    0.00280060    0.02850034
     atom    6 type  1   force =     0.00280060    0.00000000    0.02850034
     atom    7 type  1   force =    -0.00000000   -0.00280060    0.02850034
     atom    8 type  1   force =    -0.00280060    0.00000000    0.02850034
     atom    9 type  2   force =     0.00000000    0.00000000    0.00000000
     atom   10 type  2   force =     0.00000000    0.00000000    0.00000000
     The Hubbard contrib.    to forces
     atom    1 type  1   force =     0.00000000    0.00000000    0.00000000
     atom    2 type  1   force =     0.00000000    0.00000000    0.00000000
     atom    3 type  1   force =     0.00000000    0.00000000    0.00000000
     atom    4 type  1   force =     0.00000000    0.00000000    0.00000000
     atom    5 type  1   force =     0.00000000    0.00000000    0.00000000
     atom    6 type  1   force =     0.00000000    0.00000000    0.00000000
     atom    7 type  1   force =     0.00000000    0.00000000    0.00000000
     atom    8 type  1   force =     0.00000000    0.00000000    0.00000000
     atom    9 type  2   force =     0.00000000    0.00000000    0.00000000
     atom   10 type  2   force =     0.00000000    0.00000000    0.00000000
     The SCF correction term to forces
     atom    1 type  1   force =     0.00000000   -0.00000119    0.00000517
     atom    2 type  1   force =     0.00000119   -0.00000000    0.00000517
     atom    3 type  1   force =     0.00000000    0.00000119    0.00000517
     atom    4 type  1   force =    -0.00000119    0.00000000    0.00000517
     atom    5 type  1   force =     0.00000000    0.00000119   -0.00000517
     atom    6 type  1   force =     0.00000119    0.00000000   -0.00000517
     atom    7 type  1   force =     0.00000000   -0.00000119   -0.00000517
     atom    8 type  1   force =    -0.00000119   -0.00000000   -0.00000517
     atom    9 type  2   force =    -0.00000000    0.00000000   -0.00000000
     atom   10 type  2   force =     0.00000000   -0.00000000   -0.00000000

     Total force =     1.638817     Total SCF correction =     0.000015


     Computing stress (Cartesian axis) and pressure

          total   stress  (Ry/bohr**3)                   (kbar)     P=     6158.29
   0.04081063  -0.00000000   0.00000000         6003.45       -0.00        0.00
  -0.00000000   0.04081063  -0.00000000           -0.00     6003.45       -0.00
   0.00000000   0.00000000   0.04396832            0.00        0.00     6467.96


     BFGS Geometry Optimization
     Energy error            =      0.0E+00 Ry
     Gradient error          =      5.8E-01 Ry/Bohr
     Cell gradient error     =      6.0E+03 kbar

     number of scf cycles    =   1
     number of bfgs steps    =   0

     enthalpy           new  =     -88.8746148113 Ry

     new trust radius        =       0.5000000000 bohr
ibrav =      7
 celldm(1) =     10.26498069
 celldm(3) =      0.94925525
Input lattice vectors:
     0.56068868    -0.56068868     0.53223667
     0.56068868     0.56068868     0.53223667
    -0.56068868    -0.56068868     0.53223667
New lattice vectors in INITIAL alat:
     0.56068868    -0.56068868     0.53223667
     0.56068868     0.56068868     0.53223667
    -0.56068868    -0.56068868     0.53223667
New lattice vectors in NEW alat (for information only):
     0.50000000    -0.50000000     0.47462763
     0.50000000     0.50000000     0.47462763
    -0.50000000    -0.50000000     0.47462763
Discrepancy in bohr =     0.000000    0.000000    0.000000
     new conv_thr            =       0.0000000100 Ry

     new unit-cell volume =    513.36638 a.u.^3 (    76.07305 Ang^3 )
     density =      5.20747 g/cm^3

CELL_PARAMETERS (alat=  9.15390403)
   0.560688678  -0.560688678   0.532236671
   0.560688678   0.560688678   0.532236671
  -0.560688678  -0.560688678   0.532236671

ATOMIC_POSITIONS (crystal)
Si           -0.1866428587        0.5054957124        0.3188528537
Si            0.3133571413        1.0688528537       -0.2445042876
Si            0.1866428587        1.1322099950        0.3188528537
Si            0.6866428587        0.0688528537       -0.6177900050
Si           -0.3133571413        1.2445042876        0.9311471463
Si            0.8133571413        0.6811471463       -0.1322099950
Si            0.3133571413        0.6177900050       -0.0688528537
Si            0.1866428587        0.6811471463       -0.5054957124
Li           -0.0000000000        0.0000000000        0.0000000000
Li           -0.5000000000        0.7500000000        0.2500000000



     Writing config-only to output data dir ./output/SiLi.save/
     NEW-OLD atomic charge density approx. for the potential
     extrapolated charge   49.29169, renormalised to   38.00000

     total cpu time spent up to now is        8.9 secs

     Self-consistent Calculation

     iteration #  1     ecut=    80.00 Ry     beta= 0.70
     Davidson diagonalization with overlap
     c_bands:  1 eigenvalues not converged
     c_bands:  1 eigenvalues not converged
     c_bands:  2 eigenvalues not converged
     c_bands:  1 eigenvalues not converged
     c_bands:  1 eigenvalues not converged
     ethr =  1.00E-06,  avg # of iterations = 18.4

     total cpu time spent up to now is       11.3 secs

     total energy              =     -92.47837934 Ry
     estimated scf accuracy    <       1.19243986 Ry

     iteration #  2     ecut=    80.00 Ry     beta= 0.70
     Davidson diagonalization with overlap
     ethr =  3.14E-03,  avg # of iterations =  4.7

     total cpu time spent up to now is       12.1 secs

     total energy              =     -93.89473723 Ry
     estimated scf accuracy    <       3.89572892 Ry

     iteration #  3     ecut=    80.00 Ry     beta= 0.70
     Davidson diagonalization with overlap
     ethr =  3.14E-03,  avg # of iterations =  2.1

     total cpu time spent up to now is       12.7 secs

     total energy              =     -94.10597445 Ry
     estimated scf accuracy    <       0.62373905 Ry

     iteration #  4     ecut=    80.00 Ry     beta= 0.70
     Davidson diagonalization with overlap
     ethr =  1.64E-03,  avg # of iterations =  1.2

     total cpu time spent up to now is       13.2 secs

     total energy              =     -94.00706660 Ry
     estimated scf accuracy    <       0.31788544 Ry

     iteration #  5     ecut=    80.00 Ry     beta= 0.70
     Davidson diagonalization with overlap
     ethr =  8.37E-04,  avg # of iterations =  2.6

     total cpu time spent up to now is       13.7 secs

     total energy              =     -94.03626228 Ry
     estimated scf accuracy    <       0.03208703 Ry

     iteration #  6     ecut=    80.00 Ry     beta= 0.70
     Davidson diagonalization with overlap
     ethr =  8.44E-05,  avg # of iterations =  5.2

     total cpu time spent up to now is       14.5 secs

     total energy              =     -94.05122176 Ry
     estimated scf accuracy    <       0.00067997 Ry

     iteration #  7     ecut=    80.00 Ry     beta= 0.70
     Davidson diagonalization with overlap
     ethr =  1.79E-06,  avg # of iterations =  6.8

     total cpu time spent up to now is       15.3 secs

     total energy              =     -94.05187796 Ry
     estimated scf accuracy    <       0.00010798 Ry

     iteration #  8     ecut=    80.00 Ry     beta= 0.70
     Davidson diagonalization with overlap
     ethr =  2.84E-07,  avg # of iterations =  5.9

     total cpu time spent up to now is       16.1 secs

     total energy              =     -94.05131453 Ry
     estimated scf accuracy    <       0.00299023 Ry

     iteration #  9     ecut=    80.00 Ry     beta= 0.70
     Davidson diagonalization with overlap
     ethr =  2.84E-07,  avg # of iterations =  4.6

     total cpu time spent up to now is       16.9 secs

     total energy              =     -94.05155451 Ry
     estimated scf accuracy    <       0.00021991 Ry

     iteration # 10     ecut=    80.00 Ry     beta= 0.70
     Davidson diagonalization with overlap
     ethr =  2.84E-07,  avg # of iterations =  2.2

     total cpu time spent up to now is       17.4 secs

     total energy              =     -94.05157318 Ry
     estimated scf accuracy    <       0.00001781 Ry

     iteration # 11     ecut=    80.00 Ry     beta= 0.70
     Davidson diagonalization with overlap
     ethr =  4.69E-08,  avg # of iterations =  3.9

     total cpu time spent up to now is       18.1 secs

     total energy              =     -94.05157991 Ry
     estimated scf accuracy    <       0.00000043 Ry

     iteration # 12     ecut=    80.00 Ry     beta= 0.70
     Davidson diagonalization with overlap
     ethr =  1.13E-09,  avg # of iterations =  3.8

     total cpu time spent up to now is       18.7 secs

     total energy              =     -94.05157987 Ry
     estimated scf accuracy    <       0.00000029 Ry

     iteration # 13     ecut=    80.00 Ry     beta= 0.70
     Davidson diagonalization with overlap
     ethr =  7.56E-10,  avg # of iterations =  3.1

     total cpu time spent up to now is       19.3 secs

     End of self-consistent calculation

          k = 0.0000 0.0000 0.0000 (  4305 PWs)   bands (ev):

   -29.9361 -29.8946   0.3481   7.6409   7.8994   7.8994   8.1546   8.4680
     9.4873   9.8338   9.8338   9.8534   9.8534   9.9170  12.3117  17.1970
    17.1970  17.4320  18.9859  21.5904  21.9509  24.5004  24.5004

          k =-0.1784-0.0000 0.1879 (  4345 PWs)   bands (ev):

   -29.9334 -29.8975   0.6851   5.9054   6.8372   7.0311   7.9122   8.2077
     9.1088  10.0301  10.8325  11.1970  12.0178  12.1087  13.0067  15.3715
    17.4069  17.5015  19.3778  21.1444  21.4239  21.9391  22.5779

          k =-0.3567-0.0000 0.3758 (  4350 PWs)   bands (ev):

   -29.9270 -29.9036   1.6424   3.6647   6.1759   6.3340   7.4167   7.7028
     9.9022  10.8870  12.2081  12.5803  13.4703  14.0331  15.0576  15.7461
    17.2275  17.2749  17.7932  18.6109  19.4309  19.7192  21.4736

          k =-0.1784 0.1784 0.3758 (  4359 PWs)   bands (ev):

   -29.9290 -29.9018   1.3533   4.7375   5.0572   6.2817   8.1602   8.5116
     9.8858  10.2388  11.2806  12.2576  13.1678  14.5725  14.6285  15.1723
    16.9092  17.7789  18.1075  18.4040  19.4850  21.6918  21.7934

          k =-0.3567 0.1784 0.5637 (  4357 PWs)   bands (ev):

   -29.9233 -29.9073   2.3127   3.2528   4.5619   6.0423   8.0763   9.1049
     9.6899  10.5584  12.2175  13.0229  13.8053  15.2491  15.4100  15.5276
    16.5668  16.8123  17.3831  18.2064  19.2372  20.4097  21.2425

          k = 0.3567 0.1784-0.1879 (  4358 PWs)   bands (ev):

   -29.9266 -29.9042   1.3439   4.5408   5.2068   6.3927   8.1400   8.8638
     9.8243  10.5343  10.9336  11.8421  13.1771  13.7425  14.9270  15.4220
    16.3658  17.4444  18.6406  19.5233  19.8303  20.6822  21.5675

          k = 0.1784 0.1784 0.0000 (  4355 PWs)   bands (ev):

   -29.9325 -29.8985   0.6816   5.6953   6.9928   7.0794   7.9531   8.8300
     8.9260   9.7929  10.9784  11.0069  11.2665  12.8086  12.9533  14.8595
    16.0205  19.3406  20.4146  21.5013  21.6233  21.8269  22.0976

          k =-0.3567 0.3567 0.7515 (  4371 PWs)   bands (ev):

   -29.9173 -29.9134   2.6225   2.7004   4.8014   6.1146   8.5060   8.9712
     9.8346  10.5021  11.6841  12.3394  13.9848  14.7960  15.3786  15.4753
    16.9331  17.0574  18.2781  18.5352  19.5736  20.2711  20.3956

          k = 0.3567 0.3567 0.0000 (  4356 PWs)   bands (ev):

   -29.9218 -29.9088   1.6870   3.3692   6.3940   6.4137   7.8222   8.1227
     9.9742  10.6327  11.3142  11.4022  13.9412  14.6054  14.6845  15.8628
    16.8226  17.4843  17.9594  18.0785  19.5776  21.3988  22.2482

          k = 0.0000-0.0000 0.3758 (  4336 PWs)   bands (ev):

   -29.9322 -29.8984   1.0379   5.9179   6.0575   6.0575   6.6268   9.5060
     9.5060   9.9470  10.2959  11.2982  13.0934  14.1741  14.1741  16.4241
    17.7934  17.7934  18.0281  20.3631  20.7763  20.8187  20.8187

          k =-0.1784-0.0000 0.5637 (  4371 PWs)   bands (ev):

   -29.9265 -29.9042   2.0228   3.9118   5.2566   5.6735   7.0021   8.7707
     9.1988  10.1840  12.0605  12.9013  14.3585  15.6448  16.5340  16.8298
    16.9750  17.1020  18.3622  18.8903  19.5748  20.0774  20.9789

          k = 0.5351 0.0000-0.1879 (  4357 PWs)   bands (ev):

   -29.9233 -29.9072   1.9731   3.9970   5.2025   5.6958   7.2479   8.3457
     9.3148  10.2970  12.3304  13.2179  13.8634  15.0228  16.2704  16.3223
    16.7629  17.3220  18.8561  19.4178  19.9713  20.1337  20.3738

          k = 0.3567 0.0000 0.0000 (  4359 PWs)   bands (ev):

   -29.9293 -29.9016   1.0128   5.9040   5.9813   6.3601   6.4606   9.3807
     9.8478  10.3850  10.5823  10.9251  12.8264  13.6221  13.9431  14.8072
    17.7241  17.7925  20.5580  20.7594  21.1016  21.3902  21.8081

          k =-0.1784 0.1784 0.7515 (  4367 PWs)   bands (ev):

   -29.9205 -29.9101   2.9623   3.3768   4.1278   6.5100   6.8451   7.0757
     9.5877  11.7549  12.2641  13.0227  14.9007  15.3243  15.5644  17.3459
    17.7378  17.7727  18.6101  19.0928  19.3934  19.7042  20.7567

          k = 0.5351 0.1784 0.0000 (  4375 PWs)   bands (ev):

   -29.9207 -29.9100   2.0095   3.6718   5.7608   5.7795   6.9166   8.2188
     9.8483  10.1178  12.4129  12.4722  13.6357  15.5761  16.1138  16.1152
    17.3003  17.6149  17.7260  19.3523  19.8276  20.5539  21.4122

          k = 0.3567-0.5351-0.5637 (  4366 PWs)   bands (ev):

   -29.9205 -29.9101   2.2850   3.6495   4.4573   4.6953   9.9996  10.3900
    10.5812  10.9724  11.4216  11.4835  13.4318  13.7029  14.7414  15.0488
    15.5247  16.5313  18.2204  18.9286  20.0234  21.1418  21.4620

          k = 0.0000-0.0000 0.7515 (  4372 PWs)   bands (ev):

   -29.9216 -29.9089   3.0781   4.4775   4.4775   4.9289   5.4665   6.8945
    11.7389  11.7389  12.0283  12.7236  14.3100  15.6011  15.6011  16.7611
    18.4955  19.0609  19.0609  20.0046  21.0950  21.2379  21.2379

          k = 0.7134 0.0000 0.0000 (  4357 PWs)   bands (ev):

   -29.9171 -29.9132   2.9719   4.4586   4.5465   5.1586   5.6343   6.4625
    11.7005  11.8775  12.4140  12.7915  14.4799  14.5435  15.8462  16.2792
    18.9567  19.1945  19.3140  19.4975  20.2623  20.8034  21.6864

     the Fermi energy is    18.7750 ev

!    total energy              =     -94.05157995 Ry
     estimated scf accuracy    <          8.4E-09 Ry
     smearing contrib. (-TS)   =       0.00039049 Ry
     internal energy E=F+TS    =     -94.05197043 Ry

     The total energy is F=E-TS. E is the sum of the following terms:
     one-electron contribution =      41.64576977 Ry
     hartree contribution      =       8.92722465 Ry
     xc contribution           =     -36.03849852 Ry
     ewald contribution        =    -108.58646634 Ry

     convergence has been achieved in  13 iterations

     Forces acting on atoms (cartesian axes, Ry/au):

     atom    1 type  1   force =     0.00000000   -0.01806051    0.18351195
     atom    2 type  1   force =     0.01806051   -0.00000000    0.18351195
     atom    3 type  1   force =    -0.00000000    0.01806051    0.18351195
     atom    4 type  1   force =    -0.01806051   -0.00000000    0.18351195
     atom    5 type  1   force =     0.00000000    0.01806051   -0.18351195
     atom    6 type  1   force =     0.01806051    0.00000000   -0.18351195
     atom    7 type  1   force =     0.00000000   -0.01806051   -0.18351195
     atom    8 type  1   force =    -0.01806051    0.00000000   -0.18351195
     atom    9 type  2   force =     0.00000000    0.00000000   -0.00000000
     atom   10 type  2   force =     0.00000000   -0.00000000   -0.00000000
     The non-local contrib.  to forces
     atom    1 type  1   force =     0.00000000    0.02009730    0.16955155
     atom    2 type  1   force =    -0.02009730   -0.00000000    0.16955155
     atom    3 type  1   force =     0.00000000   -0.02009730    0.16955155
     atom    4 type  1   force =     0.02009730    0.00000000    0.16955155
     atom    5 type  1   force =     0.00000000   -0.02009730   -0.16955155
     atom    6 type  1   force =    -0.02009730    0.00000000   -0.16955155
     atom    7 type  1   force =     0.00000000    0.02009730   -0.16955155
     atom    8 type  1   force =     0.02009730   -0.00000000   -0.16955155
     atom    9 type  2   force =     0.00000000   -0.00000000   -0.00000000
     atom   10 type  2   force =    -0.00000000    0.00000000    0.00000000
     The ionic contribution  to forces
     atom    1 type  1   force =     0.00000000   -0.63280465    1.39423357
     atom    2 type  1   force =     0.63280465    0.00000000    1.39423357
     atom    3 type  1   force =    -0.00000000    0.63280465    1.39423357
     atom    4 type  1   force =    -0.63280465    0.00000000    1.39423357
     atom    5 type  1   force =    -0.00000000    0.63280465   -1.39423357
     atom    6 type  1   force =     0.63280465   -0.00000000   -1.39423357
     atom    7 type  1   force =    -0.00000000   -0.63280465   -1.39423357
     atom    8 type  1   force =    -0.63280465   -0.00000000   -1.39423357
     atom    9 type  2   force =    -0.00000000    0.00000000   -0.00000000
     atom   10 type  2   force =     0.00000000   -0.00000000    0.00000000
     The local contribution  to forces
     atom    1 type  1   force =    -0.00000000    0.59768314   -1.36762317
     atom    2 type  1   force =    -0.59768314    0.00000000   -1.36762317
     atom    3 type  1   force =    -0.00000000   -0.59768314   -1.36762317
     atom    4 type  1   force =     0.59768314    0.00000000   -1.36762317
     atom    5 type  1   force =     0.00000000   -0.59768314    1.36762317
     atom    6 type  1   force =    -0.59768314   -0.00000000    1.36762317
     atom    7 type  1   force =     0.00000000    0.59768314    1.36762317
     atom    8 type  1   force =     0.59768314    0.00000000    1.36762317
     atom    9 type  2   force =    -0.00000000   -0.00000000   -0.00000000
     atom   10 type  2   force =    -0.00000000    0.00000000    0.00000000
     The core correction contribution to forces
     atom    1 type  1   force =    -0.00000000   -0.00300295   -0.01269347
     atom    2 type  1   force =     0.00300295   -0.00000000   -0.01269347
     atom    3 type  1   force =     0.00000000    0.00300295   -0.01269347
     atom    4 type  1   force =    -0.00300295    0.00000000   -0.01269347
     atom    5 type  1   force =    -0.00000000    0.00300295    0.01269347
     atom    6 type  1   force =     0.00300295   -0.00000000    0.01269347
     atom    7 type  1   force =    -0.00000000   -0.00300295    0.01269347
     atom    8 type  1   force =    -0.00300295    0.00000000    0.01269347
     atom    9 type  2   force =     0.00000000    0.00000000    0.00000000
     atom   10 type  2   force =     0.00000000    0.00000000    0.00000000
     The Hubbard contrib.    to forces
     atom    1 type  1   force =     0.00000000    0.00000000    0.00000000
     atom    2 type  1   force =     0.00000000    0.00000000    0.00000000
     atom    3 type  1   force =     0.00000000    0.00000000    0.00000000
     atom    4 type  1   force =     0.00000000    0.00000000    0.00000000
     atom    5 type  1   force =     0.00000000    0.00000000    0.00000000
     atom    6 type  1   force =     0.00000000    0.00000000    0.00000000
     atom    7 type  1   force =     0.00000000    0.00000000    0.00000000
     atom    8 type  1   force =     0.00000000    0.00000000    0.00000000
     atom    9 type  2   force =     0.00000000    0.00000000    0.00000000
     atom   10 type  2   force =     0.00000000    0.00000000    0.00000000
     The SCF correction term to forces
     atom    1 type  1   force =     0.00000000   -0.00003334    0.00004348
     atom    2 type  1   force =     0.00003334   -0.00000000    0.00004348
     atom    3 type  1   force =     0.00000000    0.00003334    0.00004348
     atom    4 type  1   force =    -0.00003334   -0.00000000    0.00004348
     atom    5 type  1   force =    -0.00000000    0.00003334   -0.00004348
     atom    6 type  1   force =     0.00003334    0.00000000   -0.00004348
     atom    7 type  1   force =    -0.00000000   -0.00003334   -0.00004348
     atom    8 type  1   force =    -0.00003334    0.00000000   -0.00004348
     atom    9 type  2   force =     0.00000000   -0.00000000    0.00000000
     atom   10 type  2   force =    -0.00000000   -0.00000000   -0.00000000

     Total force =     0.521558     Total SCF correction =     0.000155


     Computing stress (Cartesian axis) and pressure

          total   stress  (Ry/bohr**3)                   (kbar)     P=     1944.56
   0.01392886   0.00000000   0.00000000         2049.01        0.00        0.00
   0.00000000   0.01392886  -0.00000000            0.00     2049.01       -0.00
   0.00000000  -0.00000000   0.01179883            0.00       -0.00     1735.67

     Energy error            =      3.4E+00 Ry
     Gradient error          =      1.8E-01 Ry/Bohr
     Cell gradient error     =      1.5E+03 kbar

     number of scf cycles    =   2
     number of bfgs steps    =   1

     enthalpy           old  =     -88.8746148113 Ry
     enthalpy           new  =     -92.3066830868 Ry

     CASE: enthalpy          _new < enthalpy          _old

     new trust radius        =       0.4401265282 bohr
ibrav =      7
 celldm(1) =     11.26197339
 celldm(3) =      0.84453055
Input lattice vectors:
     0.61514592    -0.61514592     0.51950952
     0.61514592     0.61514592     0.51950952
    -0.61514592    -0.61514592     0.51950952
New lattice vectors in INITIAL alat:
     0.61514592    -0.61514592     0.51950952
     0.61514592     0.61514592     0.51950952
    -0.61514592    -0.61514592     0.51950952
New lattice vectors in NEW alat (for information only):
     0.50000000    -0.50000000     0.42226527
     0.50000000     0.50000000     0.42226527
    -0.50000000    -0.50000000     0.42226527
Discrepancy in bohr =     0.000000    0.000000    0.000000
     new conv_thr            =       0.0000000100 Ry

     new unit-cell volume =    603.15490 a.u.^3 (    89.37833 Ang^3 )
     density =      4.43226 g/cm^3

CELL_PARAMETERS (alat=  9.15390403)
   0.615145918  -0.615145918   0.519509519
   0.615145918   0.615145918   0.519509519
  -0.615145918  -0.615145918   0.519509519

ATOMIC_POSITIONS (crystal)
Si           -0.1834926057        0.5103052438        0.3268126381
Si            0.3165073943        1.0768126381       -0.2396947562
Si            0.1834926057        1.1433200323        0.3268126381
Si            0.6834926057        0.0768126381       -0.6066799677
Si           -0.3165073943        1.2396947562        0.9231873619
Si            0.8165073943        0.6731873619       -0.1433200323
Si            0.3165073943        0.6066799677       -0.0768126381
Si            0.1834926057        0.6731873619       -0.5103052438
Li           -0.0000000000       -0.0000000000       -0.0000000000
Li           -0.5000000000        0.7500000000        0.2500000000



     Writing config-only to output data dir ./output/SiLi.save/
     NEW-OLD atomic charge density approx. for the potential
     extrapolated charge   43.65477, renormalised to   38.00000

     total cpu time spent up to now is       21.6 secs

     Self-consistent Calculation

     iteration #  1     ecut=    80.00 Ry     beta= 0.70
     Davidson diagonalization with overlap
     c_bands:  1 eigenvalues not converged
     c_bands:  2 eigenvalues not converged
     c_bands:  1 eigenvalues not converged
     c_bands:  2 eigenvalues not converged
     ethr =  1.00E-06,  avg # of iterations = 17.6

     total cpu time spent up to now is       23.9 secs

     total energy              =     -94.69651616 Ry
     estimated scf accuracy    <       0.30533531 Ry

     iteration #  2     ecut=    80.00 Ry     beta= 0.70
     Davidson diagonalization with overlap
     ethr =  8.04E-04,  avg # of iterations =  4.2

     total cpu time spent up to now is       24.7 secs

     total energy              =     -94.99190157 Ry
     estimated scf accuracy    <       0.79353886 Ry

     iteration #  3     ecut=    80.00 Ry     beta= 0.70
     Davidson diagonalization with overlap
     ethr =  8.04E-04,  avg # of iterations =  2.1

     total cpu time spent up to now is       25.2 secs

     total energy              =     -95.04245865 Ry
     estimated scf accuracy    <       0.09690297 Ry

     iteration #  4     ecut=    80.00 Ry     beta= 0.70
     Davidson diagonalization with overlap
     ethr =  2.55E-04,  avg # of iterations =  2.1

     total cpu time spent up to now is       25.7 secs

     total energy              =     -95.03440628 Ry
     estimated scf accuracy    <       0.03314987 Ry

     iteration #  5     ecut=    80.00 Ry     beta= 0.70
     Davidson diagonalization with overlap
     ethr =  8.72E-05,  avg # of iterations =  3.6

     total cpu time spent up to now is       26.3 secs

     total energy              =     -95.04090625 Ry
     estimated scf accuracy    <       0.00088913 Ry

     iteration #  6     ecut=    80.00 Ry     beta= 0.70
     Davidson diagonalization with overlap
     ethr =  2.34E-06,  avg # of iterations =  6.4

     total cpu time spent up to now is       27.2 secs

     total energy              =     -95.04188124 Ry
     estimated scf accuracy    <       0.00042668 Ry

     iteration #  7     ecut=    80.00 Ry     beta= 0.70
     Davidson diagonalization with overlap
     ethr =  1.12E-06,  avg # of iterations =  2.0

     total cpu time spent up to now is       27.7 secs

     total energy              =     -95.04196961 Ry
     estimated scf accuracy    <       0.00000181 Ry

     iteration #  8     ecut=    80.00 Ry     beta= 0.70
     Davidson diagonalization with overlap
     ethr =  4.76E-09,  avg # of iterations =  5.5

     total cpu time spent up to now is       28.6 secs

     total energy              =     -95.04197234 Ry
     estimated scf accuracy    <       0.00000135 Ry

     iteration #  9     ecut=    80.00 Ry     beta= 0.70
     Davidson diagonalization with overlap
     ethr =  3.56E-09,  avg # of iterations =  1.1

     total cpu time spent up to now is       29.0 secs

     total energy              =     -95.04197210 Ry
     estimated scf accuracy    <       0.00000044 Ry

     iteration # 10     ecut=    80.00 Ry     beta= 0.70
     Davidson diagonalization with overlap
     ethr =  1.16E-09,  avg # of iterations =  3.6

     total cpu time spent up to now is       29.6 secs

     total energy              =     -95.04197227 Ry
     estimated scf accuracy    <       0.00000021 Ry

     iteration # 11     ecut=    80.00 Ry     beta= 0.70
     Davidson diagonalization with overlap
     ethr =  5.48E-10,  avg # of iterations =  2.1

     total cpu time spent up to now is       30.1 secs

     End of self-consistent calculation

          k = 0.0000 0.0000 0.0000 (  4305 PWs)   bands (ev):

   -31.5292 -31.5125  -1.1901   4.9250   5.5296   5.5296   6.1034   6.7322
     7.4725   7.5351   7.9410   7.9410   8.4766   8.4766  10.1908  13.1079
    13.1079  13.6895  15.6435  20.1676  20.4461  20.5670  20.5670

          k =-0.1626-0.0000 0.1925 (  4345 PWs)   bands (ev):

   -31.5298 -31.5145  -0.8648   3.8131   4.6709   5.0038   5.7439   6.4324
     7.0990   7.5302   8.7702   8.8179  10.1003  10.6094  11.0437  12.0900
    13.4840  14.4496  16.5429  17.4092  17.9086  18.3873  18.7378

          k =-0.3251-0.0000 0.3850 (  4350 PWs)   bands (ev):

   -31.5267 -31.5173   0.0517   1.9930   3.7483   4.5571   5.3635   5.5092
     7.7038   9.1297   9.6323  10.2274  11.3206  11.4949  13.0648  13.3863
    14.1524  14.2906  15.3460  15.5799  15.9267  16.5939  17.8114

          k =-0.1626 0.1626 0.3850 (  4359 PWs)   bands (ev):

   -31.5283 -31.5170  -0.1926   2.7267   3.3312   4.2467   5.9231   6.3589
     7.1016   7.7967  10.1150  10.6236  10.7796  11.6726  12.0595  13.2820
    14.2510  14.5913  15.0874  16.0460  16.5965  17.6752  18.1866

          k =-0.3251 0.1626 0.5775 (  4357 PWs)   bands (ev):

   -31.5260 -31.5189   0.6430   1.5584   2.6997   4.1261   5.7274   6.7435
     7.5945   9.0397   9.6131  10.6432  11.6077  12.0066  12.6637  13.1602
    13.6153  14.1141  15.1197  15.5659  16.1196  17.7685  18.2368

          k = 0.3251 0.1626-0.1925 (  4358 PWs)   bands (ev):

   -31.5275 -31.5175  -0.3015   2.4025   3.6831   4.6456   5.8116   7.2534
     7.6181   8.1600   8.8766   9.3982  10.5349  11.2790  11.7763  12.7165
    13.3629  14.4244  15.4724  16.9799  17.5384  17.7625  18.1123

          k = 0.1626 0.1626 0.0000 (  4355 PWs)   bands (ev):

   -31.5298 -31.5153  -0.9040   3.2824   5.5255   5.6440   5.6870   6.3375
     6.8583   7.8455   9.1001   9.2312   9.3180   9.8279  10.7393  11.0433
    12.3788  15.8857  16.8053  18.2882  18.5860  18.7321  19.0158

          k =-0.3251 0.3251 0.7700 (  4371 PWs)   bands (ev):

   -31.5244 -31.5223   0.7842   0.8436   3.3756   4.4957   6.4688   6.7352
     7.5437   8.6852   9.1206   9.8085  10.7651  11.9834  12.1184  12.5504
    14.4468  15.0618  15.4469  15.7712  16.1988  16.9243  17.5927

          k = 0.3251 0.3251-0.0000 (  4356 PWs)   bands (ev):

   -31.5253 -31.5195  -0.0464   1.3716   5.1750   5.1757   5.8213   6.1971
     7.0371   8.3583   8.4716   9.0549  11.5017  12.0166  12.0808  12.5930
    13.2104  14.3486  14.9570  15.2579  16.4546  18.0852  19.8952

          k = 0.0000-0.0000 0.3850 (  4336 PWs)   bands (ev):

   -31.5292 -31.5138  -0.4585   3.4440   4.3354   4.4734   4.4734   6.7373
     6.7373   7.3267   8.4025  10.4033  11.3471  12.8198  12.8198  13.8434
    14.1588  14.1588  15.4664  16.0327  16.9167  17.4807  17.4807

          k =-0.1626-0.0000 0.5775 (  4371 PWs)   bands (ev):

   -31.5275 -31.5177   0.5098   2.0563   3.2842   3.5876   4.7243   6.8616
     6.9986   8.6110   9.2355  10.5242  12.6152  12.9413  14.1367  14.4062
    14.7012  15.0369  15.6567  15.8314  16.2803  16.4651  17.1260

          k = 0.4877-0.0000-0.1925 (  4357 PWs)   bands (ev):

   -31.5261 -31.5187   0.2442   2.3111   3.3973   3.4169   5.6749   6.2762
     7.4875   7.9162  10.0787  11.1756  11.6160  11.9399  12.8826  13.0606
    13.7466  14.9333  14.9732  16.5894  16.7684  17.2315  17.6580

          k = 0.3251-0.0000 0.0000 (  4359 PWs)   bands (ev):

   -31.5286 -31.5166  -0.6189   3.2919   3.9221   5.0912   5.1163   6.9448
     7.8502   8.2690   8.6953   9.0969  10.0256  10.5930  11.5265  11.7368
    13.6674  14.2539  17.5326  17.5672  17.7586  18.2563  18.8525

          k =-0.1626 0.1626 0.7700 (  4367 PWs)   bands (ev):

   -31.5251 -31.5205   1.1622   1.4294   2.6986   4.1740   4.5112   6.0175
     7.5458   9.3166   9.7481  10.9082  12.3868  12.6914  13.0675  13.9436
    14.3089  14.8196  15.2300  16.2859  16.8067  17.0702  17.7951

          k = 0.4877 0.1626-0.0000 (  4375 PWs)   bands (ev):

   -31.5258 -31.5207   0.2346   1.6397   4.2998   4.5758   4.7816   5.7431
     7.9174   8.0916   9.8437  10.3481  11.0854  12.3438  13.0021  13.0559
    13.7735  14.4239  14.8846  16.1982  16.5966  17.2424  18.0274

          k = 0.3251-0.4877-0.5775 (  4366 PWs)   bands (ev):

   -31.5255 -31.5207   0.5816   1.7053   2.8300   3.0555   7.4428   7.9532
     8.2269   8.4595   9.2645  10.1514  10.5511  10.8318  11.8236  12.0496
    13.6723  14.8195  15.0497  16.4151  17.4375  17.6774  17.7227

          k = 0.0000-0.0000 0.7700 (  4372 PWs)   bands (ev):

   -31.5245 -31.5199   1.4782   2.3638   2.7961   2.7961   3.3021   5.9777
     9.1429   9.1429   9.2436  11.0062  11.9249  13.2528  13.2528  15.3340
    16.2150  16.2150  16.2968  16.4910  16.6621  16.6621  17.2436

          k = 0.6503-0.0000-0.0000 (  4357 PWs)   bands (ev):

   -31.5233 -31.5214   1.0703   2.2291   2.7312   3.7065   4.2733   4.4349
     9.3451   9.8305   9.8475  10.8887  11.6726  11.9132  13.8189  14.0005
    15.0774  15.3093  15.5602  15.7275  16.1674  17.7458  17.9826

     the Fermi energy is    15.7077 ev

!    total energy              =     -95.04197229 Ry
     estimated scf accuracy    <          7.3E-09 Ry
     smearing contrib. (-TS)   =       0.00041847 Ry
     internal energy E=F+TS    =     -95.04239076 Ry

     The total energy is F=E-TS. E is the sum of the following terms:
     one-electron contribution =      34.73326004 Ry
     hartree contribution      =       8.43441454 Ry
     xc contribution           =     -34.76211953 Ry
     ewald contribution        =    -103.44794581 Ry

     convergence has been achieved in  11 iterations

     Forces acting on atoms (cartesian axes, Ry/au):

     atom    1 type  1   force =     0.00000000    0.02230146    0.11651506
     atom    2 type  1   force =    -0.02230146    0.00000000    0.11651506
     atom    3 type  1   force =    -0.00000000   -0.02230146    0.11651506
     atom    4 type  1   force =     0.02230146   -0.00000000    0.11651506
     atom    5 type  1   force =    -0.00000000   -0.02230146   -0.11651506
     atom    6 type  1   force =    -0.02230146    0.00000000   -0.11651506
     atom    7 type  1   force =     0.00000000    0.02230146   -0.11651506
     atom    8 type  1   force =     0.02230146    0.00000000   -0.11651506
     atom    9 type  2   force =     0.00000000    0.00000000   -0.00000000
     atom   10 type  2   force =     0.00000000   -0.00000000   -0.00000000
     The non-local contrib.  to forces
     atom    1 type  1   force =     0.00000000    0.03213393    0.10847083
     atom    2 type  1   force =    -0.03213393    0.00000000    0.10847083
     atom    3 type  1   force =     0.00000000   -0.03213393    0.10847083
     atom    4 type  1   force =     0.03213393    0.00000000    0.10847083
     atom    5 type  1   force =     0.00000000   -0.03213393   -0.10847083
     atom    6 type  1   force =    -0.03213393   -0.00000000   -0.10847083
     atom    7 type  1   force =     0.00000000    0.03213393   -0.10847083
     atom    8 type  1   force =     0.03213393   -0.00000000   -0.10847083
     atom    9 type  2   force =    -0.00000000   -0.00000000    0.00000000
     atom   10 type  2   force =     0.00000000    0.00000000    0.00000000
     The ionic contribution  to forces
     atom    1 type  1   force =    -0.00000000   -0.06390972    0.97419615
     atom    2 type  1   force =     0.06390972    0.00000000    0.97419615
     atom    3 type  1   force =    -0.00000000    0.06390972    0.97419615
     atom    4 type  1   force =    -0.06390972   -0.00000000    0.97419615
     atom    5 type  1   force =     0.00000000    0.06390972   -0.97419615
     atom    6 type  1   force =     0.06390972    0.00000000   -0.97419615
     atom    7 type  1   force =    -0.00000000   -0.06390972   -0.97419615
     atom    8 type  1   force =    -0.06390972    0.00000000   -0.97419615
     atom    9 type  2   force =    -0.00000000    0.00000000   -0.00000000
     atom   10 type  2   force =    -0.00000000   -0.00000000   -0.00000000
     The local contribution  to forces
     atom    1 type  1   force =     0.00000000    0.05836515   -0.95819888
     atom    2 type  1   force =    -0.05836515    0.00000000   -0.95819888
     atom    3 type  1   force =     0.00000000   -0.05836515   -0.95819888
     atom    4 type  1   force =     0.05836515   -0.00000000   -0.95819888
     atom    5 type  1   force =    -0.00000000   -0.05836515    0.95819888
     atom    6 type  1   force =    -0.05836515    0.00000000    0.95819888
     atom    7 type  1   force =     0.00000000    0.05836515    0.95819888
     atom    8 type  1   force =     0.05836515    0.00000000    0.95819888
     atom    9 type  2   force =     0.00000000   -0.00000000   -0.00000000
     atom   10 type  2   force =     0.00000000    0.00000000    0.00000000
     The core correction contribution to forces
     atom    1 type  1   force =     0.00000000   -0.00431636   -0.00791206
     atom    2 type  1   force =     0.00431636   -0.00000000   -0.00791206
     atom    3 type  1   force =    -0.00000000    0.00431636   -0.00791206
     atom    4 type  1   force =    -0.00431636    0.00000000   -0.00791206
     atom    5 type  1   force =    -0.00000000    0.00431636    0.00791206
     atom    6 type  1   force =     0.00431636   -0.00000000    0.00791206
     atom    7 type  1   force =     0.00000000   -0.00431636    0.00791206
     atom    8 type  1   force =    -0.00431636    0.00000000    0.00791206
     atom    9 type  2   force =     0.00000000    0.00000000    0.00000000
     atom   10 type  2   force =     0.00000000    0.00000000    0.00000000
     The Hubbard contrib.    to forces
     atom    1 type  1   force =     0.00000000    0.00000000    0.00000000
     atom    2 type  1   force =     0.00000000    0.00000000    0.00000000
     atom    3 type  1   force =     0.00000000    0.00000000    0.00000000
     atom    4 type  1   force =     0.00000000    0.00000000    0.00000000
     atom    5 type  1   force =     0.00000000    0.00000000    0.00000000
     atom    6 type  1   force =     0.00000000    0.00000000    0.00000000
     atom    7 type  1   force =     0.00000000    0.00000000    0.00000000
     atom    8 type  1   force =     0.00000000    0.00000000    0.00000000
     atom    9 type  2   force =     0.00000000    0.00000000    0.00000000
     atom   10 type  2   force =     0.00000000    0.00000000    0.00000000
     The SCF correction term to forces
     atom    1 type  1   force =    -0.00000000    0.00002846   -0.00004098
     atom    2 type  1   force =    -0.00002846   -0.00000000   -0.00004098
     atom    3 type  1   force =     0.00000000   -0.00002846   -0.00004098
     atom    4 type  1   force =     0.00002846   -0.00000000   -0.00004098
     atom    5 type  1   force =     0.00000000   -0.00002846    0.00004098
     atom    6 type  1   force =    -0.00002846    0.00000000    0.00004098
     atom    7 type  1   force =     0.00000000    0.00002846    0.00004098
     atom    8 type  1   force =     0.00002846    0.00000000    0.00004098
     atom    9 type  2   force =    -0.00000000    0.00000000   -0.00000000
     atom   10 type  2   force =    -0.00000000   -0.00000000    0.00000000

     Total force =     0.335537     Total SCF correction =     0.000141


     Computing stress (Cartesian axis) and pressure

          total   stress  (Ry/bohr**3)                   (kbar)     P=     1079.54
   0.00697134  -0.00000000  -0.00000000         1025.52       -0.00       -0.00
  -0.00000000   0.00697134   0.00000000           -0.00     1025.52        0.00
  -0.00000000   0.00000000   0.00807301           -0.00        0.00     1187.58

     Energy error            =      6.9E-01 Ry
     Gradient error          =      1.2E-01 Ry/Bohr
     Cell gradient error     =      6.9E+02 kbar

     number of scf cycles    =   3
     number of bfgs steps    =   2

     enthalpy           old  =     -92.3066830868 Ry
     enthalpy           new  =     -92.9918904648 Ry

     CASE: enthalpy          _new < enthalpy          _old

     new trust radius        =       0.2405316958 bohr
ibrav =      7
 celldm(1) =     11.63747906
 celldm(3) =      0.85730215
Input lattice vectors:
     0.63565660    -0.63565660     0.54494977
     0.63565660     0.63565660     0.54494977
    -0.63565660    -0.63565660     0.54494977
New lattice vectors in INITIAL alat:
     0.63565660    -0.63565660     0.54494977
     0.63565660     0.63565660     0.54494977
    -0.63565660    -0.63565660     0.54494977
New lattice vectors in NEW alat (for information only):
     0.50000000    -0.50000000     0.42865107
     0.50000000     0.50000000     0.42865107
    -0.50000000    -0.50000000     0.42865107
Discrepancy in bohr =     0.000000    0.000000    0.000000
     new conv_thr            =       0.0000000100 Ry

     new unit-cell volume =    675.58602 a.u.^3 (   100.11152 Ang^3 )
     density =      3.95707 g/cm^3

CELL_PARAMETERS (alat=  9.15390403)
   0.635656602  -0.635656602   0.544949770
   0.635656602   0.635656602   0.544949770
  -0.635656602  -0.635656602   0.544949770

ATOMIC_POSITIONS (crystal)
Si           -0.1868785739        0.5263072068        0.3394286328
Si            0.3131214261        1.0894286328       -0.2236927932
Si            0.1868785739        1.1525500589        0.3394286328
Si            0.6868785739        0.0894286328       -0.5974499411
Si           -0.3131214261        1.2236927932        0.9105713672
Si            0.8131214261        0.6605713672       -0.1525500589
Si            0.3131214261        0.5974499411       -0.0894286328
Si            0.1868785739        0.6605713672       -0.5263072068
Li           -0.0000000000       -0.0000000000       -0.0000000000
Li           -0.5000000000        0.7500000000        0.2500000000



     Writing config-only to output data dir ./output/SiLi.save/
     NEW-OLD atomic charge density approx. for the potential
     extrapolated charge   42.07256, renormalised to   38.00000

     total cpu time spent up to now is       32.3 secs

     Self-consistent Calculation

     iteration #  1     ecut=    80.00 Ry     beta= 0.70
     Davidson diagonalization with overlap
     c_bands:  1 eigenvalues not converged
     c_bands:  1 eigenvalues not converged
     c_bands:  1 eigenvalues not converged
     ethr =  1.00E-06,  avg # of iterations = 16.0

     total cpu time spent up to now is       34.4 secs

     total energy              =     -95.36986608 Ry
     estimated scf accuracy    <       0.14642076 Ry

     iteration #  2     ecut=    80.00 Ry     beta= 0.70
     Davidson diagonalization with overlap
     ethr =  3.85E-04,  avg # of iterations =  3.7

     total cpu time spent up to now is       35.1 secs

     total energy              =     -95.49727864 Ry
     estimated scf accuracy    <       0.32912660 Ry

     iteration #  3     ecut=    80.00 Ry     beta= 0.70
     Davidson diagonalization with overlap
     ethr =  3.85E-04,  avg # of iterations =  2.1

     total cpu time spent up to now is       35.7 secs

     total energy              =     -95.52472529 Ry
     estimated scf accuracy    <       0.03201542 Ry

     iteration #  4     ecut=    80.00 Ry     beta= 0.70
     Davidson diagonalization with overlap
     ethr =  8.43E-05,  avg # of iterations =  2.2

     total cpu time spent up to now is       36.2 secs

     total energy              =     -95.52080593 Ry
     estimated scf accuracy    <       0.01252072 Ry

     iteration #  5     ecut=    80.00 Ry     beta= 0.70
     Davidson diagonalization with overlap
     ethr =  3.29E-05,  avg # of iterations =  3.3

     total cpu time spent up to now is       36.8 secs

     total energy              =     -95.52363308 Ry
     estimated scf accuracy    <       0.00018321 Ry

     iteration #  6     ecut=    80.00 Ry     beta= 0.70
     Davidson diagonalization with overlap
     ethr =  4.82E-07,  avg # of iterations =  6.3

     total cpu time spent up to now is       37.7 secs

     total energy              =     -95.52393968 Ry
     estimated scf accuracy    <       0.00040121 Ry

     iteration #  7     ecut=    80.00 Ry     beta= 0.70
     Davidson diagonalization with overlap
     ethr =  4.82E-07,  avg # of iterations =  2.1

     total cpu time spent up to now is       38.2 secs

     total energy              =     -95.52396204 Ry
     estimated scf accuracy    <       0.00003754 Ry

     iteration #  8     ecut=    80.00 Ry     beta= 0.70
     Davidson diagonalization with overlap
     ethr =  9.88E-08,  avg # of iterations =  3.1

     total cpu time spent up to now is       38.8 secs

     total energy              =     -95.52397265 Ry
     estimated scf accuracy    <       0.00000011 Ry

     iteration #  9     ecut=    80.00 Ry     beta= 0.70
     Davidson diagonalization with overlap
     ethr =  2.78E-10,  avg # of iterations =  6.1

     total cpu time spent up to now is       39.7 secs

     total energy              =     -95.52397287 Ry
     estimated scf accuracy    <       0.00000088 Ry

     iteration # 10     ecut=    80.00 Ry     beta= 0.70
     Davidson diagonalization with overlap
     ethr =  2.78E-10,  avg # of iterations =  3.2

     total cpu time spent up to now is       40.4 secs

     total energy              =     -95.52397294 Ry
     estimated scf accuracy    <       0.00000005 Ry

     iteration # 11     ecut=    80.00 Ry     beta= 0.70
     Davidson diagonalization with overlap
     ethr =  1.44E-10,  avg # of iterations =  2.6

     total cpu time spent up to now is       40.9 secs

     End of self-consistent calculation

          k = 0.0000 0.0000 0.0000 (  4305 PWs)   bands (ev):

   -32.7305 -32.7247  -2.1077   3.3778   4.5189   4.5189   5.0210   5.3974
     6.2038   6.4486   6.5550   6.5550   7.0336   7.0336   8.7374  11.3498
    11.3498  12.2332  14.0294  17.4344  17.6776  18.6407  18.6407

          k =-0.1573-0.0000 0.1835 (  4345 PWs)   bands (ev):

   -32.7340 -32.7265  -1.8057   2.4605   3.6131   4.0485   4.5773   5.1430
     5.9118   6.1126   7.3279   7.6004   8.7467   9.0867   9.6276  10.2926
    11.6758  12.8981  14.5569  15.2442  15.8810  16.4822  16.7553

          k =-0.3146-0.0000 0.3670 (  4350 PWs)   bands (ev):

   -32.7322 -32.7284  -0.9696   0.8933   2.6123   3.6756   4.2194   4.2388
     6.4943   7.8406   7.9687   8.8600   9.9339   9.9728  11.2782  11.8653
    12.4643  12.5413  13.3171  13.7742  14.2517  14.4225  15.9731

          k =-0.1573 0.1573 0.3670 (  4359 PWs)   bands (ev):

   -32.7341 -32.7289  -1.1932   1.5082   2.2946   3.2947   4.8770   5.0399
     5.7457   6.5512   8.7924   9.1842   9.2693  10.0757  10.6338  11.4983
    12.4255  12.6137  13.2384  14.3534  14.6109  15.7503  16.2042

          k =-0.3146 0.1573 0.5505 (  4357 PWs)   bands (ev):

   -32.7331 -32.7291  -0.4482   0.4838   1.7027   3.1351   4.5506   5.5528
     6.2759   7.7382   8.3756   8.9762  10.1438  10.2414  11.1694  11.4340
    11.9628  12.5340  13.2988  13.6196  14.1569  15.8086  16.0994

          k = 0.3146 0.1573-0.1835 (  4358 PWs)   bands (ev):

   -32.7337 -32.7285  -1.2744   1.2176   2.6451   3.6023   4.6020   5.9857
     6.4141   6.8076   7.5973   7.9878   8.9018   9.9191  10.3366  10.9064
    11.6174  12.6424  13.6405  15.1466  15.2531  15.8621  16.1067

          k = 0.1573 0.1573 0.0000 (  4355 PWs)   bands (ev):

   -32.7346 -32.7274  -1.8365   2.0654   4.4583   4.5310   4.5312   4.9898
     5.5226   6.6309   7.8023   7.8482   8.0266   8.3461   9.3384   9.3394
    10.5344  14.2802  15.1363  16.2210  16.6084  16.6747  16.7643

          k =-0.3146 0.3146 0.7340 (  4371 PWs)   bands (ev):

   -32.7335 -32.7320  -0.2684  -0.1923   2.3203   3.4257   5.3525   5.3598
     6.3136   7.2959   7.9855   8.5569   9.0630  10.3300  10.4045  10.9495
    12.7280  13.1176  13.8201  13.8814  14.6304  14.9918  15.1855

          k = 0.3146 0.3146 0.0000 (  4356 PWs)   bands (ev):

   -32.7325 -32.7293  -1.0252   0.3074   4.0632   4.0764   4.5367   4.8729
     5.7821   7.1363   7.2126   7.8979   9.9828  10.3043  10.5039  10.7290
    11.5700  12.6785  13.0941  13.4129  14.4950  16.4042  17.9470

          k = 0.0000-0.0000 0.3670 (  4336 PWs)   bands (ev):

   -32.7338 -32.7248  -1.4415   2.1610   3.1829   3.5014   3.5014   5.4280
     5.4280   6.0034   7.2431   8.9927   9.8017  11.3421  11.3421  12.1523
    12.1523  12.2282  13.7207  13.9715  15.0433  15.7604  15.7604

          k =-0.1573-0.0000 0.5505 (  4371 PWs)   bands (ev):

   -32.7342 -32.7289  -0.5780   0.9737   2.1768   2.6522   3.6787   5.5173
     5.7386   7.2499   7.9007   9.1752  10.9962  11.3282  12.4564  12.8466
    13.0572  13.4204  13.7720  13.9560  14.4250  14.4795  15.0855

          k = 0.4720 0.0000-0.1835 (  4357 PWs)   bands (ev):

   -32.7332 -32.7288  -0.7678   1.0699   2.3684   2.4769   4.6186   4.9784
     6.2108   6.5726   8.7270   9.7338  10.1200  10.2693  11.3044  11.4685
    12.2002  12.9644  13.2794  14.4328  14.9220  15.2787  15.4882

          k = 0.3146 0.0000 0.0000 (  4359 PWs)   bands (ev):

   -32.7346 -32.7279  -1.5667   1.9528   2.9747   3.9246   4.0338   5.7554
     6.4227   7.0257   7.4926   7.6150   8.5545   9.1944   9.9481  10.0282
    11.8825  12.7631  15.2604  15.7192  15.9991  16.2011  17.1134

          k =-0.1573 0.1573 0.7340 (  4367 PWs)   bands (ev):

   -32.7332 -32.7305   0.0250   0.3597   1.7181   3.1044   3.4819   4.7829
     6.2114   7.9668   8.4845   9.2850  11.0639  11.1698  11.5948  12.1113
    12.4579  12.8363  13.2866  14.7367  14.8325  15.3948  15.7398

          k = 0.4720 0.1573 0.0000 (  4375 PWs)   bands (ev):

   -32.7345 -32.7309  -0.7626   0.5421   3.1094   3.3891   3.7836   4.6629
     6.5354   6.7403   8.5487   9.0409   9.6421  10.6245  11.3797  11.3964
    11.9959  12.5510  13.1637  14.3929  14.7552  15.3608  15.7642

          k = 0.3146-0.4720-0.5505 (  4366 PWs)   bands (ev):

   -32.7338 -32.7309  -0.4779   0.5402   1.8411   2.1188   6.4062   6.6512
     6.8754   7.2794   7.9710   8.5116   9.0799   9.1780  10.0730  10.4059
    11.9777  13.1095  13.2091  14.5357  15.3461  15.8332  15.8732

          k = 0.0000-0.0000 0.7340 (  4372 PWs)   bands (ev):

   -32.7316 -32.7305   0.2457   1.1132   1.9055   1.9055   2.3039   4.7682
     7.7464   7.7464   7.8970   9.6267  10.4898  11.6153  11.6153  13.5911
    14.1670  14.1670  14.7450  14.7580  14.7580  14.8247  15.2495

          k = 0.6293 0.0000 0.0000 (  4357 PWs)   bands (ev):

   -32.7315 -32.7304   0.0053   0.9354   1.8470   2.5490   3.2246   3.4389
     8.0231   8.3639   8.5063   9.2762  10.2734  10.4663  12.2134  12.3494
    12.9511  13.6649  13.6699  13.8004  14.3216  15.8905  15.9107

     the Fermi energy is    13.8642 ev

!    total energy              =     -95.52397296 Ry
     estimated scf accuracy    <          3.5E-10 Ry
     smearing contrib. (-TS)   =       0.00026911 Ry
     internal energy E=F+TS    =     -95.52424206 Ry

     The total energy is F=E-TS. E is the sum of the following terms:
     one-electron contribution =      30.81535843 Ry
     hartree contribution      =       7.91196745 Ry
     xc contribution           =     -33.87834269 Ry
     ewald contribution        =    -100.37322525 Ry

     convergence has been achieved in  11 iterations

     Forces acting on atoms (cartesian axes, Ry/au):

     atom    1 type  1   force =    -0.00000000    0.00294359    0.03209951
     atom    2 type  1   force =    -0.00294359    0.00000000    0.03209951
     atom    3 type  1   force =     0.00000000   -0.00294359    0.03209951
     atom    4 type  1   force =     0.00294359    0.00000000    0.03209951
     atom    5 type  1   force =    -0.00000000   -0.00294359   -0.03209951
     atom    6 type  1   force =    -0.00294359    0.00000000   -0.03209951
     atom    7 type  1   force =    -0.00000000    0.00294359   -0.03209951
     atom    8 type  1   force =     0.00294359    0.00000000   -0.03209951
     atom    9 type  2   force =     0.00000000   -0.00000000    0.00000000
     atom   10 type  2   force =    -0.00000000   -0.00000000   -0.00000000
     The non-local contrib.  to forces
     atom    1 type  1   force =     0.00000000    0.00855039    0.01007510
     atom    2 type  1   force =    -0.00855039   -0.00000000    0.01007510
     atom    3 type  1   force =    -0.00000000   -0.00855039    0.01007510
     atom    4 type  1   force =     0.00855039   -0.00000000    0.01007510
     atom    5 type  1   force =     0.00000000   -0.00855039   -0.01007510
     atom    6 type  1   force =    -0.00855039   -0.00000000   -0.01007510
     atom    7 type  1   force =    -0.00000000    0.00855039   -0.01007510
     atom    8 type  1   force =     0.00855039    0.00000000   -0.01007510
     atom    9 type  2   force =     0.00000000    0.00000000   -0.00000000
     atom   10 type  2   force =     0.00000000   -0.00000000    0.00000000
     The ionic contribution  to forces
     atom    1 type  1   force =     0.00000000    0.02388083    0.54526140
     atom    2 type  1   force =    -0.02388083    0.00000000    0.54526140
     atom    3 type  1   force =    -0.00000000   -0.02388083    0.54526140
     atom    4 type  1   force =     0.02388083    0.00000000    0.54526140
     atom    5 type  1   force =    -0.00000000   -0.02388083   -0.54526140
     atom    6 type  1   force =    -0.02388083   -0.00000000   -0.54526140
     atom    7 type  1   force =    -0.00000000    0.02388083   -0.54526140
     atom    8 type  1   force =     0.02388083   -0.00000000   -0.54526140
     atom    9 type  2   force =    -0.00000000    0.00000000    0.00000000
     atom   10 type  2   force =    -0.00000000   -0.00000000   -0.00000000
     The local contribution  to forces
     atom    1 type  1   force =     0.00000000   -0.02648467   -0.52262352
     atom    2 type  1   force =     0.02648467    0.00000000   -0.52262352
     atom    3 type  1   force =     0.00000000    0.02648467   -0.52262352
     atom    4 type  1   force =    -0.02648467    0.00000000   -0.52262352
     atom    5 type  1   force =    -0.00000000    0.02648467    0.52262352
     atom    6 type  1   force =     0.02648467   -0.00000000    0.52262352
     atom    7 type  1   force =     0.00000000   -0.02648467    0.52262352
     atom    8 type  1   force =    -0.02648467    0.00000000    0.52262352
     atom    9 type  2   force =     0.00000000   -0.00000000   -0.00000000
     atom   10 type  2   force =     0.00000000    0.00000000    0.00000000
     The core correction contribution to forces
     atom    1 type  1   force =     0.00000000   -0.00300948   -0.00060461
     atom    2 type  1   force =     0.00300948   -0.00000000   -0.00060461
     atom    3 type  1   force =     0.00000000    0.00300948   -0.00060461
     atom    4 type  1   force =    -0.00300948   -0.00000000   -0.00060461
     atom    5 type  1   force =     0.00000000    0.00300948    0.00060461
     atom    6 type  1   force =     0.00300948    0.00000000    0.00060461
     atom    7 type  1   force =     0.00000000   -0.00300948    0.00060461
     atom    8 type  1   force =    -0.00300948    0.00000000    0.00060461
     atom    9 type  2   force =     0.00000000    0.00000000    0.00000000
     atom   10 type  2   force =     0.00000000    0.00000000    0.00000000
     The Hubbard contrib.    to forces
     atom    1 type  1   force =     0.00000000    0.00000000    0.00000000
     atom    2 type  1   force =     0.00000000    0.00000000    0.00000000
     atom    3 type  1   force =     0.00000000    0.00000000    0.00000000
     atom    4 type  1   force =     0.00000000    0.00000000    0.00000000
     atom    5 type  1   force =     0.00000000    0.00000000    0.00000000
     atom    6 type  1   force =     0.00000000    0.00000000    0.00000000
     atom    7 type  1   force =     0.00000000    0.00000000    0.00000000
     atom    8 type  1   force =     0.00000000    0.00000000    0.00000000
     atom    9 type  2   force =     0.00000000    0.00000000    0.00000000
     atom   10 type  2   force =     0.00000000    0.00000000    0.00000000
     The SCF correction term to forces
     atom    1 type  1   force =    -0.00000000    0.00000653   -0.00000886
     atom    2 type  1   force =    -0.00000653   -0.00000000   -0.00000886
     atom    3 type  1   force =    -0.00000000   -0.00000653   -0.00000886
     atom    4 type  1   force =     0.00000653    0.00000000   -0.00000886
     atom    5 type  1   force =     0.00000000   -0.00000653    0.00000886
     atom    6 type  1   force =    -0.00000653    0.00000000    0.00000886
     atom    7 type  1   force =     0.00000000    0.00000653    0.00000886
     atom    8 type  1   force =     0.00000653   -0.00000000    0.00000886
     atom    9 type  2   force =     0.00000000    0.00000000   -0.00000000
     atom   10 type  2   force =    -0.00000000   -0.00000000    0.00000000

     Total force =     0.091172     Total SCF correction =     0.000031


     Computing stress (Cartesian axis) and pressure

          total   stress  (Ry/bohr**3)                   (kbar)     P=      628.44
   0.00440293  -0.00000000  -0.00000000          647.69       -0.00       -0.00
  -0.00000000   0.00440293   0.00000000           -0.00      647.69        0.00
  -0.00000000   0.00000000   0.00401031           -0.00        0.00      589.94

     Energy error            =      2.4E-01 Ry
     Gradient error          =      3.2E-02 Ry/Bohr
     Cell gradient error     =      1.5E+02 kbar

     number of scf cycles    =   4
     number of bfgs steps    =   3

     enthalpy           old  =     -92.9918904648 Ry
     enthalpy           new  =     -93.2277027431 Ry

     CASE: enthalpy          _new < enthalpy          _old

     new trust radius        =       0.0986522301 bohr
ibrav =      7
 celldm(1) =     11.85832809
 celldm(3) =      0.84134600
Input lattice vectors:
     0.64771971    -0.64771971     0.54495639
     0.64771971     0.64771971     0.54495639
    -0.64771971    -0.64771971     0.54495639
New lattice vectors in INITIAL alat:
     0.64771971    -0.64771971     0.54495639
     0.64771971     0.64771971     0.54495639
    -0.64771971    -0.64771971     0.54495639
New lattice vectors in NEW alat (for information only):
     0.50000000    -0.50000000     0.42067300
     0.50000000     0.50000000     0.42067300
    -0.50000000    -0.50000000     0.42067300
Discrepancy in bohr =     0.000000    0.000000    0.000000
     new conv_thr            =       0.0000000032 Ry

     new unit-cell volume =    701.47957 a.u.^3 (   103.94855 Ang^3 )
     density =      3.81100 g/cm^3

CELL_PARAMETERS (alat=  9.15390403)
   0.647719708  -0.647719708   0.544956385
   0.647719708   0.647719708   0.544956385
  -0.647719708  -0.647719708   0.544956385

ATOMIC_POSITIONS (crystal)
Si           -0.1878760385        0.5329808123        0.3451047738
Si            0.3121239615        1.0951047738       -0.2170191877
Si            0.1878760385        1.1572287354        0.3451047738
Si            0.6878760385        0.0951047738       -0.5927712646
Si           -0.3121239615        1.2170191877        0.9048952262
Si            0.8121239615        0.6548952262       -0.1572287354
Si            0.3121239615        0.5927712646       -0.0951047738
Si            0.1878760385        0.6548952262       -0.5329808123
Li           -0.0000000000       -0.0000000000       -0.0000000000
Li           -0.5000000000        0.7500000000        0.2500000000



     Writing config-only to output data dir ./output/SiLi.save/
     NEW-OLD atomic charge density approx. for the potential
     extrapolated charge   39.40217, renormalised to   38.00000

     total cpu time spent up to now is       43.1 secs

     Self-consistent Calculation

     iteration #  1     ecut=    80.00 Ry     beta= 0.70
     Davidson diagonalization with overlap
     ethr =  1.00E-06,  avg # of iterations = 12.7

     total cpu time spent up to now is       44.8 secs

     total energy              =     -95.62266068 Ry
     estimated scf accuracy    <       0.01479756 Ry

     iteration #  2     ecut=    80.00 Ry     beta= 0.70
     Davidson diagonalization with overlap
     ethr =  3.89E-05,  avg # of iterations =  3.6

     total cpu time spent up to now is       45.6 secs

     total energy              =     -95.63575620 Ry
     estimated scf accuracy    <       0.03002770 Ry

     iteration #  3     ecut=    80.00 Ry     beta= 0.70
     Davidson diagonalization with overlap
     ethr =  3.89E-05,  avg # of iterations =  2.0

     total cpu time spent up to now is       46.1 secs

     total energy              =     -95.63827820 Ry
     estimated scf accuracy    <       0.00302343 Ry

     iteration #  4     ecut=    80.00 Ry     beta= 0.70
     Davidson diagonalization with overlap
     ethr =  7.96E-06,  avg # of iterations =  2.2

     total cpu time spent up to now is       46.6 secs

     total energy              =     -95.63782894 Ry
     estimated scf accuracy    <       0.00131807 Ry

     iteration #  5     ecut=    80.00 Ry     beta= 0.70
     Davidson diagonalization with overlap
     ethr =  3.47E-06,  avg # of iterations =  3.1

     total cpu time spent up to now is       47.2 secs

     total energy              =     -95.63808538 Ry
     estimated scf accuracy    <       0.00003691 Ry

     iteration #  6     ecut=    80.00 Ry     beta= 0.70
     Davidson diagonalization with overlap
     ethr =  9.71E-08,  avg # of iterations =  5.0

     total cpu time spent up to now is       47.9 secs

     total energy              =     -95.63812480 Ry
     estimated scf accuracy    <       0.00005274 Ry

     iteration #  7     ecut=    80.00 Ry     beta= 0.70
     Davidson diagonalization with overlap
     ethr =  9.71E-08,  avg # of iterations =  2.0

     total cpu time spent up to now is       48.4 secs

     total energy              =     -95.63812913 Ry
     estimated scf accuracy    <       0.00000451 Ry

     iteration #  8     ecut=    80.00 Ry     beta= 0.70
     Davidson diagonalization with overlap
     ethr =  1.19E-08,  avg # of iterations =  2.6

     total cpu time spent up to now is       49.0 secs

     total energy              =     -95.63812950 Ry
     estimated scf accuracy    <       0.00000061 Ry

     iteration #  9     ecut=    80.00 Ry     beta= 0.70
     Davidson diagonalization with overlap
     ethr =  1.59E-09,  avg # of iterations =  4.1

     total cpu time spent up to now is       49.6 secs

     total energy              =     -95.63812985 Ry
     estimated scf accuracy    <       0.00000012 Ry

     iteration # 10     ecut=    80.00 Ry     beta= 0.70
     Davidson diagonalization with overlap
[...]
         7           Si  tau(   7) = (   0.6632236   0.2600279   0.4117160  )
         8           Si  tau(   8) = (   0.9232515   0.6632236   0.1506462  )
         9           Li  tau(   9) = (  -0.0000000  -0.0000000  -0.0000000  )
        10           Li  tau(  10) = (   0.0000000   0.6632236   0.2610699  )

     number of k points=    18  Marzari-Vanderbilt smearing, width (Ry)=  0.0200
                       cart. coord. in units 2pi/alat
        k(    1) = (   0.0000000   0.0000000   0.0000000), wk =   0.0160000
        k(    2) = (  -0.1507787  -0.0000000   0.1915196), wk =   0.1280000
        k(    3) = (  -0.3015574  -0.0000000   0.3830393), wk =   0.1280000
        k(    4) = (  -0.1507787   0.1507787   0.3830393), wk =   0.1280000
        k(    5) = (  -0.3015574   0.1507787   0.5745589), wk =   0.2560000
        k(    6) = (   0.3015574   0.1507787  -0.1915196), wk =   0.2560000
        k(    7) = (   0.1507787   0.1507787   0.0000000), wk =   0.0640000
        k(    8) = (  -0.3015574   0.3015574   0.7660785), wk =   0.1280000
        k(    9) = (   0.3015574   0.3015574   0.0000000), wk =   0.0640000
        k(   10) = (   0.0000000   0.0000000   0.3830393), wk =   0.0320000
        k(   11) = (  -0.1507787  -0.0000000   0.5745589), wk =   0.1280000
        k(   12) = (   0.4523361   0.0000000  -0.1915196), wk =   0.1280000
        k(   13) = (   0.3015574  -0.0000000   0.0000000), wk =   0.0640000
        k(   14) = (  -0.1507787   0.1507787   0.7660785), wk =   0.1280000
        k(   15) = (   0.4523361   0.1507787   0.0000000), wk =   0.1280000
        k(   16) = (   0.3015574  -0.4523361  -0.5745589), wk =   0.1280000
        k(   17) = (   0.0000000   0.0000000   0.7660785), wk =   0.0320000
        k(   18) = (   0.6031148   0.0000000  -0.0000000), wk =   0.0640000

     Dense  grid:    68063 G-vectors     FFT dimensions: (  60,  60,  60)

     Estimated max dynamical RAM per process >      28.67 MB

     Estimated total dynamical RAM >     229.36 MB

     Initial potential from superposition of free atoms

     starting charge      37.9860, renormalised to      38.0000
     Starting wfcs are   36 randomized atomic wfcs

     total cpu time spent up to now is      106.1 secs

     Self-consistent Calculation

     iteration #  1     ecut=    80.00 Ry     beta= 0.70
     Davidson diagonalization with overlap
     c_bands:  4 eigenvalues not converged
     c_bands:  1 eigenvalues not converged
     c_bands:  1 eigenvalues not converged
     c_bands:  2 eigenvalues not converged
     c_bands:  2 eigenvalues not converged
     c_bands:  3 eigenvalues not converged
     c_bands:  1 eigenvalues not converged
     c_bands:  2 eigenvalues not converged
     c_bands:  2 eigenvalues not converged
     c_bands:  2 eigenvalues not converged
     c_bands:  3 eigenvalues not converged
     c_bands:  2 eigenvalues not converged
     c_bands:  2 eigenvalues not converged
     c_bands:  2 eigenvalues not converged
     c_bands:  1 eigenvalues not converged
     ethr =  1.00E-06,  avg # of iterations = 19.6

     total cpu time spent up to now is      110.8 secs

     total energy              =     -95.62468274 Ry
     estimated scf accuracy    <       0.23867190 Ry

     iteration #  2     ecut=    80.00 Ry     beta= 0.70
     Davidson diagonalization with overlap
     ethr =  6.28E-04,  avg # of iterations =  2.6

     total cpu time spent up to now is      112.1 secs

     total energy              =     -95.67457492 Ry
     estimated scf accuracy    <       0.05959691 Ry

     iteration #  3     ecut=    80.00 Ry     beta= 0.70
     Davidson diagonalization with overlap
     ethr =  1.57E-04,  avg # of iterations =  2.2

     total cpu time spent up to now is      113.3 secs

     total energy              =     -95.68763057 Ry
     estimated scf accuracy    <       0.00244936 Ry

     iteration #  4     ecut=    80.00 Ry     beta= 0.70
     Davidson diagonalization with overlap
     ethr =  6.45E-06,  avg # of iterations =  5.4

     total cpu time spent up to now is      114.6 secs

     total energy              =     -95.68819677 Ry
     estimated scf accuracy    <       0.00010368 Ry

     iteration #  5     ecut=    80.00 Ry     beta= 0.70
     Davidson diagonalization with overlap
     ethr =  2.73E-07,  avg # of iterations =  4.7

     total cpu time spent up to now is      115.9 secs

     total energy              =     -95.68821904 Ry
     estimated scf accuracy    <       0.00000489 Ry

     iteration #  6     ecut=    80.00 Ry     beta= 0.70
     Davidson diagonalization with overlap
     ethr =  1.29E-08,  avg # of iterations =  4.1

     total cpu time spent up to now is      117.2 secs

     total energy              =     -95.68822120 Ry
     estimated scf accuracy    <       0.00000040 Ry

     iteration #  7     ecut=    80.00 Ry     beta= 0.70
     Davidson diagonalization with overlap
     ethr =  1.05E-09,  avg # of iterations =  3.8

     total cpu time spent up to now is      118.6 secs

     total energy              =     -95.68822133 Ry
     estimated scf accuracy    <       0.00000008 Ry

     iteration #  8     ecut=    80.00 Ry     beta= 0.70
     Davidson diagonalization with overlap
     ethr =  2.06E-10,  avg # of iterations =  2.5

     total cpu time spent up to now is      119.7 secs

     total energy              =     -95.68822134 Ry
     estimated scf accuracy    <          1.5E-09 Ry

     iteration #  9     ecut=    80.00 Ry     beta= 0.70
     Davidson diagonalization with overlap
     ethr =  3.87E-12,  avg # of iterations =  6.1

     total cpu time spent up to now is      121.3 secs

     total energy              =     -95.68822134 Ry
     estimated scf accuracy    <          4.3E-10 Ry

     iteration # 10     ecut=    80.00 Ry     beta= 0.70
     Davidson diagonalization with overlap
     ethr =  1.13E-12,  avg # of iterations =  2.0

     total cpu time spent up to now is      122.3 secs

     End of self-consistent calculation

          k = 0.0000 0.0000 0.0000 (  8485 PWs)   bands (ev):

   -33.0333 -33.0250  -2.4569   2.8464   3.5876   3.5876   5.1412   5.6375
     5.6510   5.9999   6.2346   6.2346   6.9860   6.9860   8.7739   9.7967
     9.7967  10.7333  13.1825  17.4986  17.4987  17.8365  17.8367

          k =-0.1508-0.0000 0.1915 (  8484 PWs)   bands (ev):

   -33.0327 -33.0256  -2.1522   1.9493   3.2678   3.4735   4.1712   4.7433
     5.3382   5.8577   6.6655   7.4116   8.4195   9.1061   9.1278  10.1221
    10.1259  11.7585  13.8439  14.7402  15.1452  15.4924  15.6564

          k =-0.3016-0.0000 0.3830 (  8498 PWs)   bands (ev):

   -33.0314 -33.0268  -1.3199   0.5651   2.2948   3.1300   3.6040   3.8560
     5.8232   6.9429   7.4634   8.8539   9.1730  10.3770  10.7857  11.0074
    11.8142  12.2520  12.5580  13.1251  13.5911  14.0774  15.4265

          k =-0.1508 0.1508 0.3830 (  8504 PWs)   bands (ev):

   -33.0318 -33.0264  -1.5213   1.0560   2.0667   2.9546   4.2809   4.4609
     4.7427   6.1800   8.1329   8.6690   9.1158   9.9044  10.1649  11.7332
    11.8942  12.0203  12.7410  14.1145  14.3450  14.6356  14.7636

          k =-0.3016 0.1508 0.5746 (  8500 PWs)   bands (ev):

   -33.0306 -33.0275  -0.8353   0.1085   1.4323   2.8381   3.8815   4.8935
     5.5694   7.6626   7.8393   8.3502   9.3773   9.8974  10.6262  10.8729
    11.3227  11.9209  12.9544  13.8607  14.0294  15.1725  15.3476

          k = 0.3016 0.1508-0.1915 (  8516 PWs)   bands (ev):

   -33.0313 -33.0269  -1.6612   0.6706   2.5035   3.3429   4.0028   5.7555
     6.0409   6.1419   7.1185   7.5714   8.4539   9.0730   9.3724  10.5348
    11.1600  12.0975  12.8214  14.0723  14.8057  15.4148  16.0017

          k = 0.1508 0.1508 0.0000 (  8491 PWs)   bands (ev):

   -33.0325 -33.0258  -2.2055   1.4315   3.8625   3.9372   4.6857   4.8264
     5.3570   6.3033   7.2521   7.5575   7.7375   7.8440   8.0105   9.2304
     9.2545  12.8757  13.9920  15.4391  15.4706  15.8608  15.9478

          k =-0.3016 0.3016 0.7661 (  8507 PWs)   bands (ev):

   -33.0295 -33.0287  -0.7313  -0.6576   2.2458   3.2918   4.6950   4.7040
     6.1726   6.8203   7.4450   7.8836   8.5563   9.3985   9.7806  10.3997
    12.2416  12.2498  12.8007  13.6405  13.9339  14.1050  14.9494

          k = 0.3016 0.3016 0.0000 (  8530 PWs)   bands (ev):

   -33.0304 -33.0278  -1.4545  -0.2192   4.2178   4.2587   4.2890   4.6676
     4.6832   6.0335   6.6990   7.4403   9.6080   9.9146   9.9310   9.9717
    10.4312  12.0415  12.5318  12.5702  13.7836  14.9968  16.5693

          k = 0.0000 0.0000 0.3830 (  8518 PWs)   bands (ev):

   -33.0324 -33.0258  -1.7465   1.7113   2.9595   3.0875   3.0875   4.4707
     4.4707   5.7510   6.5140   9.8111  10.2235  10.6015  10.6015  11.4856
    11.6767  11.6767  13.3186  13.3755  14.4769  14.4769  15.0877

          k =-0.1508-0.0000 0.5746 (  8524 PWs)   bands (ev):

   -33.0312 -33.0269  -0.8915   0.5525   1.8517   2.1130   3.1906   4.9919
     5.0228   7.1042   8.0344   8.3716   9.9515  11.4881  11.6134  12.0350
    12.6156  12.9880  13.1710  13.6246  13.9190  13.9904  14.2850

          k = 0.4523 0.0000-0.1915 (  8524 PWs)   bands (ev):

   -33.0307 -33.0275  -1.1906   0.6245   1.8355   2.2281   4.0796   5.0899
     5.7403   6.3005   8.2118   9.2070   9.7912   9.9695  10.1644  10.6073
    10.9952  11.7517  12.8473  13.7324  14.0414  14.7418  15.3423

          k = 0.3016-0.0000 0.0000 (  8519 PWs)   bands (ev):

   -33.0318 -33.0264  -1.9555   1.3395   2.2440   4.0200   4.2062   5.3917
     5.8556   6.7157   6.8737   7.5176   8.0214   8.0506   9.4230   9.8375
    10.2871  11.7600  14.6021  14.7383  15.1521  15.2353  15.9481

          k =-0.1508 0.1508 0.7661 (  8519 PWs)   bands (ev):

   -33.0301 -33.0281  -0.4312  -0.1387   1.5413   2.4648   3.0234   4.9887
     5.9940   7.2557   8.0840   9.1852  10.1754  10.2998  11.1394  11.2690
    11.5312  12.1399  12.2613  13.3186  13.9493  14.8607  15.2335

          k = 0.4523 0.1508 0.0000 (  8532 PWs)   bands (ev):

   -33.0301 -33.0281  -1.2102   0.0024   2.5320   3.3120   3.8884   4.2802
     6.2001   6.3972   7.8638   8.7828   9.1434   9.4570  10.5330  10.9101
    11.0015  11.6599  12.5709  13.5121  14.0566  14.5495  14.8833

          k = 0.3016-0.4523-0.5746 (  8512 PWs)   bands (ev):

   -33.0301 -33.0281  -0.8722   0.0756   1.6581   1.9110   5.5512   5.9029
     6.1717   6.8084   6.8988   7.7431   8.9794   9.2239   9.6765  10.1453
    11.6473  12.7089  13.5986  14.0169  14.4190  14.8558  15.4420

          k = 0.0000 0.0000 0.7661 (  8534 PWs)   bands (ev):

   -33.0303 -33.0278  -0.1456   0.5655   1.3150   1.3150   2.2443   5.2325
     7.0336   7.0336   7.6549   9.0932  10.5556  11.3543  11.3543  12.4562
    12.4562  13.1247  13.5401  13.5401  13.9589  13.9903  13.9953

          k = 0.6031 0.0000-0.0000 (  8546 PWs)   bands (ev):

   -33.0295 -33.0287  -0.4941   0.3849   1.2232   2.0205   3.4663   3.5488
     7.6767   7.9830   8.1516   9.0258   9.7992  10.0377  11.4158  11.4767
    11.6847  12.2596  12.4420  13.0805  13.6528  14.5406  14.6878

     the Fermi energy is    13.3669 ev

!    total energy              =     -95.68822134 Ry
     estimated scf accuracy    <          1.9E-11 Ry
     smearing contrib. (-TS)   =       0.00154919 Ry
     internal energy E=F+TS    =     -95.68977054 Ry

     The total energy is F=E-TS. E is the sum of the following terms:
     one-electron contribution =      29.53621372 Ry
     hartree contribution      =       7.70056318 Ry
     xc contribution           =     -33.59600459 Ry
     ewald contribution        =     -99.33054285 Ry

     convergence has been achieved in  10 iterations

     Forces acting on atoms (cartesian axes, Ry/au):

     atom    1 type  1   force =    -0.00000000   -0.00006472   -0.00020480
     atom    2 type  1   force =     0.00006472    0.00000000   -0.00020480
     atom    3 type  1   force =    -0.00000000    0.00006472   -0.00020480
     atom    4 type  1   force =    -0.00006472    0.00000000   -0.00020480
     atom    5 type  1   force =     0.00000000    0.00006472    0.00020480
     atom    6 type  1   force =     0.00006472    0.00000000    0.00020480
     atom    7 type  1   force =    -0.00000000   -0.00006472    0.00020480
     atom    8 type  1   force =    -0.00006472   -0.00000000    0.00020480
     atom    9 type  2   force =     0.00000000   -0.00000000    0.00000000
     atom   10 type  2   force =     0.00000000   -0.00000000   -0.00000000
     The non-local contrib.  to forces
     atom    1 type  1   force =    -0.00000000   -0.00390204   -0.02250801
     atom    2 type  1   force =     0.00390204   -0.00000000   -0.02250801
     atom    3 type  1   force =    -0.00000000    0.00390204   -0.02250801
     atom    4 type  1   force =    -0.00390204   -0.00000000   -0.02250801
     atom    5 type  1   force =    -0.00000000    0.00390204    0.02250801
     atom    6 type  1   force =     0.00390204    0.00000000    0.02250801
     atom    7 type  1   force =     0.00000000   -0.00390204    0.02250801
     atom    8 type  1   force =    -0.00390204   -0.00000000    0.02250801
     atom    9 type  2   force =     0.00000000   -0.00000000   -0.00000000
     atom   10 type  2   force =     0.00000000    0.00000000    0.00000000
     The ionic contribution  to forces
     atom    1 type  1   force =     0.00000000    0.10650109    0.28474033
     atom    2 type  1   force =    -0.10650109    0.00000000    0.28474033
     atom    3 type  1   force =    -0.00000000   -0.10650109    0.28474033
     atom    4 type  1   force =     0.10650109    0.00000000    0.28474033
     atom    5 type  1   force =    -0.00000000   -0.10650109   -0.28474033
     atom    6 type  1   force =    -0.10650109   -0.00000000   -0.28474033
     atom    7 type  1   force =     0.00000000    0.10650109   -0.28474033
     atom    8 type  1   force =     0.10650109   -0.00000000   -0.28474033
     atom    9 type  2   force =    -0.00000000    0.00000000   -0.00000000
     atom   10 type  2   force =    -0.00000000   -0.00000000   -0.00000000
     The local contribution  to forces
     atom    1 type  1   force =    -0.00000000   -0.10072358   -0.26448987
     atom    2 type  1   force =     0.10072358    0.00000000   -0.26448987
     atom    3 type  1   force =     0.00000000    0.10072358   -0.26448987
     atom    4 type  1   force =    -0.10072358    0.00000000   -0.26448987
     atom    5 type  1   force =     0.00000000    0.10072358    0.26448987
     atom    6 type  1   force =     0.10072358    0.00000000    0.26448987
     atom    7 type  1   force =    -0.00000000   -0.10072358    0.26448987
     atom    8 type  1   force =    -0.10072358   -0.00000000    0.26448987
     atom    9 type  2   force =    -0.00000000   -0.00000000   -0.00000000
     atom   10 type  2   force =    -0.00000000   -0.00000000    0.00000000
     The core correction contribution to forces
     atom    1 type  1   force =    -0.00000000   -0.00193862    0.00205097
     atom    2 type  1   force =     0.00193862   -0.00000000    0.00205097
     atom    3 type  1   force =    -0.00000000    0.00193862    0.00205097
     atom    4 type  1   force =    -0.00193862   -0.00000000    0.00205097
     atom    5 type  1   force =     0.00000000    0.00193862   -0.00205097
     atom    6 type  1   force =     0.00193862   -0.00000000   -0.00205097
     atom    7 type  1   force =     0.00000000   -0.00193862   -0.00205097
     atom    8 type  1   force =    -0.00193862   -0.00000000   -0.00205097
     atom    9 type  2   force =     0.00000000    0.00000000    0.00000000
     atom   10 type  2   force =     0.00000000    0.00000000    0.00000000
     The Hubbard contrib.    to forces
     atom    1 type  1   force =     0.00000000    0.00000000    0.00000000
     atom    2 type  1   force =     0.00000000    0.00000000    0.00000000
     atom    3 type  1   force =     0.00000000    0.00000000    0.00000000
     atom    4 type  1   force =     0.00000000    0.00000000    0.00000000
     atom    5 type  1   force =     0.00000000    0.00000000    0.00000000
     atom    6 type  1   force =     0.00000000    0.00000000    0.00000000
     atom    7 type  1   force =     0.00000000    0.00000000    0.00000000
     atom    8 type  1   force =     0.00000000    0.00000000    0.00000000
     atom    9 type  2   force =     0.00000000    0.00000000    0.00000000
     atom   10 type  2   force =     0.00000000    0.00000000    0.00000000
     The SCF correction term to forces
     atom    1 type  1   force =    -0.00000000   -0.00000157    0.00000178
     atom    2 type  1   force =     0.00000157    0.00000000    0.00000178
     atom    3 type  1   force =     0.00000000    0.00000157    0.00000178
     atom    4 type  1   force =    -0.00000157    0.00000000    0.00000178
     atom    5 type  1   force =     0.00000000    0.00000157   -0.00000178
     atom    6 type  1   force =     0.00000157   -0.00000000   -0.00000178
     atom    7 type  1   force =     0.00000000   -0.00000157   -0.00000178
     atom    8 type  1   force =    -0.00000157   -0.00000000   -0.00000178
     atom    9 type  2   force =    -0.00000000    0.00000000    0.00000000
     atom   10 type  2   force =     0.00000000    0.00000000   -0.00000000

     Total force =     0.000608     Total SCF correction =     0.000007


     Computing stress (Cartesian axis) and pressure

          total   stress  (Ry/bohr**3)                   (kbar)     P=      532.33
   0.00368958   0.00000000   0.00000000          542.76        0.00        0.00
   0.00000000   0.00368958  -0.00000000            0.00      542.76       -0.00
   0.00000000  -0.00000000   0.00347687            0.00       -0.00      511.46


     Writing all to output data dir ./output/SiLi.save/

     init_run     :      2.25s CPU      2.86s WALL (       2 calls)
     electrons    :     87.49s CPU     92.93s WALL (      13 calls)
     update_pot   :      4.27s CPU      4.37s WALL (      11 calls)
     forces       :      3.98s CPU      4.10s WALL (      13 calls)
     stress       :     20.40s CPU     21.18s WALL (      13 calls)

     Called by init_run:
     wfcinit      :      0.81s CPU      1.02s WALL (       2 calls)
     potinit      :      0.51s CPU      0.60s WALL (       2 calls)
     hinit0       :      0.85s CPU      1.07s WALL (       2 calls)

     Called by electrons:
     c_bands      :     78.70s CPU     82.81s WALL (     117 calls)
     sum_band     :      7.40s CPU      7.92s WALL (     117 calls)
     v_of_rho     :      1.36s CPU      2.02s WALL (     128 calls)
     mix_rho      :      0.13s CPU      0.18s WALL (     117 calls)

     Called by c_bands:
     init_us_2    :      1.35s CPU      1.53s WALL (    4716 calls)
     init_us_2:cp :      1.34s CPU      1.52s WALL (    4716 calls)
     cegterg      :     73.37s CPU     76.47s WALL (    2106 calls)

     Called by *egterg:
     cdiaghg      :      7.11s CPU      7.28s WALL (   10947 calls)
     h_psi        :     57.92s CPU     60.85s WALL (   11217 calls)
     g_psi        :      0.26s CPU      0.27s WALL (    9075 calls)

     Called by h_psi:
     h_psi:calbec :      7.57s CPU      7.79s WALL (   11217 calls)
     vloc_psi     :     43.79s CPU     46.38s WALL (   11217 calls)
     add_vuspsi   :      6.37s CPU      6.47s WALL (   11217 calls)

     General routines
     calbec       :      8.77s CPU      9.03s WALL (   12387 calls)
     fft          :      1.54s CPU      2.57s WALL (    1605 calls)
     ffts         :      0.05s CPU      0.09s WALL (     117 calls)
     fftw         :     43.49s CPU     46.03s WALL (  375086 calls)

     Parallel routines

     PWSCF        :   1m58.70s CPU   2m 6.12s WALL


   This run was terminated on:  21:44:28  29Dec2024            

=------------------------------------------------------------------------------=
   JOB DONE.
=------------------------------------------------------------------------------=
