
     Program PWSCF v.7.2 starts on 29Dec2024 at 21:18:20 

     This program is part of the open-source Quantum ESPRESSO suite
     for quantum simulation of materials; please cite
         "P. Giannozzi et al., J. Phys.:Condens. Matter 21 395502 (2009);
         "P. Giannozzi et al., J. Phys.:Condens. Matter 29 465901 (2017);
         "P. Giannozzi et al., J. Chem. Phys. 152 154105 (2020);
          URL http://www.quantum-espresso.org", 
     in publications or presentations arising from this work. More details at
     http://www.quantum-espresso.org/quote

     Parallel version (MPI & OpenMP), running on       8 processor cores
     Number of MPI processes:                 8
     Threads/MPI process:                     1

     MPI processes distributed on     1 nodes
     481558 MiB available memory on the printing compute node when the environment starts

     Waiting for input...
     Reading input from standard input

     Current dimensions of program PWSCF are:
     Max number of different atomic species (ntypx) = 10
     Max number of k-points (npk) =  40000
     Max angular momentum in pseudopotentials (lmaxx) =  4

     R & G space division:  proc/nbgrp/npool/nimage =       8
     Subspace diagonalization in iterative solution of the eigenvalue problem:
     a serial algorithm will be used


     Parallelization info
     --------------------
     sticks:   dense  smooth     PW     G-vecs:    dense   smooth      PW
     Min         152     152     49                 2838     2838     524
     Max         153     153     50                 2840     2840     526
     Sum        1223    1223    399                22713    22713    4205

     Using Slab Decomposition



     bravais-lattice index     =            7
     lattice parameter (alat)  =       8.9622  a.u.
     unit-cell volume          =     234.7232 (a.u.)^3
     number of atoms/cell      =            5
     number of atomic types    =            2
     number of electrons       =        19.00
     number of Kohn-Sham states=           14
     kinetic-energy cutoff     =      80.0000  Ry
     charge density cutoff     =     320.0000  Ry
     scf convergence threshold =      1.0E-08
     mixing beta               =       0.7000
     number of iterations used =            8  plain     mixing
     energy convergence thresh.=      1.0E-04
     force convergence thresh. =      1.0E-03
     press convergence thresh. =      1.0E+00
     Exchange-correlation= PBE
                           (   1   4   3   4   0   0   0)
     nstep                     =           50


     celldm(1)=   8.962222  celldm(2)=   0.000000  celldm(3)=   0.652137
     celldm(4)=   0.000000  celldm(5)=   0.000000  celldm(6)=   0.000000

     crystal axes: (cart. coord. in units of alat)
               a(1) = (   0.500000  -0.500000   0.326069 )  
               a(2) = (   0.500000   0.500000   0.326069 )  
               a(3) = (  -0.500000  -0.500000   0.326069 )  

     reciprocal axes: (cart. coord. in units 2 pi/alat)
               b(1) = (  1.000000 -1.000000  0.000000 )  
               b(2) = (  0.000000  1.000000  1.533420 )  
               b(3) = ( -1.000000  0.000000  1.533420 )  


     PseudoPot. # 1 for Si read from file:
     ../pseudo/Si_ONCV_PBE_sr.upf
     MD5 check sum: e543d271109d17c80368dfa7c482276d
     Pseudo is Norm-conserving + core correction, Zval =  4.0
     Generated using ONCVPSP code by D. R. Hamann
     Using radial grid of 1510 points,  6 beta functions with: 
                l(1) =   0
                l(2) =   0
                l(3) =   1
                l(4) =   1
                l(5) =   2
                l(6) =   2

     PseudoPot. # 2 for Li read from file:
     ../pseudo/Li_ONCV_PBE_sr.upf
     MD5 check sum: 50ff420e78310ffa21704f3361e624a4
     Pseudo is Norm-conserving, Zval =  3.0
     Generated using ONCVPSP code by D. R. Hamann
     Using radial grid of 1944 points,  4 beta functions with: 
                l(1) =   0
                l(2) =   0
                l(3) =   1
                l(4) =   1

     atomic species   valence    mass     pseudopotential
        Si             4.00    28.08550     Si( 1.00)
        Li             3.00     6.94100     Li( 1.00)

      8 Sym. Ops., with inversion, found



   Cartesian axes

     site n.     atom                  positions (alat units)
         1           Si  tau(   1) = (   0.1025200   0.2985040   0.3260685  )
         2           Si  tau(   2) = (   0.8974800   0.7014960   0.3260685  )
         3           Si  tau(   3) = (   0.7014960   0.1025200   0.3260685  )
         4           Si  tau(   4) = (   0.2985040   0.8974800   0.3260685  )
         5           Li  tau(   5) = (   0.0000000   0.0000000   0.0000000  )

     number of k points=    92  Marzari-Vanderbilt smearing, width (Ry)=  0.0200
                       cart. coord. in units 2pi/alat
        k(    1) = (   0.0000000   0.0000000   0.0000000), wk =   0.0178571
        k(    2) = (  -0.1428571   0.0000000   0.2190600), wk =   0.0357143
        k(    3) = (  -0.2857143   0.0000000   0.4381200), wk =   0.0357143
        k(    4) = (  -0.4285714   0.0000000   0.6571800), wk =   0.0357143
        k(    5) = (   0.0000000   0.2500000   0.3833550), wk =   0.0714286
        k(    6) = (  -0.1428571   0.2500000   0.6024150), wk =   0.0178571
        k(    7) = (  -0.2857143   0.2500000   0.8214750), wk =   0.0178571
        k(    8) = (  -0.4285714   0.2500000   1.0405350), wk =   0.0178571
        k(    9) = (   0.4285714   0.2500000  -0.2738250), wk =   0.0178571
        k(   10) = (   0.2857143   0.2500000  -0.0547650), wk =   0.0178571
        k(   11) = (   0.1428571   0.2500000   0.1642950), wk =   0.0178571
        k(   12) = (   0.0000000  -0.5000000  -0.7667100), wk =   0.0357143
        k(   13) = (  -0.1428571  -0.5000000  -0.5476500), wk =   0.0178571
        k(   14) = (  -0.2857143  -0.5000000  -0.3285900), wk =   0.0178571
        k(   15) = (  -0.4285714  -0.5000000  -0.1095300), wk =   0.0178571
        k(   16) = (   0.2500000  -0.2500000   0.0000000), wk =   0.0357143
        k(   17) = (   0.1071429  -0.2500000   0.2190600), wk =   0.0178571
        k(   18) = (  -0.0357143  -0.2500000   0.4381200), wk =   0.0178571
        k(   19) = (  -0.1785714  -0.2500000   0.6571800), wk =   0.0178571
        k(   20) = (   0.6785714  -0.2500000  -0.6571800), wk =   0.0178571
        k(   21) = (   0.5357143  -0.2500000  -0.4381200), wk =   0.0178571
        k(   22) = (   0.3928571  -0.2500000  -0.2190600), wk =   0.0178571
        k(   23) = (   0.1071429   0.0000000   0.6024150), wk =   0.0357143
        k(   24) = (  -0.0357143   0.0000000   0.8214750), wk =   0.0357143
        k(   25) = (  -0.1785714   0.0000000   1.0405350), wk =   0.0357143
        k(   26) = (   0.6785714   0.0000000  -0.2738250), wk =   0.0357143
        k(   27) = (   0.5357143   0.0000000  -0.0547650), wk =   0.0357143
        k(   28) = (   0.3928571   0.0000000   0.1642950), wk =   0.0357143
        k(   29) = (   0.2500000  -0.7500000  -0.7667100), wk =   0.0357143
        k(   30) = (   0.1071429  -0.7500000  -0.5476500), wk =   0.0178571
        k(   31) = (  -0.0357143  -0.7500000  -0.3285900), wk =   0.0178571
        k(   32) = (  -0.1785714  -0.7500000  -0.1095300), wk =   0.0178571
        k(   33) = (   0.6785714  -0.7500000  -1.4238900), wk =   0.0178571
        k(   34) = (   0.5357143  -0.7500000  -1.2048300), wk =   0.0178571
        k(   35) = (   0.3928571  -0.7500000  -0.9857700), wk =   0.0178571
        k(   36) = (   0.2500000  -0.5000000  -0.3833550), wk =   0.0357143
        k(   37) = (   0.1071429  -0.5000000  -0.1642950), wk =   0.0178571
        k(   38) = (  -0.0357143  -0.5000000   0.0547650), wk =   0.0178571
        k(   39) = (  -0.1785714  -0.5000000   0.2738250), wk =   0.0178571
        k(   40) = (   0.6785714  -0.5000000  -1.0405350), wk =   0.0178571
        k(   41) = (   0.5357143  -0.5000000  -0.8214750), wk =   0.0178571
        k(   42) = (   0.3928571  -0.5000000  -0.6024150), wk =   0.0178571
        k(   43) = (  -0.5000000   0.5000000   0.0000000), wk =   0.0178571
        k(   44) = (  -0.6428571   0.5000000   0.2190600), wk =   0.0178571
        k(   45) = (  -0.7857143   0.5000000   0.4381200), wk =   0.0178571
        k(   46) = (  -0.9285714   0.5000000   0.6571800), wk =   0.0178571
        k(   47) = (  -0.6428571   0.7500000   0.6024150), wk =   0.0178571
        k(   48) = (  -0.7857143   0.7500000   0.8214750), wk =   0.0178571
        k(   49) = (  -0.9285714   0.7500000   1.0405350), wk =   0.0178571
        k(   50) = (  -0.0714286   0.7500000  -0.2738250), wk =   0.0178571
        k(   51) = (  -0.2142857   0.7500000  -0.0547650), wk =   0.0178571
        k(   52) = (  -0.3571429   0.7500000   0.1642950), wk =   0.0178571
        k(   53) = (  -0.6428571   0.0000000  -0.5476500), wk =   0.0357143
        k(   54) = (  -0.7857143   0.0000000  -0.3285900), wk =   0.0357143
        k(   55) = (  -0.9285714   0.0000000  -0.1095300), wk =   0.0357143
        k(   56) = (   0.2500000  -0.1428571  -0.6024150), wk =   0.0178571
        k(   57) = (   0.2500000  -0.2857143  -0.8214750), wk =   0.0178571
        k(   58) = (   0.2500000  -0.4285714  -1.0405350), wk =   0.0178571
        k(   59) = (   0.2500000   0.4285714   0.2738250), wk =   0.0178571
        k(   60) = (   0.2500000   0.2857143   0.0547650), wk =   0.0178571
        k(   61) = (   0.2500000   0.1428571  -0.1642950), wk =   0.0178571
        k(   62) = (  -0.5000000  -0.1428571   0.5476500), wk =   0.0178571
        k(   63) = (  -0.5000000  -0.2857143   0.3285900), wk =   0.0178571
        k(   64) = (  -0.5000000  -0.4285714   0.1095300), wk =   0.0178571
        k(   65) = (  -0.2500000   0.1071429  -0.2190600), wk =   0.0178571
        k(   66) = (  -0.2500000  -0.0357143  -0.4381200), wk =   0.0178571
        k(   67) = (  -0.2500000  -0.1785714  -0.6571800), wk =   0.0178571
        k(   68) = (  -0.2500000   0.6785714   0.6571800), wk =   0.0178571
        k(   69) = (  -0.2500000   0.5357143   0.4381200), wk =   0.0178571
        k(   70) = (  -0.2500000   0.3928571   0.2190600), wk =   0.0178571
        k(   71) = (  -0.7500000   0.1071429   0.5476500), wk =   0.0178571
        k(   72) = (  -0.7500000  -0.0357143   0.3285900), wk =   0.0178571
        k(   73) = (  -0.7500000  -0.1785714   0.1095300), wk =   0.0178571
        k(   74) = (  -0.7500000   0.6785714   1.4238900), wk =   0.0178571
        k(   75) = (  -0.7500000   0.5357143   1.2048300), wk =   0.0178571
        k(   76) = (  -0.7500000   0.3928571   0.9857700), wk =   0.0178571
        k(   77) = (  -0.5000000   0.2500000   0.3833550), wk =   0.0357143
        k(   78) = (  -0.5000000   0.1071429   0.1642950), wk =   0.0178571
        k(   79) = (  -0.5000000  -0.0357143  -0.0547650), wk =   0.0178571
        k(   80) = (  -0.5000000  -0.1785714  -0.2738250), wk =   0.0178571
        k(   81) = (  -0.5000000   0.6785714   1.0405350), wk =   0.0178571
        k(   82) = (  -0.5000000   0.5357143   0.8214750), wk =   0.0178571
        k(   83) = (  -0.5000000   0.3928571   0.6024150), wk =   0.0178571
        k(   84) = (   0.5000000  -0.6428571  -0.2190600), wk =   0.0178571
        k(   85) = (   0.5000000  -0.7857143  -0.4381200), wk =   0.0178571
        k(   86) = (   0.5000000  -0.9285714  -0.6571800), wk =   0.0178571
        k(   87) = (   0.7500000  -0.6428571  -0.6024150), wk =   0.0178571
        k(   88) = (   0.7500000  -0.7857143  -0.8214750), wk =   0.0178571
        k(   89) = (   0.7500000  -0.9285714  -1.0405350), wk =   0.0178571
        k(   90) = (   0.7500000  -0.0714286   0.2738250), wk =   0.0178571
        k(   91) = (   0.7500000  -0.2142857   0.0547650), wk =   0.0178571
        k(   92) = (   0.7500000  -0.3571429  -0.1642950), wk =   0.0178571

     Dense  grid:    22713 G-vectors     FFT dimensions: (  40,  40,  40)

     Estimated max dynamical RAM per process >      21.13 MB

     Estimated total dynamical RAM >     169.01 MB

     Initial potential from superposition of free atoms

     starting charge      18.9930, renormalised to      19.0000
     Starting wfcs are   18 randomized atomic wfcs

     total cpu time spent up to now is        1.2 secs

     Self-consistent Calculation

     iteration #  1     ecut=    80.00 Ry     beta= 0.70
     Davidson diagonalization with overlap
     ethr =  1.00E-02,  avg # of iterations =  6.2

     Threshold (ethr) on eigenvalues was too large:
     Diagonalizing with lowered threshold

     Davidson diagonalization with overlap
     ethr =  2.24E-04,  avg # of iterations =  4.0

     total cpu time spent up to now is        4.1 secs

     total energy              =     -47.11642283 Ry
     estimated scf accuracy    <       0.04313670 Ry

     iteration #  2     ecut=    80.00 Ry     beta= 0.70
     Davidson diagonalization with overlap
     ethr =  2.27E-04,  avg # of iterations =  1.0

     total cpu time spent up to now is        5.0 secs

     total energy              =     -47.11655980 Ry
     estimated scf accuracy    <       0.00277480 Ry

     iteration #  3     ecut=    80.00 Ry     beta= 0.70
     Davidson diagonalization with overlap
     c_bands:  1 eigenvalues not converged
     ethr =  1.46E-05,  avg # of iterations =  5.0

     total cpu time spent up to now is        6.2 secs

     total energy              =     -47.11671109 Ry
     estimated scf accuracy    <       0.00001723 Ry

     iteration #  4     ecut=    80.00 Ry     beta= 0.70
     Davidson diagonalization with overlap
     c_bands:  1 eigenvalues not converged
     ethr =  9.07E-08,  avg # of iterations =  5.2

     total cpu time spent up to now is        7.6 secs

     total energy              =     -47.11672781 Ry
     estimated scf accuracy    <       0.00000115 Ry

     iteration #  5     ecut=    80.00 Ry     beta= 0.70
     Davidson diagonalization with overlap
     ethr =  6.07E-09,  avg # of iterations =  2.2

     total cpu time spent up to now is        8.7 secs

     total energy              =     -47.11672815 Ry
     estimated scf accuracy    <       0.00000013 Ry

     iteration #  6     ecut=    80.00 Ry     beta= 0.70
     Davidson diagonalization with overlap
     ethr =  7.09E-10,  avg # of iterations =  2.0

     total cpu time spent up to now is        9.6 secs

     End of self-consistent calculation

          k = 0.0000 0.0000 0.0000 (  2829 PWs)   bands (ev):

   -26.2655   0.3878  11.2629  11.9756  11.9756  12.6292  16.9359  18.2023
    18.2023  20.2266  20.8264  20.8264  20.8807  21.9997

          k =-0.1429 0.0000 0.2191 (  2829 PWs)   bands (ev):

   -26.2615   0.7690  10.3389  11.1057  12.9962  13.7825  14.9008  16.2103
    16.5956  19.0406  21.5034  22.1764  23.7948  24.6375

          k =-0.2857 0.0000 0.4381 (  2818 PWs)   bands (ev):

   -26.2526   1.9113   9.6794   9.8859  10.7340  13.2646  14.6196  16.0585
    16.8506  18.0563  21.6629  24.6596  25.8703  28.3860

          k =-0.4286 0.0000 0.6572 (  2836 PWs)   bands (ev):

   -26.2454   3.7753   6.6008   9.8873  10.5085  11.5629  13.6293  16.9645
    17.6004  20.5085  22.5455  24.7337  25.3975  27.4502

          k = 0.0000 0.2500 0.3834 (  2825 PWs)   bands (ev):

   -26.2549   1.5548   9.8856  10.3436  11.1396  13.7340  14.9742  15.6174
    16.3508  18.1852  21.6072  24.0043  25.5458  27.5328

          k =-0.1429 0.2500 0.6024 (  2820 PWs)   bands (ev):

   -26.2473   2.8827   8.2715   9.6118  10.4626  12.8548  14.1814  15.2807
    16.7906  19.0055  22.3437  24.5696  26.9643  29.3285

          k =-0.2857 0.2500 0.8215 (  2832 PWs)   bands (ev):

   -26.2443   4.8793   5.8890   7.9088  10.3363  12.7186  14.4189  16.8377
    17.9316  20.7505  22.3244  23.7093  25.2330  28.3528

          k =-0.4286 0.2500 1.0405 (  2833 PWs)   bands (ev):

   -26.2481   3.6449   6.4016   8.2013  10.7125  13.2642  14.7052  17.2909
    20.0820  21.2316  21.8498  22.2967  24.5429  27.8311

          k = 0.4286 0.2500-0.2738 (  2827 PWs)   bands (ev):

   -26.2559   2.0244   6.4036  11.3036  11.4510  14.3579  15.0993  16.9834
    19.0221  20.2874  20.7044  22.7022  24.5012  27.0411

          k = 0.2857 0.2500-0.0548 (  2830 PWs)   bands (ev):

   -26.2618   1.1228   6.9924  12.2198  12.9551  15.0515  16.5615  17.2529
    17.7755  18.6046  21.0536  21.2338  23.1935  25.3546

          k = 0.1429 0.2500 0.1643 (  2823 PWs)   bands (ev):

   -26.2614   0.9659   8.2648  11.4021  13.0527  14.4942  15.9068  16.2991
    18.7644  19.2005  20.4462  21.5055  22.4556  25.6488

          k = 0.0000-0.5000-0.7667 (  2838 PWs)   bands (ev):

   -26.2444   4.6179   5.5828   9.9169  10.6586  11.1572  13.4964  16.9126
    17.7969  22.0080  23.0494  23.0521  24.7862  28.9194

          k =-0.1429-0.5000-0.5476 (  2835 PWs)   bands (ev):

   -26.2472   3.4765   7.1854   8.2181  11.2093  11.6973  15.4394  16.5347
    18.9642  19.7188  22.6362  24.1460  25.4150  27.2013

          k =-0.2857-0.5000-0.3286 (  2836 PWs)   bands (ev):

   -26.2535   2.5778   5.9496  10.3297  11.9121  12.8391  15.7778  17.1386
    19.7661  20.0147  22.1000  22.9032  24.0790  26.6497

          k =-0.4286-0.5000-0.1095 (  2844 PWs)   bands (ev):

   -26.2585   2.1972   4.8854  12.6711  13.6250  14.1674  15.4216  16.0312
    17.7078  19.2230  22.4785  24.0141  25.3956  27.5845

          k = 0.2500-0.2500 0.0000 (  2830 PWs)   bands (ev):

   -26.2624   1.0136   7.2487  12.4047  12.6370  15.4280  16.8248  16.9077
    17.5754  19.1010  20.7138  21.0849  23.0378  25.0503

          k = 0.1071-0.2500 0.2191 (  2827 PWs)   bands (ev):

   -26.2602   1.0433   8.6907  10.9999  12.9641  14.0486  15.9300  16.3844
    17.2996  19.3936  20.8038  21.3817  23.7669  26.3024

          k =-0.0357-0.2500 0.4381 (  2821 PWs)   bands (ev):

   -26.2529   1.8182   9.9026  10.0193  11.1953  12.8700  14.6612  16.0899
    16.1533  17.9050  21.9026  24.8707  25.4577  28.5827

          k =-0.1786-0.2500 0.6572 (  2823 PWs)   bands (ev):

   -26.2460   3.3267   7.6786   9.1989  10.2971  13.1042  13.7376  15.8532
    17.1218  18.9717  23.3473  23.6919  26.5353  29.3126

          k = 0.6786-0.2500-0.6572 (  2831 PWs)   bands (ev):

   -26.2446   5.1949   5.5519   7.6023  10.6256  12.2724  14.8767  17.4500
    17.9372  21.6084  21.9549  22.6140  26.0389  28.2646

          k = 0.5357-0.2500-0.4381 (  2835 PWs)   bands (ev):

   -26.2499   3.1775   6.3753   8.8313  11.6116  12.1436  15.6108  18.4340
    18.5263  20.3311  21.3269  24.4069  25.2054  25.7898

          k = 0.3929-0.2500-0.2191 (  2833 PWs)   bands (ev):

   -26.2578   1.7300   6.4790  11.5485  12.4702  13.9241  15.6326  16.5169
    19.4714  20.1923  20.6206  22.2320  23.0292  27.1041

          k = 0.1071 0.0000 0.6024 (  2826 PWs)   bands (ev):

   -26.2480   2.5139   9.2746  10.7322  10.9291  12.0417  13.4249  14.8657
    15.4946  17.6700  24.6525  26.1568  27.1250  28.6980

          k =-0.0357 0.0000 0.8215 (  2834 PWs)   bands (ev):

   -26.2441   4.1968   7.6376   8.8112   8.8602  11.4085  15.4275  16.3365
    16.5193  18.3638  27.3884  27.8530  28.2943  28.6656

          k =-0.1786 0.0000 1.0405 (  2844 PWs)   bands (ev):

   -26.2462   5.1508   6.5339   7.4411   8.2217  11.3373  16.3965  17.6873
    20.2223  21.1161  24.2752  25.7566  26.1322  27.6205

          k = 0.6786 0.0000-0.2738 (  2846 PWs)   bands (ev):

   -26.2526   3.1619   6.8642   7.7694   9.9539  12.0808  17.8626  18.6989
    20.0719  22.5659  23.4689  24.1804  25.5720  26.1050

          k = 0.5357 0.0000-0.0548 (  2850 PWs)   bands (ev):

   -26.2586   1.8733   7.1065   8.2939  12.9269  13.6218  16.9039  19.1048
    19.7135  20.2163  20.6149  24.3062  25.2863  26.1106

          k = 0.3929 0.0000 0.1643 (  2829 PWs)   bands (ev):

   -26.2597   1.3382   8.1543   9.2127  12.8832  14.9586  16.7145  17.2010
    17.9771  19.6271  20.4046  22.5822  24.5669  25.4273

          k = 0.2500-0.7500-0.7667 (  2831 PWs)   bands (ev):

   -26.2444   4.3343   6.4838   8.2730  10.2928  12.7071  14.4335  16.5249
    17.2501  20.4282  22.5327  24.4460  24.8229  28.8473

          k = 0.1071-0.7500-0.5476 (  2839 PWs)   bands (ev):

   -26.2456   4.9284   6.1331   7.6713   9.3386  11.9701  14.8620  17.1657
    20.1132  21.4173  24.1419  24.9321  25.5216  26.3460

          k =-0.0357-0.7500-0.3286 (  2848 PWs)   bands (ev):

   -26.2505   3.8483   6.7028   7.6360   9.0258  11.5765  17.6059  18.9403
    20.9949  22.5545  23.7143  24.3372  25.0142  26.4757

          k =-0.1786-0.7500-0.1095 (  2842 PWs)   bands (ev):

   -26.2554   3.1624   5.4161   8.4416  10.8326  12.5478  17.3365  19.0327
    21.8279  22.8302  23.0692  24.3871  24.9321  28.0594

          k = 0.6786-0.7500-1.4239 (  2842 PWs)   bands (ev):

   -26.2565   2.7370   5.1952   9.6331  11.6915  12.9440  17.4096  17.9402
    20.0858  21.0672  23.2966  24.0665  25.1590  27.8794

          k = 0.5357-0.7500-1.2048 (  2841 PWs)   bands (ev):

   -26.2532   2.6791   6.0248  10.1903  10.8680  13.6777  15.1311  17.6666
    19.8489  20.7404  21.7630  23.3011  24.6510  26.0801

          k = 0.3929-0.7500-0.9858 (  2835 PWs)   bands (ev):

   -26.2478   3.1900   7.4904   8.3742  10.3696  14.2567  15.3086  15.7044
    18.0140  19.9951  20.8964  24.0048  24.3392  28.5783

          k = 0.2500-0.5000-0.3834 (  2836 PWs)   bands (ev):

   -26.2519   2.7489   6.3598   9.7004  10.9812  13.8494  14.9527  17.0916
    19.6527  20.3329  22.1323  22.7319  24.4855  26.6579

          k = 0.1071-0.5000-0.1643 (  2844 PWs)   bands (ev):

   -26.2578   1.8682   6.8586   9.2751  12.3055  13.8355  17.4529  17.9544
    18.5439  20.2547  20.6567  24.2840  24.3656  26.7153

          k =-0.0357-0.5000 0.0548 (  2844 PWs)   bands (ev):

   -26.2593   1.6909   7.2113   8.6115  13.3394  13.8617  16.7202  18.6471
    19.5512  20.0628  20.3137  24.0940  24.7006  25.5733

          k =-0.1786-0.5000 0.2738 (  2841 PWs)   bands (ev):

   -26.2552   2.2225   6.5280  10.1400  11.2118  13.5765  15.9069  17.6293
    19.3326  21.0541  21.8404  22.8099  23.3353  27.7812

          k = 0.6786-0.5000-1.0405 (  2831 PWs)   bands (ev):

   -26.2486   3.4428   6.3176   8.4950  11.0651  13.0643  16.3580  17.6961
    18.3812  19.3490  20.5753  24.1899  25.0956  26.6342

          k = 0.5357-0.5000-0.8215 (  2845 PWs)   bands (ev):

   -26.2445   5.2499   6.2315   6.6377   9.2267  15.9443  16.9301  17.8277
    18.3115  18.7911  18.8906  19.9079  26.4116  29.2734

          k = 0.3929-0.5000-0.6024 (  2841 PWs)   bands (ev):

   -26.2459   4.2861   6.3914   7.4418   9.8592  14.9923  16.3520  16.9460
    18.6486  19.3160  20.2393  21.0360  26.3099  27.5479

          k =-0.5000 0.5000 0.0000 (  2846 PWs)   bands (ev):

   -26.2593   2.1558   4.7442  13.0149  13.9795  14.7663  15.2544  16.1434
    17.0794  18.4023  22.1572  25.0003  26.2265  27.8536

          k =-0.6429 0.5000 0.2191 (  2835 PWs)   bands (ev):

   -26.2565   2.3307   5.2999  11.9304  12.1373  13.9213  15.3708  16.8695
    18.2172  20.6050  22.0848  23.7984  24.4286  25.9445

          k =-0.7857 0.5000 0.4381 (  2832 PWs)   bands (ev):

   -26.2502   2.9555   6.7907   9.0070  10.7034  13.7688  14.8506  16.7016
    19.6236  20.7299  21.7449  23.2437  24.1347  27.5488

          k =-0.9286 0.5000 0.6572 (  2835 PWs)   bands (ev):

   -26.2451   4.1207   6.2285   9.4526  10.0082  12.4656  13.5727  16.5363
    18.3476  21.8624  22.4046  23.1874  25.6881  26.6896

          k =-0.6429 0.7500 0.6024 (  2832 PWs)   bands (ev):

   -26.2466   3.4171   7.6067   8.1639  10.2264  13.5470  15.3198  16.7105
    17.6332  18.5017  21.7909  23.8812  25.0665  28.3617

          k =-0.7857 0.7500 0.8215 (  2834 PWs)   bands (ev):

   -26.2443   4.7113   6.0977   8.0584  10.6256  12.0251  14.3458  16.9124
    17.3852  20.9382  22.8773  24.3027  25.4450  28.9783

          k =-0.9286 0.7500 1.0405 (  2842 PWs)   bands (ev):

   -26.2466   4.6234   6.6094   7.5310   8.9438  11.7357  15.6046  17.5984
    20.3245  22.3903  23.5220  24.6121  25.4005  27.0309

          k =-0.0714 0.7500-0.2738 (  2850 PWs)   bands (ev):

   -26.2519   3.6435   6.3230   7.7940   9.5380  11.6396  18.1225  19.4070
    20.2257  23.2200  23.7453  24.3556  24.6557  27.5780

          k =-0.2143 0.7500-0.0548 (  2841 PWs)   bands (ev):

   -26.2561   3.0338   5.2513   8.7060  11.0881  13.0006  16.8289  19.1897
    21.3174  22.0532  23.7505  24.3446  25.0614  28.0509

          k =-0.3571 0.7500 0.1643 (  2843 PWs)   bands (ev):

   -26.2561   2.6787   5.3112   9.9739  11.6435  12.8095  17.0648  17.7590
    20.4754  21.2083  22.5166  23.6907  24.3943  27.9850

          k =-0.6429 0.0000-0.5476 (  2838 PWs)   bands (ev):

   -26.2462   4.2085   6.5745   8.3277   9.3451  12.5662  14.5194  16.2964
    20.5283  22.3741  23.2636  23.5572  25.3257  26.0752

          k =-0.7857 0.0000-0.3286 (  2846 PWs)   bands (ev):

   -26.2502   4.1092   6.7181   7.3524   8.8037  11.3681  18.0489  19.0106
    21.0461  22.5116  23.4322  24.4940  25.4535  27.2627

          k =-0.9286 0.0000-0.1095 (  2844 PWs)   bands (ev):

   -26.2534   4.5525   5.8905   6.1043   9.4565  12.0685  17.2060  21.9337
    22.9035  23.9803  24.4945  25.2145  26.6669  27.2550

          k = 0.2500-0.1429-0.6024 (  2820 PWs)   bands (ev):

   -26.2473   2.8828   8.2687   9.5452  10.6212  12.8058  13.7665  15.7883
    17.0811  18.3369  23.1313  23.8218  27.5149  28.8514

          k = 0.2500-0.2857-0.8215 (  2832 PWs)   bands (ev):

   -26.2443   4.8786   5.8930   7.8881  10.4307  12.4746  14.6812  17.1021
    17.4053  21.1880  22.1309  23.4363  25.4403  28.6010

          k = 0.2500-0.4286-1.0405 (  2833 PWs)   bands (ev):

   -26.2481   3.6462   6.3988   8.1411  11.4285  11.9773  15.4194  18.1825
    19.2519  20.2350  21.0340  24.6529  25.3436  26.3194

          k = 0.2500 0.4286 0.2738 (  2827 PWs)   bands (ev):

   -26.2559   2.0248   6.3956  11.0889  11.9954  13.4541  15.9788  16.4870
    19.5428  19.9208  21.4204  22.8371  22.9746  27.5968

          k = 0.2500 0.2857 0.0548 (  2830 PWs)   bands (ev):

   -26.2618   1.1228   6.9908  12.2399  12.9593  15.0982  16.4546  16.8936
    17.8680  19.2269  20.7659  21.2185  23.1944  25.3066

          k = 0.2500 0.1429-0.1643 (  2823 PWs)   bands (ev):

   -26.2614   0.9659   8.2736  11.3242  13.3292  14.0408  16.2520  16.6539
    17.9704  19.7497  19.8795  21.6402  22.6812  25.9134

          k =-0.5000-0.1429 0.5476 (  2835 PWs)   bands (ev):

   -26.2472   3.4756   7.1598   8.3881  10.2701  13.5138  14.1475  16.2256
    19.1818  21.4676  21.6477  23.5539  24.7461  27.3881

          k =-0.5000-0.2857 0.3286 (  2836 PWs)   bands (ev):

   -26.2535   2.5771   5.9564  10.4537  11.2977  13.8970  15.0477  17.2645
    19.2850  20.5343  21.8759  23.0232  24.8650  25.7152

          k =-0.5000-0.4286 0.1095 (  2844 PWs)   bands (ev):

   -26.2585   2.1971   4.8860  12.6924  13.5452  14.1052  15.7083  16.0608
    17.4638  19.1950  22.5605  23.9493  25.7001  27.2181

          k =-0.2500 0.1071-0.2191 (  2827 PWs)   bands (ev):

   -26.2602   1.0433   8.6757  11.0856  12.7739  14.3436  15.6302  16.1392
    17.8074  19.2324  20.6415  22.1733  23.0018  26.1235

          k =-0.2500-0.0357-0.4381 (  2821 PWs)   bands (ev):

   -26.2529   1.8181   9.7849  10.3765  10.7632  13.4054  14.3563  15.5286
    16.6284  18.0130  21.8354  24.3293  26.4975  28.0747

          k =-0.2500-0.1786-0.6572 (  2823 PWs)   bands (ev):

   -26.2460   3.3266   7.6857   9.1734  10.3339  12.7865  14.4006  15.4727
    16.8312  19.5229  22.4836  24.5656  26.0950  29.9108

          k =-0.2500 0.6786 0.6572 (  2831 PWs)   bands (ev):

   -26.2446   5.1995   5.5412   7.6387  10.4060  12.7749  14.4361  17.0161
    18.8362  20.9247  22.0264  23.0431  25.8252  27.6428

          k =-0.2500 0.5357 0.4381 (  2835 PWs)   bands (ev):

   -26.2499   3.1764   6.3831   8.9047  10.8398  13.5363  14.8377  17.2303
    19.8135  20.7430  22.1139  23.2916  23.5691  27.5194

          k =-0.2500 0.3929 0.2191 (  2833 PWs)   bands (ev):

   -26.2578   1.7297   6.4855  11.5091  12.3437  14.2382  15.3813  17.1538
    18.6150  19.8134  20.6115  22.8474  23.4866  27.0177

          k =-0.7500 0.1071 0.5476 (  2839 PWs)   bands (ev):

   -26.2456   4.9289   6.1426   7.6083   9.4856  11.7736  14.9752  17.4072
    19.4508  22.0637  23.7983  24.2195  26.3117  27.6200

          k =-0.7500-0.0357 0.3286 (  2848 PWs)   bands (ev):

   -26.2505   3.8479   6.7099   7.6307   9.0161  11.5896  17.6902  18.7445
    21.0774  22.8566  23.7254  24.0380  24.6836  27.1789

          k =-0.7500-0.1786 0.1095 (  2842 PWs)   bands (ev):

   -26.2554   3.1618   5.4193   8.4348  10.8309  12.5513  17.3868  19.0786
    21.5593  22.4742  23.3291  24.6761  25.0914  27.9493

          k =-0.7500 0.6786 1.4239 (  2842 PWs)   bands (ev):

   -26.2565   2.7375   5.1923   9.6424  11.7036  12.9336  17.2647  17.8770
    20.4207  21.3014  23.3321  23.6602  24.8378  28.1607

          k =-0.7500 0.5357 1.2048 (  2841 PWs)   bands (ev):

   -26.2532   2.6799   6.0161  10.0592  11.3218  12.9281  15.5748  17.8611
    19.7696  20.5915  22.1739  22.9007  24.1114  26.8795

          k =-0.7500 0.3929 0.9858 (  2835 PWs)   bands (ev):

   -26.2478   3.1905   7.5099   8.2737  10.7072  13.0848  16.1540  16.9912
    17.5904  18.3138  21.6579  23.7885  25.3394  27.9315

          k =-0.5000 0.2500 0.3834 (  2836 PWs)   bands (ev):

   -26.2519   2.7497   6.3504   9.5958  11.6909  12.5077  15.8025  17.6649
    18.8700  20.1609  21.8328  23.5025  24.5259  26.4694

          k =-0.5000 0.1071 0.1643 (  2844 PWs)   bands (ev):

   -26.2578   1.8686   6.8445   9.3094  12.3268  13.8328  17.0734  17.3965
    19.7267  20.3682  21.1385  22.8687  24.5403  26.5138

          k =-0.5000-0.0357-0.0548 (  2844 PWs)   bands (ev):

   -26.2593   1.6908   7.2203   8.5977  13.3138  13.8566  16.9820  18.6463
    19.1609  20.1312  20.2440  23.7988  25.2354  26.0114

          k =-0.5000-0.1786-0.2738 (  2841 PWs)   bands (ev):

   -26.2552   2.2219   6.5412  10.1433  11.0425  13.9888  15.7486  17.4432
    20.1086  20.3072  20.7118  23.2847  25.3125  26.5783

          k =-0.5000 0.6786 1.0405 (  2831 PWs)   bands (ev):

   -26.2486   3.4420   6.3211   8.5409  10.7484  13.9975  15.4231  16.9231
    19.1430  19.8474  21.3817  22.6444  24.6697  27.4895

          k =-0.5000 0.5357 0.8215 (  2845 PWs)   bands (ev):

   -26.2445   5.2498   6.2304   6.6396   9.2249  16.0394  16.7950  17.7198
    18.2669  18.9843  19.1221  19.6723  26.4156  29.2307

          k =-0.5000 0.3929 0.6024 (  2841 PWs)   bands (ev):

   -26.2459   4.2867   6.3941   7.4242   9.9098  14.5116  17.1458  17.7882
    17.8363  18.8770  19.4825  21.9722  26.2905  27.7056

          k = 0.5000-0.6429-0.2191 (  2835 PWs)   bands (ev):

   -26.2565   2.3310   5.2973  11.7755  12.5241  13.5493  15.7178  16.2728
    18.7678  20.8771  22.1061  23.2645  23.7452  27.0680

          k = 0.5000-0.7857-0.4381 (  2832 PWs)   bands (ev):

   -26.2502   2.9564   6.7814   8.9062  11.5030  12.2053  15.8272  17.8449
    18.2442  20.0607  21.9260  23.8416  25.2221  26.3003

          k = 0.5000-0.9286-0.6572 (  2835 PWs)   bands (ev):

   -26.2451   4.1211   6.2306   9.1622  10.9684  11.3129  14.1236  16.6646
    18.2358  20.9570  22.9639  24.1641  24.5791  28.2041

          k = 0.7500-0.6429-0.6024 (  2832 PWs)   bands (ev):

   -26.2466   3.4167   7.5818   8.2467  10.0529  14.3091  15.0066  15.8089
    17.4202  20.0560  21.0346  24.1614  24.3949  28.8336

          k = 0.7500-0.7857-0.8215 (  2834 PWs)   bands (ev):

   -26.2443   4.7117   6.0937   8.0823  10.4852  12.2951  14.1208  16.7174
    17.7987  20.6165  23.1145  24.5702  25.0978  28.6257

          k = 0.7500-0.9286-1.0405 (  2842 PWs)   bands (ev):

   -26.2466   4.6225   6.5978   7.5923   8.8491  11.8265  15.5859  17.3942
    20.9316  21.8000  24.0809  24.5456  25.0025  26.6359

          k = 0.7500-0.0714 0.2738 (  2850 PWs)   bands (ev):

   -26.2519   3.6443   6.3147   7.8046   9.5463  11.6236  18.0070  19.6324
    20.2618  22.8242  23.5479  24.8164  25.1999  26.1820

          k = 0.7500-0.2143 0.0548 (  2841 PWs)   bands (ev):

   -26.2561   3.0342   5.2498   8.7095  11.0896  12.9999  16.7968  19.1792
    21.3339  22.2450  23.7898  24.1900  24.9671  28.1645

          k = 0.7500-0.3571-0.1643 (  2843 PWs)   bands (ev):

   -26.2561   2.6779   5.3156   9.9581  11.6133  12.8475  17.1044  18.1637
    19.6455  20.9501  22.6315  24.3717  25.0196  26.9640

     the Fermi energy is    20.4227 ev

!    total energy              =     -47.11672818 Ry
     estimated scf accuracy    <          2.2E-09 Ry
     smearing contrib. (-TS)   =      -0.00031413 Ry
     internal energy E=F+TS    =     -47.11641404 Ry

     The total energy is F=E-TS. E is the sum of the following terms:
     one-electron contribution =      26.60565531 Ry
     hartree contribution      =       2.77812279 Ry
     xc contribution           =     -18.37821956 Ry
     ewald contribution        =     -58.12197258 Ry

     convergence has been achieved in   6 iterations

     Forces acting on atoms (cartesian axes, Ry/au):

     atom    1 type  1   force =     0.01967925   -0.03389324    0.00000000
     atom    2 type  1   force =    -0.01967925    0.03389324    0.00000000
     atom    3 type  1   force =     0.03389324    0.01967925    0.00000000
     atom    4 type  1   force =    -0.03389324   -0.01967925   -0.00000000
     atom    5 type  2   force =     0.00000000    0.00000000    0.00000000
     The non-local contrib.  to forces
     atom    1 type  1   force =    -0.00065502   -0.00127194   -0.00000000
     atom    2 type  1   force =     0.00065502    0.00127194   -0.00000000
     atom    3 type  1   force =     0.00127194   -0.00065502    0.00000000
     atom    4 type  1   force =    -0.00127194    0.00065502    0.00000000
     atom    5 type  2   force =     0.00000000   -0.00000000   -0.00000000
     The ionic contribution  to forces
     atom    1 type  1   force =     0.04485609   -0.11193766    0.00000000
     atom    2 type  1   force =    -0.04485609    0.11193766   -0.00000000
     atom    3 type  1   force =     0.11193766    0.04485609   -0.00000000
     atom    4 type  1   force =    -0.11193766   -0.04485609    0.00000000
     atom    5 type  2   force =    -0.00000000    0.00000000    0.00000000
     The local contribution  to forces
     atom    1 type  1   force =    -0.02343630    0.07767569    0.00000000
     atom    2 type  1   force =     0.02343630   -0.07767569   -0.00000000
     atom    3 type  1   force =    -0.07767569   -0.02343630   -0.00000000
     atom    4 type  1   force =     0.07767569    0.02343630   -0.00000000
     atom    5 type  2   force =     0.00000000    0.00000000    0.00000000
     The core correction contribution to forces
     atom    1 type  1   force =    -0.00108428    0.00162668   -0.00000000
     atom    2 type  1   force =     0.00108428   -0.00162668   -0.00000000
     atom    3 type  1   force =    -0.00162668   -0.00108428   -0.00000000
     atom    4 type  1   force =     0.00162668    0.00108428   -0.00000000
     atom    5 type  2   force =     0.00000000    0.00000000    0.00000000
     The Hubbard contrib.    to forces
     atom    1 type  1   force =     0.00000000    0.00000000    0.00000000
     atom    2 type  1   force =     0.00000000    0.00000000    0.00000000
     atom    3 type  1   force =     0.00000000    0.00000000    0.00000000
     atom    4 type  1   force =     0.00000000    0.00000000    0.00000000
     atom    5 type  2   force =     0.00000000    0.00000000    0.00000000
     The SCF correction term to forces
     atom    1 type  1   force =    -0.00000124    0.00001400   -0.00000000
     atom    2 type  1   force =     0.00000124   -0.00001400    0.00000000
     atom    3 type  1   force =    -0.00001400   -0.00000124   -0.00000000
     atom    4 type  1   force =     0.00001400    0.00000124    0.00000000
     atom    5 type  2   force =    -0.00000000   -0.00000000   -0.00000000

     Total force =     0.078384     Total SCF correction =     0.000028


     Computing stress (Cartesian axis) and pressure

          total   stress  (Ry/bohr**3)                   (kbar)     P=     2425.06
   0.01673113   0.00000000  -0.00000000         2461.23        0.00       -0.00
  -0.00000000   0.01673113   0.00000000           -0.00     2461.23        0.00
  -0.00000000   0.00000000   0.01599336           -0.00        0.00     2352.70


     BFGS Geometry Optimization
     Energy error            =      0.0E+00 Ry
     Gradient error          =      3.4E-02 Ry/Bohr
     Cell gradient error     =      2.0E+03 kbar

     number of scf cycles    =   1
     number of bfgs steps    =   0

     enthalpy           new  =     -46.3189202624 Ry

     new trust radius        =       0.5000000000 bohr
ibrav =      7
 celldm(1) =     10.42466100
 celldm(3) =      0.64707451
Input lattice vectors:
     0.58158908    -0.58158908     0.37633147
     0.58158908     0.58158908     0.37633147
    -0.58158908    -0.58158908     0.37633147
New lattice vectors in INITIAL alat:
     0.58158908    -0.58158908     0.37633147
     0.58158908     0.58158908     0.37633147
    -0.58158908    -0.58158908     0.37633147
New lattice vectors in NEW alat (for information only):
     0.50000000    -0.50000000     0.32353726
     0.50000000     0.50000000     0.32353726
    -0.50000000    -0.50000000     0.32353726
Discrepancy in bohr =     0.000000    0.000000    0.000000
     new conv_thr            =       0.0000000100 Ry

     new unit-cell volume =    366.53050 a.u.^3 (    54.31422 Ang^3 )
     density =      3.64682 g/cm^3

CELL_PARAMETERS (alat=  8.96222216)
   0.581589075  -0.581589075   0.376331466
   0.581589075   0.581589075   0.376331466
  -0.581589075  -0.581589075   0.376331466

ATOMIC_POSITIONS (crystal)
Si           -0.1930575140        0.7966525256        0.3964049884
Si            0.1930575140        1.2033474744       -0.3964049884
Si            0.5997524628        0.6035950116       -0.2033474744
Si           -0.5997524628        1.3964049884        0.2033474744
Li            0.0000000000        0.0000000000        0.0000000000



     Writing config-only to output data dir ./output/SiLi.save/
     NEW-OLD atomic charge density approx. for the potential
     extrapolated charge   25.83003, renormalised to   19.00000

     total cpu time spent up to now is       11.6 secs

     Self-consistent Calculation

     iteration #  1     ecut=    80.00 Ry     beta= 0.70
     Davidson diagonalization with overlap
     c_bands:  1 eigenvalues not converged
     c_bands:  1 eigenvalues not converged
     c_bands:  1 eigenvalues not converged
     c_bands:  1 eigenvalues not converged
     c_bands:  1 eigenvalues not converged
     c_bands:  1 eigenvalues not converged
     c_bands:  2 eigenvalues not converged
     c_bands:  1 eigenvalues not converged
     c_bands:  1 eigenvalues not converged
     c_bands:  1 eigenvalues not converged
     c_bands:  1 eigenvalues not converged
     c_bands:  1 eigenvalues not converged
     c_bands:  1 eigenvalues not converged
     c_bands:  1 eigenvalues not converged
     c_bands:  2 eigenvalues not converged
     c_bands:  1 eigenvalues not converged
     c_bands:  1 eigenvalues not converged
     c_bands:  1 eigenvalues not converged
     c_bands:  1 eigenvalues not converged
     c_bands:  1 eigenvalues not converged
     c_bands:  1 eigenvalues not converged
     c_bands:  1 eigenvalues not converged
     c_bands:  1 eigenvalues not converged
     c_bands:  1 eigenvalues not converged
     c_bands:  1 eigenvalues not converged
     c_bands:  1 eigenvalues not converged
     ethr =  1.00E-06,  avg # of iterations = 17.3

     total cpu time spent up to now is       15.9 secs

     total energy              =     -47.99205848 Ry
     estimated scf accuracy    <       0.01950307 Ry

     iteration #  2     ecut=    80.00 Ry     beta= 0.70
     Davidson diagonalization with overlap
     ethr =  1.03E-04,  avg # of iterations =  3.1

     total cpu time spent up to now is       17.2 secs

     total energy              =     -48.07749621 Ry
     estimated scf accuracy    <       0.02244521 Ry

     iteration #  3     ecut=    80.00 Ry     beta= 0.70
     Davidson diagonalization with overlap
     ethr =  1.03E-04,  avg # of iterations =  1.0

     total cpu time spent up to now is       18.1 secs

     total energy              =     -48.07277226 Ry
     estimated scf accuracy    <       0.00762910 Ry

     iteration #  4     ecut=    80.00 Ry     beta= 0.70
     Davidson diagonalization with overlap
     ethr =  4.02E-05,  avg # of iterations =  2.0

     total cpu time spent up to now is       19.1 secs

     total energy              =     -48.07371650 Ry
     estimated scf accuracy    <       0.00007596 Ry

     iteration #  5     ecut=    80.00 Ry     beta= 0.70
     Davidson diagonalization with overlap
     c_bands:  1 eigenvalues not converged
     ethr =  4.00E-07,  avg # of iterations =  5.4

     total cpu time spent up to now is       20.4 secs

     total energy              =     -48.07371216 Ry
     estimated scf accuracy    <       0.00009371 Ry

     iteration #  6     ecut=    80.00 Ry     beta= 0.70
     Davidson diagonalization with overlap
     ethr =  4.00E-07,  avg # of iterations =  2.0

     total cpu time spent up to now is       21.4 secs

     total energy              =     -48.07371973 Ry
     estimated scf accuracy    <       0.00000259 Ry

     iteration #  7     ecut=    80.00 Ry     beta= 0.70
     Davidson diagonalization with overlap
     ethr =  1.36E-08,  avg # of iterations =  2.6

     total cpu time spent up to now is       22.5 secs

     total energy              =     -48.07372040 Ry
     estimated scf accuracy    <       0.00000002 Ry

     iteration #  8     ecut=    80.00 Ry     beta= 0.70
     Davidson diagonalization with overlap
     ethr =  8.86E-11,  avg # of iterations =  4.9

     total cpu time spent up to now is       23.9 secs

     End of self-consistent calculation

          k = 0.0000 0.0000 0.0000 (  2829 PWs)   bands (ev):

   -33.1952  -2.9189   5.4090   6.1721   6.1721   7.0666  10.6935  11.0927
    11.0927  12.6774  13.1652  13.1652  13.6800  14.2251

          k =-0.1228 0.0000 0.1898 (  2829 PWs)   bands (ev):

   -33.1946  -2.6152   4.7638   5.5906   7.2908   7.9910   8.1395   9.3273
     9.7872  12.2163  13.6814  14.5933  15.1741  15.7840

          k =-0.2456 0.0000 0.3796 (  2818 PWs)   bands (ev):

   -33.1933  -1.7079   4.4064   4.4566   5.5574   7.1720   8.1964   9.3656
     9.7241  11.1997  13.3868  16.5243  16.9568  17.8180

          k =-0.3684 0.0000 0.5694 (  2836 PWs)   bands (ev):

   -33.1930  -0.2326   1.9966   4.6558   5.2132   5.7744   7.3110  10.1781
    10.4580  12.7223  14.2744  15.8977  16.9830  18.0731

          k =-0.0000 0.2149 0.3322 (  2825 PWs)   bands (ev):

   -33.1937  -1.9907   4.4558   4.9171   5.8977   7.6020   8.4979   8.9369
     9.3477  11.3566  13.3935  16.1414  16.4640  17.3057

          k =-0.1228 0.2149 0.5220 (  2820 PWs)   bands (ev):

   -33.1927  -0.9422   3.3675   4.2535   5.3546   6.8113   7.6875   8.6360
     9.9042  11.9313  13.8033  15.8849  17.7184  19.7353

          k =-0.2456 0.2149 0.7118 (  2832 PWs)   bands (ev):

   -33.1927   0.6242   1.5105   2.8700   5.3213   6.5126   8.0482   9.8811
    10.7416  13.2106  14.7513  14.9222  15.8333  17.7063

          k =-0.3684 0.2149 0.9016 (  2833 PWs)   bands (ev):

   -33.1931  -0.2860   1.6816   3.2430   5.7228   6.7386   8.3145  10.6795
    12.1577  13.4871  13.9036  14.0779  16.6995  17.3935

          k = 0.3684 0.2149-0.2373 (  2827 PWs)   bands (ev):

   -33.1939  -1.5828   1.6577   5.6561   6.1854   8.1066   8.3119  10.4743
    11.9354  12.2534  13.5985  14.1759  15.3963  17.3409

          k = 0.2456 0.2149-0.0475 (  2830 PWs)   bands (ev):

   -33.1946  -2.3128   2.1293   6.5226   6.9543   8.9008  10.0089  10.4125
    11.0090  11.7903  12.3006  13.6540  14.5963  15.8479

          k = 0.1228 0.2149 0.1424 (  2823 PWs)   bands (ev):

   -33.1944  -2.4502   3.1550   5.7259   7.4724   8.0578   9.4894   9.6392
    11.5090  12.0487  13.0115  13.3673  14.0956  15.9776

          k = 0.0000-0.4299-0.6643 (  2838 PWs)   bands (ev):

   -33.1929   0.4343   1.1917   4.8351   5.1342   5.5085   7.1868  10.1320
    10.5777  14.1876  14.2875  14.9046  16.1150  18.5605

          k =-0.1228-0.4299-0.4745 (  2835 PWs)   bands (ev):

   -33.1931  -0.4551   2.4049   3.2572   5.6241   6.2190   8.6628   9.6804
    11.4736  12.3859  15.0253  15.2333  16.7128  17.0507

          k =-0.2456-0.4299-0.2847 (  2836 PWs)   bands (ev):

   -33.1939  -1.1248   1.2918   5.0007   6.2043   7.2099   8.9473  10.0702
    12.3063  12.6843  14.1931  14.7746  15.7113  16.8778

          k =-0.3684-0.4299-0.0949 (  2844 PWs)   bands (ev):

   -33.1947  -1.3649   0.3725   6.8846   7.7175   8.1891   8.8898   9.2677
    10.6693  11.6960  14.4623  16.0028  16.3824  17.3429

          k = 0.2149-0.2149 0.0000 (  2830 PWs)   bands (ev):

   -33.1946  -2.4030   2.3355   6.6151   6.7492   9.2371  10.1334  10.3117
    11.0915  11.7160  12.1529  13.6463  14.5646  15.5801

          k = 0.0921-0.2149 0.1898 (  2827 PWs)   bands (ev):

   -33.1944  -2.3912   3.4821   5.5134   7.2592   7.8594   9.1181   9.6944
    10.6619  11.8563  13.3397  13.8248  14.6014  16.4564

          k =-0.0307-0.2149 0.3796 (  2821 PWs)   bands (ev):

   -33.1934  -1.7830   4.4942   4.7581   5.8129   6.9676   8.1555   9.1304
     9.3264  11.1908  13.5582  16.2246  17.1214  17.9690

          k =-0.1535-0.2149 0.5694 (  2823 PWs)   bands (ev):

   -33.1926  -0.5920   2.9176   3.8948   5.2130   6.9053   7.6116   8.8924
    10.1235  11.9481  14.4363  15.5103  17.2631  18.7602

          k = 0.5834-0.2149-0.5694 (  2831 PWs)   bands (ev):

   -33.1926   0.9115   1.1861   2.6614   5.5162   6.2984   8.2181  10.2632
    10.9961  13.8583  14.1821  14.4759  16.0474  17.8179

          k = 0.4606-0.2149-0.3796 (  2835 PWs)   bands (ev):

   -33.1934  -0.6603   1.6536   3.7948   6.0021   6.5797   8.7697  11.0792
    11.1809  13.0561  13.8549  15.5898  16.2698  16.8648

          k = 0.3377-0.2149-0.1898 (  2833 PWs)   bands (ev):

   -33.1943  -1.8202   1.7247   5.8690   6.8522   7.9713   9.0010   9.6515
    12.3633  12.5145  13.3349  13.4218  14.8821  16.8103

          k = 0.0921-0.0000 0.5220 (  2826 PWs)   bands (ev):

   -33.1930  -1.2393   4.2628   5.2477   5.5116   6.5841   6.8486   8.1622
     8.6276  10.9616  15.6512  17.0580  17.8279  19.4351

          k =-0.0307 0.0000 0.7118 (  2834 PWs)   bands (ev):

   -33.1927   0.0838   3.0084   3.5888   3.6660   6.1793   8.4132   9.3688
     9.4915  11.5262  17.8417  18.2969  18.6166  19.5904

          k =-0.1535 0.0000 0.9016 (  2844 PWs)   bands (ev):

   -33.1933   0.9033   1.9213   2.5029   3.2663   6.0011   9.2800  10.5683
    12.4678  13.6481  16.4440  16.8772  17.1820  18.1231

          k = 0.5834-0.0000-0.2373 (  2846 PWs)   bands (ev):

   -33.1941  -0.6799   2.0453   2.8581   4.6116   6.5581  10.5639  11.6318
    13.0845  14.3079  14.8615  15.9638  16.7904  17.4042

          k = 0.4606-0.0000-0.0475 (  2850 PWs)   bands (ev):

   -33.1949  -1.7110   2.2251   3.2640   6.8820   7.8311  10.7304  11.9202
    12.2250  12.4096  13.2867  14.7466  15.6205  17.0815

          k = 0.3377-0.0000 0.1424 (  2829 PWs)   bands (ev):

   -33.1944  -2.1494   3.0378   4.0208   7.1469   8.6970  10.1532  10.6757
    10.7752  11.8284  12.8091  14.9198  15.2151  15.9014

          k = 0.2149-0.6448-0.6643 (  2831 PWs)   bands (ev):

   -33.1926   0.2002   1.9801   3.1598   5.2346   6.6006   8.0177   9.5405
    10.2905  13.0280  14.4970  15.4890  15.8602  18.0449

          k = 0.0921-0.6448-0.4745 (  2839 PWs)   bands (ev):

   -33.1930   0.7195   1.6051   2.6858   4.2469   6.5303   8.0257  10.1795
    12.3751  13.8607  15.6676  16.4362  16.8303  17.4543

          k =-0.0307-0.6448-0.2847 (  2848 PWs)   bands (ev):

   -33.1939  -0.1271   1.9290   2.7490   3.8699   6.1594  10.3541  11.6675
    13.7445  14.5562  15.2492  15.9522  16.2965  17.4897

          k =-0.1535-0.6448-0.0949 (  2842 PWs)   bands (ev):

   -33.1944  -0.6234   0.8564   3.4015   5.1431   6.9980  10.8264  11.8195
    13.5884  14.5562  15.1089  16.1266  16.5651  17.3867

          k = 0.5834-0.6448-1.2337 (  2842 PWs)   bands (ev):

   -33.1945  -0.9510   0.6509   4.3675   5.8424   7.3190  10.7963  11.1628
    12.2722  13.1285  15.2547  15.6425  16.5272  17.1966

          k = 0.4606-0.6448-1.0439 (  2841 PWs)   bands (ev):

   -33.1940  -1.0453   1.3482   4.7854   5.6486   7.6105   8.3522  11.0610
    12.3094  12.7725  14.3996  14.8109  15.8918  16.4910

          k = 0.3377-0.6448-0.8541 (  2835 PWs)   bands (ev):

   -33.1931  -0.6806   2.5807   3.4096   5.2727   7.4510   9.0065   9.3177
    10.8389  12.5099  12.8022  15.5301  15.7426  18.3088

          k = 0.2149-0.4299-0.3322 (  2836 PWs)   bands (ev):

   -33.1937  -1.0018   1.6267   4.4365   5.8535   7.3220   8.4504  10.7348
    11.7644  12.7137  13.9692  15.2991  15.7444  16.5436

          k = 0.0921-0.4299-0.1424 (  2844 PWs)   bands (ev):

   -33.1946  -1.7144   2.0238   4.0674   6.5653   7.8736  10.3256  11.3412
    11.9648  12.2826  12.9803  14.7760  15.9394  16.8354

          k =-0.0307-0.4299 0.0475 (  2844 PWs)   bands (ev):

   -33.1948  -1.8585   2.3128   3.5055   7.2470   8.0033  10.7161  11.4183
    11.9096  12.3129  13.1696  14.5219  15.5413  16.6298

          k =-0.1535-0.4299 0.2373 (  2841 PWs)   bands (ev):

   -33.1942  -1.4279   1.7749   4.7124   5.7379   7.9013   9.0248  10.6607
    11.8642  13.5562  13.9420  14.1411  15.4753  17.4226

          k = 0.5834-0.4299-0.9016 (  2831 PWs)   bands (ev):

   -33.1931  -0.4436   1.5999   3.5509   5.7111   7.0575   9.4372  10.3837
    11.1619  12.2873  13.2265  15.0801  16.3622  17.4398

          k = 0.4606-0.4299-0.7118 (  2845 PWs)   bands (ev):

   -33.1929   1.0045   1.7086   1.9033   4.1441   9.3611  10.0562  10.5637
    11.1806  11.4150  11.9239  12.2498  15.7106  19.5959

          k = 0.3377-0.4299-0.5220 (  2841 PWs)   bands (ev):

   -33.1930   0.2343   1.6630   2.7020   4.7124   8.4037   9.4554  10.4902
    11.2317  11.9471  12.7636  13.0310  16.0750  18.3979

          k =-0.4299 0.4299-0.0000 (  2846 PWs)   bands (ev):

   -33.1949  -1.3845   0.2456   7.1801   7.9632   8.6918   8.8019   9.7951
     9.8454  10.8895  14.1129  17.0879  17.4565  17.4696

          k =-0.5527 0.4299 0.1898 (  2835 PWs)   bands (ev):

   -33.1942  -1.2887   0.7335   6.3061   6.5511   7.9070   8.5331  10.0042
    11.3278  13.1063  14.1110  15.2696  15.6750  16.7486

          k =-0.6755 0.4299 0.3796 (  2832 PWs)   bands (ev):

   -33.1934  -0.8496   1.9866   3.8799   5.6665   7.0905   8.5274  10.3623
    11.6545  13.1815  13.5545  15.4471  15.8088  16.9694

          k =-0.7983 0.4299 0.5694 (  2835 PWs)   bands (ev):

   -33.1929   0.0451   1.6995   4.0623   5.1962   6.1358   7.5258   9.7499
    11.0732  13.7268  14.4276  14.7343  16.7371  17.5807

          k =-0.5527 0.6448 0.5220 (  2832 PWs)   bands (ev):

   -33.1929  -0.5083   2.7645   3.2030   4.9872   7.5184   8.6480   9.5350
    10.8447  11.3069  13.9153  15.2142  16.0382  17.8656

          k =-0.6755 0.6448 0.7118 (  2834 PWs)   bands (ev):

   -33.1927   0.4922   1.6729   3.0031   5.6230   6.0339   7.7998   9.8210
    10.4569  13.4456  14.7909  15.5717  16.1014  18.1586

          k =-0.7983 0.6448 0.9016 (  2842 PWs)   bands (ev):

   -33.1932   0.4783   1.9486   2.6256   3.8339   6.3803   8.6422  10.4468
    12.7839  14.5014  15.4376  16.3045  16.6203  17.5596

          k =-0.0614 0.6448-0.2373 (  2850 PWs)   bands (ev):

   -33.1941  -0.2801   1.6151   2.8877   4.2291   6.2123  10.7698  12.2538
    13.0508  15.0044  15.4079  15.5274  16.4591  17.4431

          k =-0.1842 0.6448-0.0475 (  2841 PWs)   bands (ev):

   -33.1944  -0.7137   0.7071   3.6226   5.3444   7.3437  10.4250  12.0596
    13.3342  13.7306  15.8804  16.0518  16.5271  17.2814

          k =-0.3070 0.6448 0.1424 (  2843 PWs)   bands (ev):

   -33.1944  -1.0086   0.7547   4.6120   5.8718   7.2277  10.1325  11.4469
    12.1016  13.3941  14.5752  15.7295  16.0577  17.0118

          k =-0.5527 0.0000-0.4745 (  2838 PWs)   bands (ev):

   -33.1931   0.1279   1.9595   3.2041   4.2803   7.1511   7.6950   9.3901
    12.9857  14.3817  14.8149  15.2380  16.5186  17.6675

          k =-0.6755 0.0000-0.2847 (  2846 PWs)   bands (ev):

   -33.1938   0.0849   1.9353   2.5381   3.6744   5.9855  10.6572  11.7859
    13.7005  14.3808  15.5643  15.9204  16.4751  18.0811

          k =-0.7983 0.0000-0.0949 (  2844 PWs)   bands (ev):

   -33.1942   0.5050   1.2941   1.5265   3.9891   6.5965  10.5719  13.9411
    14.9909  15.5226  16.7385  16.9440  17.7013  17.8299

          k = 0.2149-0.1228-0.5220 (  2820 PWs)   bands (ev):

   -33.1927  -0.9423   3.3703   4.2373   5.3959   6.8287   7.4867   8.8291
    10.0561  11.5091  14.2323  15.6275  18.0416  19.1778

          k = 0.2149-0.2456-0.7118 (  2832 PWs)   bands (ev):

   -33.1926   0.6242   1.5109   2.8679   5.3510   6.4401   8.1233   9.9778
    10.5216  13.5977  14.3516  14.8783  15.9231  17.8509

          k = 0.2149-0.3684-0.9016 (  2833 PWs)   bands (ev):

   -33.1931  -0.2863   1.6841   3.2324   6.0285   6.2587   8.5986  10.9132
    11.7051  12.8590  13.8351  15.4824  16.5544  17.1653

          k = 0.2149 0.3684 0.2373 (  2827 PWs)   bands (ev):

   -33.1939  -1.5829   1.6599   5.5620   6.3400   7.6878   9.2720   9.5019
    12.1488  12.6138  13.6477  14.0982  15.1249  17.2148

          k = 0.2149 0.2456 0.0475 (  2830 PWs)   bands (ev):

   -33.1946  -2.3128   2.1301   6.4102   7.1251   8.8990   9.9178  10.1710
    11.3416  11.8127  12.2639  13.6569  14.5622  15.8630

          k = 0.2149 0.1228-0.1424 (  2823 PWs)   bands (ev):

   -33.1944  -2.4502   3.1515   5.7733   7.3413   8.0478   9.4891   9.9238
    11.3308  11.9440  13.1217  13.2719  14.1287  15.9466

          k =-0.4299-0.1228 0.4745 (  2835 PWs)   bands (ev):

   -33.1931  -0.4549   2.3977   3.2821   5.3740   6.6563   8.3528   9.5359
    11.6491  13.2370  13.9864  15.0065  16.4933  17.9367

          k =-0.4299-0.2456 0.2847 (  2836 PWs)   bands (ev):

   -33.1939  -1.1245   1.2900   5.0381   6.0651   7.5579   8.3907  10.6356
    12.1773  12.4237  14.3837  14.7197  16.0405  16.2862

          k =-0.4299-0.3684 0.0949 (  2844 PWs)   bands (ev):

   -33.1947  -1.3648   0.3722   6.9831   7.5237   8.1424   9.0925   9.3053
    10.5617  11.6947  14.4591  15.8960  16.5533  17.3588

          k =-0.2149 0.0921-0.1898 (  2827 PWs)   bands (ev):

   -33.1944  -2.3912   3.4868   5.4790   7.3318   7.8853   9.1716   9.4596
    10.6977  11.9516  13.3119  14.0303  14.4431  16.4889

          k =-0.2149-0.0307-0.3796 (  2821 PWs)   bands (ev):

   -33.1934  -1.7830   4.4576   4.8344   5.7091   7.1299   8.0965   8.8450
     9.5554  11.2674  13.4605  16.2080  17.2921  17.8788

          k =-0.2149-0.1535-0.5694 (  2823 PWs)   bands (ev):

   -33.1926  -0.5920   2.9176   3.8947   5.2187   6.7998   7.8540   8.7573
     9.9663  12.3376  13.9801  15.7976  17.0150  19.1476

          k =-0.2149 0.5834 0.5694 (  2831 PWs)   bands (ev):

   -33.1926   0.9127   1.1841   2.6653   5.4330   6.4619   8.0898  10.1058
    11.3986  13.2458  14.3745  14.7635  16.0863  17.5695

          k =-0.2149 0.4606 0.3796 (  2835 PWs)   bands (ev):

   -33.1934  -0.6599   1.6513   3.8103   5.7843   6.9986   8.3978  10.7968
    11.8252  13.1137  14.0142  14.7937  16.0372  17.0284

          k =-0.2149 0.3377 0.1898 (  2833 PWs)   bands (ev):

   -33.1943  -1.8200   1.7226   5.9616   6.7137   8.0767   8.5714  10.5002
    11.5813  12.5886  13.1048  13.7983  14.9760  16.9049

          k =-0.6448 0.0921 0.4745 (  2839 PWs)   bands (ev):

   -33.1930   0.7190   1.6074   2.6792   4.2639   6.4820   8.0699  10.2506
    12.1094  14.2644  15.3799  16.0600  17.4034  17.6662

          k =-0.6448-0.0307 0.2847 (  2848 PWs)   bands (ev):

   -33.1939  -0.1269   1.9265   2.7538   3.8671   6.1598  10.3642  11.6305
    13.7647  14.6705  15.5808  15.7063  15.8557  17.7209

          k =-0.6448-0.1535 0.0949 (  2842 PWs)   bands (ev):

   -33.1944  -0.6231   0.8548   3.4075   5.1353   6.9975  10.8307  11.8343
    13.7376  14.3265  15.0929  16.2671  16.3465  17.4280

          k =-0.6448 0.5834 1.2337 (  2842 PWs)   bands (ev):

   -33.1945  -0.9513   0.6523   4.3544   5.8633   7.3219  10.7972  11.1035
    12.1696  13.3322  15.3273  15.6977  16.3483  17.1937

          k =-0.6448 0.4606 1.0439 (  2841 PWs)   bands (ev):

   -33.1940  -1.0457   1.3504   4.7478   5.7285   7.3784   8.6889  10.7335
    12.1828  13.2479  14.3410  14.6473  15.7329  17.0428

          k =-0.6448 0.3377 0.8541 (  2835 PWs)   bands (ev):

   -33.1931  -0.6807   2.5863   3.3909   5.3560   7.1457   9.2770   9.7611
    10.6953  11.3276  13.8144  15.2339  16.1913  17.8759

          k =-0.4299 0.2149 0.3322 (  2836 PWs)   bands (ev):

   -33.1937  -1.0021   1.6290   4.4102   6.0183   6.9325   8.9606  10.4679
    11.4756  12.9942  13.9211  15.5167  15.6180  16.8948

          k =-0.4299 0.0921 0.1424 (  2844 PWs)   bands (ev):

   -33.1946  -1.7145   2.0295   4.0447   6.5909   7.9434  10.2332  10.9436
    12.1078  12.4048  13.4790  14.5565  15.8498  16.8165

          k =-0.4299-0.0307-0.0475 (  2844 PWs)   bands (ev):

   -33.1948  -1.8584   2.3082   3.5157   7.2202   7.9968  10.8107  11.6258
    11.9153  12.0063  13.1544  14.4582  15.4786  16.9445

          k =-0.4299-0.1535-0.2373 (  2841 PWs)   bands (ev):

   -33.1942  -1.4277   1.7710   4.7539   5.6863   7.9635   8.8320  10.9900
    12.1532  12.7974  13.5666  14.5785  15.9181  17.3406

          k =-0.4299 0.5834 0.9016 (  2831 PWs)   bands (ev):

   -33.1931  -0.4434   1.5985   3.5601   5.6184   7.3534   8.8714  10.5849
    11.4189  12.3448  13.5520  14.2378  16.5083  17.3876

          k =-0.4299 0.4606 0.7118 (  2845 PWs)   bands (ev):

   -33.1929   1.0046   1.7081   1.9039   4.1438   9.4108   9.9657  10.5338
    11.1923  11.6355  11.8106  12.1974  15.7149  19.5955

          k =-0.4299 0.3377 0.5220 (  2841 PWs)   bands (ev):

   -33.1930   0.2341   1.6639   2.6991   4.7227   8.2214  10.0031  10.3740
    11.0187  11.6928  12.4783  13.6400  15.9724  18.4059

          k = 0.4299-0.5527-0.1898 (  2835 PWs)   bands (ev):

   -33.1942  -1.2888   0.7344   6.1725   6.7244   7.7888   8.9800   9.3810
    11.6321  13.1331  14.2109  15.1340  15.4608  16.8414

          k = 0.4299-0.6755-0.3796 (  2832 PWs)   bands (ev):

   -33.1934  -0.8498   1.9898   3.8582   5.8611   6.6749   8.9798  10.6796
    10.8804  12.8396  14.1891  15.3851  16.2896  16.9762

          k = 0.4299-0.7983-0.5694 (  2835 PWs)   bands (ev):

   -33.1929   0.0451   1.7001   4.0301   5.4716   5.7798   7.6537   9.8321
    11.0130  13.1508  14.8402  15.3705  16.2041  17.5420

          k = 0.6448-0.5527-0.5220 (  2832 PWs)   bands (ev):

   -33.1929  -0.5082   2.7561   3.2204   4.9491   7.7220   8.6432   9.1652
    10.5296  12.6359  12.9121  15.5253  15.6805  18.2463

          k = 0.6448-0.6755-0.7118 (  2834 PWs)   bands (ev):

   -33.1927   0.4922   1.6725   3.0056   5.5410   6.1578   7.7333   9.7470
    10.6276  13.1895  15.1607  15.5240  16.0252  17.9863

          k = 0.6448-0.7983-0.9016 (  2842 PWs)   bands (ev):

   -33.1932   0.4786   1.9449   2.6336   3.8244   6.3970   8.6307  10.3937
    13.0179  14.1679  15.7905  16.2851  16.5389  17.1197

          k = 0.6448-0.0614 0.2373 (  2850 PWs)   bands (ev):

   -33.1941  -0.2804   1.6180   2.8814   4.2335   6.2129  10.7542  12.3078
    13.0579  14.6961  15.0793  16.4334  16.7043  16.9716

          k = 0.6448-0.1842 0.0475 (  2841 PWs)   bands (ev):

   -33.1944  -0.7139   0.7079   3.6188   5.3500   7.3438  10.4220  12.0546
    13.2045  13.8781  15.9181  16.1169  16.4885  17.3721

          k = 0.6448-0.3070-0.1424 (  2843 PWs)   bands (ev):

   -33.1944  -1.0082   0.7529   4.6345   5.8415   7.2158  10.1387  11.7591
    11.9566  13.1240  14.4982  15.7730  16.3294  16.9781

     the Fermi energy is    12.8659 ev

!    total energy              =     -48.07372043 Ry
     estimated scf accuracy    <          3.1E-09 Ry
     smearing contrib. (-TS)   =      -0.00007437 Ry
     internal energy E=F+TS    =     -48.07364606 Ry

     The total energy is F=E-TS. E is the sum of the following terms:
     one-electron contribution =      15.70246836 Ry
     hartree contribution      =       2.98159881 Ry
     xc contribution           =     -16.65406846 Ry
     ewald contribution        =     -50.10364478 Ry

     convergence has been achieved in   8 iterations

     Forces acting on atoms (cartesian axes, Ry/au):

     atom    1 type  1   force =     0.00539640   -0.00224486    0.00000000
     atom    2 type  1   force =    -0.00539640    0.00224486   -0.00000000
     atom    3 type  1   force =     0.00224486    0.00539640    0.00000000
     atom    4 type  1   force =    -0.00224486   -0.00539640   -0.00000000
     atom    5 type  2   force =     0.00000000   -0.00000000   -0.00000000
     The non-local contrib.  to forces
     atom    1 type  1   force =    -0.00892908   -0.00126744   -0.00000000
     atom    2 type  1   force =     0.00892908    0.00126744   -0.00000000
     atom    3 type  1   force =     0.00126744   -0.00892908   -0.00000000
     atom    4 type  1   force =    -0.00126744    0.00892908    0.00000000
     atom    5 type  2   force =     0.00000000    0.00000000    0.00000000
     The ionic contribution  to forces
     atom    1 type  1   force =     0.00978572   -0.02686186   -0.00000000
     atom    2 type  1   force =    -0.00978572    0.02686186   -0.00000000
     atom    3 type  1   force =     0.02686186    0.00978572    0.00000000
     atom    4 type  1   force =    -0.02686186   -0.00978572   -0.00000000
     atom    5 type  2   force =     0.00000000    0.00000000    0.00000000
     The local contribution  to forces
     atom    1 type  1   force =     0.00402183    0.02574100    0.00000000
     atom    2 type  1   force =    -0.00402183   -0.02574100    0.00000000
     atom    3 type  1   force =    -0.02574100    0.00402183   -0.00000000
     atom    4 type  1   force =     0.02574100   -0.00402183    0.00000000
     atom    5 type  2   force =     0.00000000    0.00000000    0.00000000
     The core correction contribution to forces
     atom    1 type  1   force =     0.00052076    0.00014517    0.00000000
     atom    2 type  1   force =    -0.00052076   -0.00014517    0.00000000
     atom    3 type  1   force =    -0.00014517    0.00052076    0.00000000
     atom    4 type  1   force =     0.00014517   -0.00052076   -0.00000000
     atom    5 type  2   force =     0.00000000    0.00000000    0.00000000
     The Hubbard contrib.    to forces
     atom    1 type  1   force =     0.00000000    0.00000000    0.00000000
     atom    2 type  1   force =     0.00000000    0.00000000    0.00000000
     atom    3 type  1   force =     0.00000000    0.00000000    0.00000000
     atom    4 type  1   force =     0.00000000    0.00000000    0.00000000
     atom    5 type  2   force =     0.00000000    0.00000000    0.00000000
     The SCF correction term to forces
     atom    1 type  1   force =    -0.00000283   -0.00000173    0.00000000
     atom    2 type  1   force =     0.00000283    0.00000173   -0.00000000
     atom    3 type  1   force =     0.00000173   -0.00000283   -0.00000000
     atom    4 type  1   force =    -0.00000173    0.00000283    0.00000000
     atom    5 type  2   force =     0.00000000   -0.00000000   -0.00000000

     Total force =     0.011689     Total SCF correction =     0.000007


     Computing stress (Cartesian axis) and pressure

          total   stress  (Ry/bohr**3)                   (kbar)     P=      325.86
   0.00235989  -0.00000000  -0.00000000          347.15       -0.00       -0.00
   0.00000000   0.00235989   0.00000000            0.00      347.15        0.00
  -0.00000000   0.00000000   0.00192563           -0.00        0.00      283.27

     Energy error            =      5.1E-01 Ry
     Gradient error          =      5.4E-03 Ry/Bohr
     Cell gradient error     =      2.2E+02 kbar

     number of scf cycles    =   2
     number of bfgs steps    =   1

     enthalpy           old  =     -46.3189202624 Ry
     enthalpy           new  =     -46.8279085777 Ry

     CASE: enthalpy          _new < enthalpy          _old

     new trust radius        =       0.0894847162 bohr
ibrav =      7
 celldm(1) =     10.31176325
 celldm(3) =      0.63887109
Input lattice vectors:
     0.57529054    -0.57529054     0.36753650
     0.57529054     0.57529054     0.36753650
    -0.57529054    -0.57529054     0.36753650
New lattice vectors in INITIAL alat:
     0.57529054    -0.57529054     0.36753650
     0.57529054     0.57529054     0.36753650
    -0.57529054    -0.57529054     0.36753650
New lattice vectors in NEW alat (for information only):
     0.50000000    -0.50000000     0.31943555
     0.50000000     0.50000000     0.31943555
    -0.50000000    -0.50000000     0.31943555
Discrepancy in bohr =     0.000000    0.000000    0.000000
     new conv_thr            =       0.0000000005 Ry

     new unit-cell volume =    350.25314 a.u.^3 (    51.90216 Ang^3 )
     density =      3.81630 g/cm^3

CELL_PARAMETERS (alat=  8.96222216)
   0.575290540  -0.575290540   0.367536497
   0.575290540   0.575290540   0.367536497
  -0.575290540  -0.575290540   0.367536497

ATOMIC_POSITIONS (crystal)
Si           -0.1918403944        0.7961823973        0.3956579971
Si            0.1918403944        1.2038176027       -0.3956579971
Si            0.5994755999        0.6043420029       -0.2038176027
Si           -0.5994755999        1.3956579971        0.2038176027
Li            0.0000000000       -0.0000000000       -0.0000000000



     Writing config-only to output data dir ./output/SiLi.save/
     NEW-OLD atomic charge density approx. for the potential
     extrapolated charge   18.11734, renormalised to   19.00000

     total cpu time spent up to now is       25.9 secs

     Self-consistent Calculation

     iteration #  1     ecut=    80.00 Ry     beta= 0.70
     Davidson diagonalization with overlap
     c_bands:  1 eigenvalues not converged
     ethr =  1.00E-06,  avg # of iterations =  9.8

     total cpu time spent up to now is       28.3 secs

     total energy              =     -48.03199954 Ry
     estimated scf accuracy    <       0.00052703 Ry

     iteration #  2     ecut=    80.00 Ry     beta= 0.70
     Davidson diagonalization with overlap
     ethr =  2.77E-06,  avg # of iterations =  3.2

     total cpu time spent up to now is       29.6 secs

     total energy              =     -48.03347538 Ry
     estimated scf accuracy    <       0.00042224 Ry

     iteration #  3     ecut=    80.00 Ry     beta= 0.70
     Davidson diagonalization with overlap
     ethr =  2.22E-06,  avg # of iterations =  1.0

     total cpu time spent up to now is       30.4 secs

     total energy              =     -48.03346381 Ry
     estimated scf accuracy    <       0.00008257 Ry

     iteration #  4     ecut=    80.00 Ry     beta= 0.70
     Davidson diagonalization with overlap
     ethr =  4.35E-07,  avg # of iterations =  2.0

     total cpu time spent up to now is       31.2 secs

     total energy              =     -48.03345716 Ry
     estimated scf accuracy    <       0.00001872 Ry

     iteration #  5     ecut=    80.00 Ry     beta= 0.70
     Davidson diagonalization with overlap
     ethr =  9.85E-08,  avg # of iterations =  2.1

     total cpu time spent up to now is       32.1 secs

     total energy              =     -48.03346017 Ry
     estimated scf accuracy    <       0.00000032 Ry

     iteration #  6     ecut=    80.00 Ry     beta= 0.70
     Davidson diagonalization with overlap
     ethr =  1.69E-09,  avg # of iterations =  3.7

     total cpu time spent up to now is       33.3 secs

     total energy              =     -48.03346032 Ry
     estimated scf accuracy    <          4.3E-09 Ry

     iteration #  7     ecut=    80.00 Ry     beta= 0.70
     Davidson diagonalization with overlap
     ethr =  2.26E-11,  avg # of iterations =  4.2

     total cpu time spent up to now is       34.5 secs

     End of self-consistent calculation

          k = 0.0000 0.0000 0.0000 (  2829 PWs)   bands (ev):

   -32.5358  -2.6546   5.8053   6.6033   6.6033   7.5305  11.4132  11.7990
    11.7990  13.6854  14.0588  14.0588  14.3766  14.8777

          k =-0.1242 0.0000 0.1943 (  2829 PWs)   bands (ev):

   -32.5351  -2.3394   5.1625   6.0329   7.7354   8.4602   8.8205   9.9894
    10.4717  12.8185  14.4064  15.4256  16.0574  16.6471

          k =-0.2483 0.0000 0.3887 (  2818 PWs)   bands (ev):

   -32.5335  -1.3976   4.8324   4.9649   6.0147   7.7556   8.7768   9.8617
    10.2970  11.7479  14.0583  17.2092  17.7978  18.8655

          k =-0.3725 0.0000 0.5830 (  2836 PWs)   bands (ev):

   -32.5327   0.1357   2.4425   5.1125   5.6557   6.2838   7.8351  10.7221
    11.0323  13.3292  14.9400  16.5963  17.6718  18.8521

          k =-0.0000 0.2173 0.3401 (  2825 PWs)   bands (ev):

   -32.5340  -1.6911   4.8630   5.4149   6.3984   8.2077   9.0834   9.4212
     9.9206  11.9155  14.0671  16.8412  17.3562  18.2723

          k =-0.1242 0.2173 0.5344 (  2820 PWs)   bands (ev):

   -32.5327  -0.5962   3.8495   4.7342   5.7739   7.3663   8.2243   9.1453
    10.4519  12.4759  14.4803  16.5827  18.4743  20.6074

          k =-0.2483 0.2173 0.7288 (  2832 PWs)   bands (ev):

   -32.5324   1.0369   1.9149   3.3069   5.7455   7.0525   8.5544  10.4542
    11.3230  13.8204  15.3795  15.6170  16.5509  18.5299

          k =-0.3725 0.2173 0.9231 (  2833 PWs)   bands (ev):

   -32.5331   0.0538   2.0796   3.7347   6.1334   7.3231   8.8017  11.2580
    12.8024  14.0832  14.6022  14.7477  17.4364  18.4095

          k = 0.3725 0.2173-0.2429 (  2827 PWs)   bands (ev):

   -32.5343  -1.2875   2.0221   6.1808   6.6768   8.6669   8.8602  11.0063
    12.4598  13.0069  14.2706  15.1287  16.2667  18.2734

          k = 0.2483 0.2173-0.0486 (  2830 PWs)   bands (ev):

   -32.5352  -2.0388   2.4900   6.9585   7.3932   9.5868  10.6741  10.9483
    11.6883  12.4930  13.0561  14.4206  15.4909  16.6124

          k = 0.1242 0.2173 0.1458 (  2823 PWs)   bands (ev):

   -32.5350  -2.1748   3.5341   6.1604   7.9149   8.7418  10.1134  10.1366
    12.2313  12.7058  13.7539  14.1622  14.9317  16.8574

          k = 0.0000-0.4346-0.6802 (  2838 PWs)   bands (ev):

   -32.5326   0.8345   1.6007   5.3382   5.5406   6.0062   7.7013  10.6707
    11.1657  14.8069  14.9751  15.5772  16.7982  19.3852

          k =-0.1242-0.4346-0.4859 (  2835 PWs)   bands (ev):

   -32.5330  -0.1086   2.8643   3.6850   6.0942   6.7031   9.2351  10.2325
    12.0951  12.9572  15.6473  15.9126  17.5256  17.8360

          k =-0.2483-0.4346-0.2915 (  2836 PWs)   bands (ev):

   -32.5341  -0.8183   1.6560   5.5554   6.6583   7.7426   9.4833  10.6107
    13.0038  13.2657  14.8988  15.8005  16.3952  17.7828

          k =-0.3725-0.4346-0.0972 (  2844 PWs)   bands (ev):

   -32.5351  -1.0797   0.7115   7.3144   8.2867   8.7628   9.3834   9.9238
    11.2871  12.5879  15.2292  16.8069  17.2159  18.1940

          k = 0.2173-0.2173 0.0000 (  2830 PWs)   bands (ev):

   -32.5353  -2.1309   2.6989   7.0487   7.1893   9.9252  10.6512  10.9908
    11.8008  12.5578  12.7496  14.4026  15.4681  16.3244

          k = 0.0931-0.2173 0.1943 (  2827 PWs)   bands (ev):

   -32.5349  -2.1119   3.8691   5.9492   7.8200   8.3807   9.7838  10.2155
    11.2962  12.4986  14.0351  14.6027  15.5455  17.3781

          k =-0.0310-0.2173 0.3887 (  2821 PWs)   bands (ev):

   -32.5336  -1.4740   4.9358   5.2579   6.2803   7.5285   8.7471   9.6690
     9.8541  11.7324  14.2300  16.9193  17.9516  19.0238

          k =-0.1552-0.2173 0.5830 (  2823 PWs)   bands (ev):

   -32.5325  -0.2309   3.3805   4.3739   5.6274   7.4928   8.0744   9.4502
    10.6751  12.4916  15.1465  16.1597  18.0307  19.5698

          k = 0.5898-0.2173-0.5830 (  2831 PWs)   bands (ev):

   -32.5324   1.3141   1.5993   3.0857   5.9598   6.8025   8.7489  10.8601
    11.5698  14.5205  14.8027  15.0962  16.8262  18.6264

          k = 0.4656-0.2173-0.3887 (  2835 PWs)   bands (ev):

   -32.5335  -0.3338   2.0384   4.3092   6.4550   7.0892   9.3033  11.6495
    11.8389  13.6622  14.4575  16.3771  17.2386  17.7262

          k = 0.3414-0.2173-0.1943 (  2833 PWs)   bands (ev):

   -32.5347  -1.5324   2.0858   6.3274   7.4370   8.5186   9.5326  10.1988
    12.9576  13.2448  13.9953  14.3829  15.6931  17.7251

          k = 0.0931 0.0000 0.5344 (  2826 PWs)   bands (ev):

   -32.5329  -0.8986   4.7590   5.7623   6.0006   7.0712   7.3429   8.6855
     9.1448  11.5082  16.3577  17.7747  18.5646  20.1525

          k =-0.0310 0.0000 0.7288 (  2834 PWs)   bands (ev):

   -32.5324   0.4868   3.4418   4.0274   4.1065   6.6305   8.9671   9.9410
    10.0648  12.1102  18.6301  19.0820  19.4109  20.2692

          k =-0.1552 0.0000 0.9231 (  2844 PWs)   bands (ev):

   -32.5331   1.2688   2.3930   2.8870   3.6760   6.4391   9.8969  11.2055
    13.1343  14.3241  17.3846  17.7053  17.8781  18.8471

          k = 0.5898-0.0000-0.2429 (  2846 PWs)   bands (ev):

   -32.5343  -0.3685   2.3988   3.2661   5.1474   7.0187  11.2545  12.3323
    13.9361  14.9721  15.5253  16.7113  17.5776  18.1473

          k = 0.4656-0.0000-0.0486 (  2850 PWs)   bands (ev):

   -32.5353  -1.4269   2.5729   3.6630   7.3782   8.4599  11.4578  12.6263
    12.8828  13.0292  14.0063  15.7392  16.4951  17.7122

          k = 0.3414-0.0000 0.1458 (  2829 PWs)   bands (ev):

   -32.5349  -1.8690   3.4043   4.4390   7.7600   9.1717  10.7363  11.2567
    11.4200  12.6207  13.6274  15.6211  16.1614  16.7979

          k = 0.2173-0.6518-0.6802 (  2831 PWs)   bands (ev):

   -32.5324   0.5951   2.4035   3.6107   5.6564   7.1390   8.5330  10.1031
    10.8478  13.6152  15.1824  16.1746  16.5554  18.8740

          k = 0.0931-0.6518-0.4859 (  2839 PWs)   bands (ev):

   -32.5329   1.0899   2.0523   3.0976   4.6679   6.9818   8.6078  10.7895
    13.0299  14.5159  16.3656  17.0711  17.5857  18.4346

          k =-0.0310-0.6518-0.2915 (  2848 PWs)   bands (ev):

   -32.5340   0.1984   2.2890   3.1607   4.3782   6.6085  11.0264  12.3640
    14.6469  15.2940  15.9218  16.7120  16.9778  18.1764

          k =-0.1552-0.6518-0.0972 (  2842 PWs)   bands (ev):

   -32.5347  -0.3228   1.1944   3.7793   5.6297   7.5959  11.6388  12.5391
    14.2170  15.2994  15.9084  16.9144  17.2644  18.3093

          k = 0.5898-0.6518-1.2632 (  2842 PWs)   bands (ev):

   -32.5349  -0.6572   0.9900   4.7618   6.3467   7.9108  11.5464  11.9126
    12.8651  13.8167  16.0560  16.4289  17.3503  18.0165

          k = 0.4656-0.6518-1.0689 (  2841 PWs)   bands (ev):

   -32.5342  -0.7374   1.7132   5.3414   6.0718   8.1383   8.9225  11.5937
    13.0128  13.3652  15.1761  15.6969  16.6692  17.3660

          k = 0.3414-0.6518-0.8745 (  2835 PWs)   bands (ev):

   -32.5330  -0.3386   3.0066   3.8968   5.7243   8.0054   9.5486   9.8228
    11.4211  13.1187  13.4228  16.2536  16.4264  19.1836

          k = 0.2173-0.4346-0.3401 (  2836 PWs)   bands (ev):

   -32.5338  -0.6872   2.0027   4.9848   6.2660   7.9283   8.9331  11.2599
    12.4731  13.2712  14.6792  16.1531  16.4973  17.5105

          k = 0.0931-0.4346-0.1458 (  2844 PWs)   bands (ev):

   -32.5350  -1.4272   2.3818   4.4768   7.1546   8.3607  11.0370  11.9010
    12.7016  12.9771  13.6648  15.6505  16.7991  17.7059

          k =-0.0310-0.4346 0.0486 (  2844 PWs)   bands (ev):

   -32.5353  -1.5768   2.6645   3.9071   7.7572   8.6250  11.3159  12.2149
    12.5859  12.9376  13.8881  15.5092  16.4011  17.3070

          k =-0.1552-0.4346 0.2429 (  2841 PWs)   bands (ev):

   -32.5345  -1.1298   2.1393   5.1649   6.2883   8.3797   9.6450  11.1976
    12.5759  14.2580  14.7705  14.8697  16.2100  18.4228

          k = 0.5898-0.4346-0.9231 (  2831 PWs)   bands (ev):

   -32.5331  -0.1071   1.9922   4.0538   6.2100   7.5258   9.9719  10.9545
    11.8011  12.8533  13.8266  15.8904  17.0657  18.3775

          k = 0.4656-0.4346-0.7288 (  2845 PWs)   bands (ev):

   -32.5326   1.3997   2.1401   2.3368   4.5649   9.8995  10.6378  11.1773
    11.8039  11.9620  12.4241  12.8682  16.5522  20.3769

          k = 0.3414-0.4346-0.5344 (  2841 PWs)   bands (ev):

   -32.5328   0.5978   2.0772   3.1691   5.1626   8.9369   9.9907  11.0335
    11.8530  12.5151  13.3718  13.6935  16.8966  19.1523

          k =-0.4346 0.4346-0.0000 (  2846 PWs)   bands (ev):

   -32.5354  -1.1023   0.5818   7.5987   8.4095   9.3303   9.3712  10.4439
    10.5125  11.7483  14.8661  17.9067  18.2017  18.3472

          k =-0.5587 0.4346 0.1943 (  2835 PWs)   bands (ev):

   -32.5346  -0.9952   1.0816   6.8705   7.0224   8.4023   9.1557  10.5349
    11.8911  14.0247  14.8726  16.0485  16.5610  17.5900

          k =-0.6829 0.4346 0.3887 (  2832 PWs)   bands (ev):

   -32.5334  -0.5256   2.3775   4.4018   6.0761   7.6992   9.0037  10.9151
    12.3218  13.7342  14.2545  16.2005  16.5362  18.0636

          k =-0.8070 0.4346 0.5830 (  2835 PWs)   bands (ev):

   -32.5326   0.4194   2.1386   4.5172   5.6006   6.7000   8.0266  10.2842
    11.6734  14.3777  15.0583  15.4079  17.4566  18.3291

          k =-0.5587 0.6518 0.5344 (  2832 PWs)   bands (ev):

   -32.5328  -0.1548   3.2245   3.6537   5.4408   8.0181   9.2223  10.1067
    11.3903  11.8568  14.5506  15.8914  16.7907  18.6895

          k =-0.6829 0.6518 0.7288 (  2834 PWs)   bands (ev):

   -32.5325   0.9025   2.0807   3.4384   6.0345   6.5688   8.3232  10.4006
    11.0216  14.0508  15.4923  16.2301  16.8201  18.9876

          k =-0.8070 0.6518 0.9231 (  2842 PWs)   bands (ev):

   -32.5331   0.8344   2.3981   3.0398   4.2533   6.8187   9.2507  11.0825
    13.4392  15.2029  16.0883  16.9827  17.7153  18.2674

          k =-0.0621 0.6518-0.2429 (  2850 PWs)   bands (ev):

   -32.5342   0.0376   1.9689   3.2796   4.7552   6.6812  11.4661  12.9809
    13.9319  15.7131  16.0978  16.1664  17.2365  18.3036

          k =-0.1862 0.6518-0.0486 (  2841 PWs)   bands (ev):

   -32.5348  -0.4168   1.0432   4.0016   5.8185   7.9778  11.2169  12.7824
    13.9322  14.4926  16.6696  16.7912  17.3374  18.1441

          k =-0.3104 0.6518 0.1458 (  2843 PWs)   bands (ev):

   -32.5348  -0.7132   1.0976   5.0167   6.4220   7.7502  10.8288  12.0112
    12.9619  14.0638  15.3569  16.4317  16.8678  17.9290

          k =-0.5587 0.0000-0.4859 (  2838 PWs)   bands (ev):

   -32.5329   0.4864   2.4250   3.6093   4.7103   7.5986   8.2842   9.9846
    13.6227  15.0837  15.4394  15.9276  17.2262  18.6597

          k =-0.6829 0.0000-0.2915 (  2846 PWs)   bands (ev):

   -32.5339   0.4142   2.2909   2.9428   4.1825   6.4369  11.3359  12.4840
    14.6357  15.1165  16.3070  16.5707  17.1572  18.8113

          k =-0.8070-0.0000-0.0972 (  2844 PWs)   bands (ev):

   -32.5345   0.8297   1.6245   1.8670   4.4613   7.1986  11.3981  14.6913
    15.7951  16.3402  17.5166  17.7147  18.4698  18.6844

          k = 0.2173-0.1242-0.5344 (  2820 PWs)   bands (ev):

   -32.5327  -0.5962   3.8533   4.7093   5.8334   7.3776   7.9846   9.3890
    10.6054  12.0354  14.9300  16.2876  18.8510  19.9691

          k = 0.2173-0.2483-0.7288 (  2832 PWs)   bands (ev):

   -32.5324   1.0368   1.9157   3.3033   5.7833   6.9598   8.6493  10.5599
    11.0810  14.2095  15.0253  15.5219  16.6549  18.6785

          k = 0.2173-0.3725-0.9231 (  2833 PWs)   bands (ev):

   -32.5331   0.0535   2.0821   3.7192   6.4821   6.7590   9.1326  11.5542
    12.2972  13.4836  14.3851  16.3181  17.2656  18.1626

          k = 0.2173 0.3725 0.2429 (  2827 PWs)   bands (ev):

   -32.5343  -1.2877   2.0240   6.0703   6.8614   8.2380   9.7778  10.0580
    12.8695  13.1887  14.3252  15.1006  15.8646  18.1941

          k = 0.2173 0.2483 0.0486 (  2830 PWs)   bands (ev):

[...]

          k = 0.0937 0.0000 0.5425 (  4141 PWs)   bands (ev):

   -32.1303  -0.6789   5.0817   6.0749   6.3046   7.3676   7.6558   9.0059
     9.4587  11.8502  16.7812  18.2030  19.0014  20.5746

          k =-0.0312 0.0000 0.7397 (  4126 PWs)   bands (ev):

   -32.1297   0.7459   3.7317   4.2931   4.3780   6.9053   9.3005  10.2941
    10.4174  12.4820  19.1030  19.5529  19.8840  20.6658

          k =-0.1562-0.0000 0.9370 (  4111 PWs)   bands (ev):

   -32.1303   1.5047   2.6952   3.1176   3.9373   6.7051  10.2749  11.6042
    13.5419  14.7515  17.8731  18.2506  18.3605  19.2859

          k = 0.5934 0.0000-0.2466 (  4116 PWs)   bands (ev):

   -32.1318  -0.1676   2.6091   3.5224   5.4868   7.3050  11.6812  12.7727
    14.4586  15.3963  15.9297  17.1724  18.0604  18.5839

          k = 0.4685 0.0000-0.0493 (  4112 PWs)   bands (ev):

   -32.1329  -1.2437   2.7786   3.9134   7.6693   8.8744  11.8992  13.0723
    13.2652  13.4401  14.4731  16.3639  17.0231  18.0922

          k = 0.3436 0.0000 0.1479 (  4128 PWs)   bands (ev):

   -32.1329  -1.6881   3.6209   4.6996   8.1518   9.4621  11.0813  11.5980
    11.8475  13.1092  14.1651  16.0486  16.7382  17.3469

          k = 0.2186-0.6559-0.6904 (  4120 PWs)   bands (ev):

   -32.1297   0.8483   2.6803   3.8869   5.9153   7.4789   8.8466  10.4489
    11.1896  13.9736  15.5839  16.6091  16.9740  19.3735

          k = 0.0937-0.6559-0.4932 (  4118 PWs)   bands (ev):

   -32.1301   1.3284   2.3370   3.3517   4.9339   7.2559   8.9661  11.1686
    13.4317  14.9245  16.7887  17.4440  18.0410  19.0134

          k =-0.0312-0.6559-0.2959 (  4119 PWs)   bands (ev):

   -32.1313   0.4088   2.5043   3.4180   4.7027   6.8859  11.4413  12.8019
    15.2025  15.7578  16.3382  17.1915  17.3937  18.5781

          k =-0.1562-0.6559-0.0986 (  4117 PWs)   bands (ev):

   -32.1325  -0.1266   1.3960   4.0161   5.9153   7.9888  12.1564  12.9895
    14.6073  15.7318  16.4077  17.3907  17.7087  18.8877

          k = 0.5934-0.6559-1.2822 (  4112 PWs)   bands (ev):

   -32.1326  -0.4652   1.1924   5.0081   6.6421   8.3002  12.0125  12.3811
    13.2452  14.2202  16.5594  16.9221  17.8698  18.5130

          k = 0.4685-0.6559-1.0849 (  4115 PWs)   bands (ev):

   -32.1317  -0.5378   1.9339   5.6919   6.3433   8.4533   9.2818  11.9205
    13.4177  13.7475  15.6378  16.2643  17.1536  17.9301

          k = 0.3436-0.6559-0.8877 (  4115 PWs)   bands (ev):

   -32.1304  -0.1182   3.2674   4.2130   6.0026   8.3508   9.8775  10.1428
    11.7734  13.4743  13.8051  16.6957  16.8513  19.7148

          k = 0.2186-0.4373-0.3452 (  4110 PWs)   bands (ev):

   -32.1314  -0.4836   2.2306   5.3370   6.5255   8.3037   9.2252  11.5838
    12.9076  13.6052  15.1096  16.6622  16.9702  18.1569

          k = 0.0937-0.4373-0.1479 (  4115 PWs)   bands (ev):

   -32.1327  -1.2420   2.5966   4.7299   7.5240   8.6669  11.4805  12.2386
    13.0857  13.4829  14.0984  16.2012  17.3332  18.2364

          k =-0.0312-0.4373 0.0493 (  4115 PWs)   bands (ev):

   -32.1330  -1.3952   2.8732   4.1580   8.0558   9.0360  11.6677  12.7334
    12.9939  13.3363  14.3550  16.1113  16.9221  17.7320

          k =-0.1562-0.4373 0.2466 (  4113 PWs)   bands (ev):

   -32.1321  -0.9372   2.3593   5.4413   6.6465   8.6714  10.0280  11.5252
    13.0234  14.6477  15.1765  15.4705  16.6648  19.0628

          k = 0.5934-0.4373-0.9370 (  4121 PWs)   bands (ev):

   -32.1306   0.1112   2.2304   4.3803   6.5180   7.8181  10.2927  11.3048
    12.2040  13.1882  14.1898  16.3941  17.4902  18.8917

          k = 0.4685-0.4373-0.7397 (  4100 PWs)   bands (ev):

   -32.1297   1.6581   2.4110   2.6108   4.8234  10.2360  11.0029  11.5526
    12.1857  12.2885  12.7241  13.2429  17.0673  20.8463

          k = 0.3436-0.4373-0.5425 (  4113 PWs)   bands (ev):

   -32.1301   0.8345   2.3291   3.4735   5.4400   9.2710  10.3136  11.3724
    12.2288  12.8516  13.7483  14.0992  17.3990  19.6111

          k =-0.4373 0.4373-0.0000 (  4116 PWs)   bands (ev):

   -32.1330  -0.9168   0.7824   7.8586   8.6812   9.6294   9.8226  10.8251
    10.9332  12.3158  15.3290  18.3929  18.6743  18.9065

          k =-0.5622 0.4373 0.1973 (  4118 PWs)   bands (ev):

   -32.1324  -0.8039   1.2909   7.1691   7.3773   8.7032   9.5461  10.8566
    12.2217  14.6110  15.3525  16.5366  17.1114  18.1196

          k =-0.6871 0.4373 0.3945 (  4115 PWs)   bands (ev):

   -32.1310  -0.3164   2.6151   4.7377   6.3336   8.0781   9.2900  11.2571
    12.7328  14.0625  14.6789  16.6630  16.9819  18.7815

          k =-0.8121 0.4373 0.5918 (  4121 PWs)   bands (ev):

   -32.1299   0.6593   2.4224   4.7940   5.8551   7.0470   8.3468  10.6051
    12.0373  14.7643  15.4459  15.8241  17.8934  18.7847

          k =-0.5622 0.6559 0.5425 (  4120 PWs)   bands (ev):

   -32.1301   0.0729   3.5133   3.9406   5.7202   8.3245   9.5906  10.4560
    11.7186  12.1873  14.9255  16.3110  17.2542  19.1886

          k =-0.6871 0.6559 0.7397 (  4122 PWs)   bands (ev):

   -32.1297   1.1651   2.3473   3.7048   6.2908   6.9026   8.6404  10.7583
    11.3690  14.4225  15.9021  16.6446  17.2563  19.4855

          k =-0.8121 0.6559 0.9370 (  4122 PWs)   bands (ev):

   -32.1304   1.0642   2.6772   3.2996   4.5198   7.0847   9.6249  11.4802
    13.8419  15.6393  16.4802  17.3892  18.4169  18.6937

          k =-0.0625 0.6559-0.2466 (  4117 PWs)   bands (ev):

   -32.1317   0.2433   2.1809   3.5248   5.0839   6.9763  11.8979  13.4304
    14.5027  16.1357  16.4853  16.5929  17.7259  18.8252

          k =-0.1874 0.6559-0.0493 (  4119 PWs)   bands (ev):

   -32.1326  -0.2225   1.2433   4.2392   6.0952   8.3946  11.7224  13.2377
    14.3036  14.9339  17.1597  17.2559  17.8531  18.6590

          k =-0.3123 0.6559 0.1479 (  4112 PWs)   bands (ev):

   -32.1325  -0.5204   1.3030   5.2685   6.7534   8.0896  11.2633  12.3532
    13.5167  14.4597  15.8464  16.8606  17.3710  18.5138

          k =-0.5622-0.0000-0.4932 (  4123 PWs)   bands (ev):

   -32.1302   0.7166   2.7244   3.8525   4.9852   7.8728   8.6471  10.3542
    14.0112  15.5106  15.8156  16.3508  17.6525  19.2472

          k =-0.6871 0.0000-0.2959 (  4117 PWs)   bands (ev):

   -32.1313   0.6272   2.5029   3.1968   4.5049   6.7171  11.7537  12.9228
    15.2310  15.5692  16.7729  16.9679  17.5719  19.2370

          k =-0.8121-0.0000-0.0986 (  4115 PWs)   bands (ev):

   -32.1322   1.0447   1.8206   2.0786   4.7392   7.5940  11.9307  15.1493
    16.3025  16.8508  18.0157  18.1531  18.8987  19.2406

          k = 0.2186-0.1249-0.5425 (  4116 PWs)   bands (ev):

   -32.1302  -0.3734   4.1655   4.9982   6.1027   7.7107   8.3097   9.7298
    10.9365  12.3587  15.3522  16.6801  19.3501  20.4439

          k = 0.2186-0.2499-0.7397 (  4129 PWs)   bands (ev):

   -32.1297   1.3005   2.1804   3.5706   6.0490   7.2877   8.9680  10.9190
    11.4254  14.5820  15.4150  15.9287  17.1047  19.1756

          k = 0.2186-0.3748-0.9370 (  4120 PWs)   bands (ev):

   -32.1306   0.2737   2.3239   4.0338   6.7594   7.0752   9.4546  11.9557
    12.6597  13.8645  14.7112  16.8318  17.6954  18.6977

          k = 0.2186 0.3748 0.2466 (  4114 PWs)   bands (ev):

   -32.1322  -1.0968   2.2443   6.3790   7.2024   8.5800  10.0837  10.3993
    13.3206  13.5321  14.7307  15.7526  16.3235  18.8180

          k = 0.2186 0.2499 0.0493 (  4119 PWs)   bands (ev):

   -32.1333  -1.8619   2.7081   7.1067   7.8368  10.0439  10.8123  11.1901
    12.4507  13.0387  13.4007  14.9153  16.0237  17.1038

          k = 0.2186 0.1249-0.1479 (  4122 PWs)   bands (ev):

   -32.1331  -1.9969   3.7584   6.4691   8.0783   9.0993  10.5965  10.7450
    12.2954  13.1435  14.0927  14.8069  15.5133  17.3695

          k =-0.4373-0.1249 0.4932 (  4113 PWs)   bands (ev):

   -32.1303   0.1145   3.1400   4.0002   6.0353   7.6274   9.1455  10.4124
    12.6556  14.2949  14.9230  16.1567  17.6127  19.2603

          k =-0.4373-0.2499 0.2959 (  4115 PWs)   bands (ev):

   -32.1317  -0.6194   1.8749   5.9764   6.7446   8.5049   9.2099  11.4950
    13.0307  13.6298  15.5264  16.2509  17.3046  17.7465

          k =-0.4373-0.3748 0.0986 (  4120 PWs)   bands (ev):

   -32.1329  -0.8927   0.9141   7.6695   8.3747   9.1308  10.0484  10.2326
    11.5456  13.1592  15.7207  17.1990  17.9061  18.7387

          k =-0.2186 0.0937-0.1973 (  4117 PWs)   bands (ev):

   -32.1329  -1.9315   4.1044   6.1856   8.1861   8.8613  10.1164  10.2936
    11.8546  12.9622  14.3497  15.5566  15.7286  17.9843

          k =-0.2186-0.0312-0.3945 (  4110 PWs)   bands (ev):

   -32.1313  -1.2746   5.1643   5.6660   6.4401   8.1062   9.0200   9.6516
    10.4635  12.1339  14.5410  17.2994  18.6359  19.6300

          k =-0.2186-0.1562-0.5918 (  4114 PWs)   bands (ev):

   -32.1300   0.0014   3.6821   4.6673   5.8866   7.6904   8.7268   9.5889
    10.8414  13.2358  15.0740  16.9129  18.1989  20.5096

          k =-0.2186 0.5934 0.5918 (  4122 PWs)   bands (ev):

   -32.1298   1.5733   1.8632   3.3564   6.1182   7.3518   8.8903  11.0398
    12.3889  14.2607  15.4025  15.7541  17.3327  18.8580

          k =-0.2186 0.4685 0.3945 (  4111 PWs)   bands (ev):

   -32.1310  -0.1221   2.2701   4.6677   6.4526   7.9640   9.1742  11.6878
    12.9170  14.0213  15.1339  15.9963  17.2891  18.7331

          k =-0.2186 0.3436 0.1973 (  4116 PWs)   bands (ev):

   -32.1326  -1.3463   2.3022   6.6882   7.6762   8.8219   9.6521  11.3650
    12.4202  13.8343  14.2052  15.3604  16.3552  18.3220

          k =-0.6559 0.0937 0.4932 (  4118 PWs)   bands (ev):

   -32.1301   1.3279   2.3415   3.3377   4.9646   7.1895   9.0204  11.2594
    13.1253  15.3579  16.4694  17.0925  18.7765  19.2816

          k =-0.6559-0.0312 0.2959 (  4119 PWs)   bands (ev):

   -32.1313   0.4089   2.5024   3.4220   4.6993   6.8872  11.4578  12.7468
    15.2947  15.8468  16.6294  16.8101  17.0331  19.0195

          k =-0.6559-0.1562 0.0986 (  4117 PWs)   bands (ev):

   -32.1325  -0.1262   1.3947   4.0217   5.9069   7.9888  12.1731  13.0155
    14.7046  15.4466  16.4067  17.5218  17.6950  18.7685

          k =-0.6559 0.5934 1.2822 (  4112 PWs)   bands (ev):

   -32.1326  -0.4654   1.1936   4.9956   6.6659   8.3012  12.0141  12.2119
    13.2920  14.4451  16.6246  16.8466  17.6857  18.6217

          k =-0.6559 0.4685 1.0849 (  4115 PWs)   bands (ev):

   -32.1317  -0.5381   1.9355   5.6264   6.4740   8.1915   9.6129  11.6125
    13.3316  14.1819  15.4694  16.3162  16.8415  18.5309

          k =-0.6559 0.3436 0.8877 (  4115 PWs)   bands (ev):

   -32.1304  -0.1183   3.2743   4.1816   6.1368   7.9139  10.2757  10.6765
    11.5436  12.2286  14.8127  16.3294  17.4524  19.2024

          k =-0.4373 0.2186 0.3452 (  4110 PWs)   bands (ev):

   -32.1314  -0.4838   2.2322   5.2913   6.7515   7.7825   9.8144  11.3560
    12.5832  13.9135  14.9996  16.6684  17.3115  18.2969

          k =-0.4373 0.0937 0.1479 (  4115 PWs)   bands (ev):

   -32.1327  -1.2421   2.6015   4.7086   7.5614   8.7324  11.2788  11.8414
    13.3981  13.7699  14.5324  15.6943  17.2381  18.3062

          k =-0.4373-0.0312-0.0493 (  4115 PWs)   bands (ev):

   -32.1330  -1.3952   2.8692   4.1677   8.0210   9.0330  11.9481  12.6406
    12.9834  13.1231  14.3549  16.0011  16.9199  18.1777

          k =-0.4373-0.1562-0.2466 (  4113 PWs)   bands (ev):

   -32.1321  -0.9370   2.3564   5.4809   6.5841   8.7132   9.8982  11.8468
    13.3947  13.6509  14.8216  15.9955  17.3245  18.7291

          k =-0.4373 0.5934 0.9370 (  4121 PWs)   bands (ev):

   -32.1306   0.1114   2.2293   4.3964   6.3710   8.2329   9.6559  11.4418
    12.4847  13.2587  14.6206  15.4080  17.6460  18.9324

          k =-0.4373 0.4685 0.7397 (  4100 PWs)   bands (ev):

   -32.1297   1.6582   2.4100   2.6119   4.8228  10.2923  10.9095  11.4819
    12.2088  12.5586  12.6297  13.1475  17.0718  20.8424

          k =-0.4373 0.3436 0.5425 (  4113 PWs)   bands (ev):

   -32.1301   0.8344   2.3303   3.4683   5.4571   9.0375  10.9152  11.3475
    11.9500  12.6172  13.3421  14.7866  17.2876  19.6251

          k = 0.4373-0.5622-0.1973 (  4118 PWs)   bands (ev):

   -32.1324  -0.8041   1.2916   6.9973   7.6041   8.6521   9.8489  10.2770
    12.5587  14.6919  15.4709  16.2499  16.8392  18.3029

          k = 0.4373-0.6871-0.3945 (  4115 PWs)   bands (ev):

   -32.1310  -0.3165   2.6176   4.7010   6.5992   7.5059   9.8364  11.7263
    11.7981  13.8131  15.1731  16.5021  17.9367  18.4931

          k = 0.4373-0.8121-0.5918 (  4121 PWs)   bands (ev):

   -32.1299   0.6592   2.4236   4.7354   6.2501   6.5382   8.5433  10.6917
    11.9758  14.1201  15.9302  16.4707  17.2853  18.8631

          k = 0.6559-0.5622-0.5425 (  4120 PWs)   bands (ev):

   -32.1301   0.0729   3.4987   3.9725   5.6574   8.6279   9.5574   9.9670
    11.4126  13.5687  13.9434  16.6850  16.7854  19.6216

          k = 0.6559-0.6871-0.7397 (  4122 PWs)   bands (ev):

   -32.1297   1.1652   2.3463   3.7099   6.2013   7.0538   8.5439  10.6734
    11.5677  14.1585  16.2840  16.6153  17.1395  19.3050

          k = 0.6559-0.8121-0.9370 (  4122 PWs)   bands (ev):

   -32.1304   1.0644   2.6706   3.3155   4.5014   7.1090   9.6123  11.4097
    14.1088  15.2781  16.9061  17.2891  18.1261  18.4349

          k = 0.6559-0.0625 0.2466 (  4117 PWs)   bands (ev):

   -32.1317   0.2430   2.1832   3.5194   5.0889   6.9756  11.8720  13.5296
    14.4536  15.7971  16.2532  17.5053  17.9751  18.1277

          k = 0.6559-0.1874 0.0493 (  4119 PWs)   bands (ev):

   -32.1326  -0.2226   1.2440   4.2356   6.1013   8.3946  11.7106  13.2296
    14.2147  15.0865  17.2001  17.2415  17.8148  18.8327

          k = 0.6559-0.3123-0.1479 (  4112 PWs)   bands (ev):

   -32.1325  -0.5201   1.3015   5.2896   6.7170   8.0831  11.2811  12.7677
    13.1739  14.1818  15.7792  17.1061  17.6836  18.3519

     the Fermi energy is    13.9023 ev

!    total energy              =     -48.00476767 Ry
     estimated scf accuracy    <          2.8E-13 Ry
     smearing contrib. (-TS)   =       0.00052792 Ry
     internal energy E=F+TS    =     -48.00529560 Ry

     The total energy is F=E-TS. E is the sum of the following terms:
     one-electron contribution =      17.29706211 Ry
     hartree contribution      =       2.93600467 Ry
     xc contribution           =     -16.90409647 Ry
     ewald contribution        =     -51.33426590 Ry

     convergence has been achieved in   9 iterations

     Forces acting on atoms (cartesian axes, Ry/au):

     atom    1 type  1   force =     0.00008039    0.00002383   -0.00000000
     atom    2 type  1   force =    -0.00008039   -0.00002383    0.00000000
     atom    3 type  1   force =    -0.00002383    0.00008039    0.00000000
     atom    4 type  1   force =     0.00002383   -0.00008039   -0.00000000
     atom    5 type  2   force =    -0.00000000   -0.00000000    0.00000000
     The non-local contrib.  to forces
     atom    1 type  1   force =    -0.02454875    0.00540151    0.00000000
     atom    2 type  1   force =     0.02454875   -0.00540151    0.00000000
     atom    3 type  1   force =    -0.00540151   -0.02454875   -0.00000000
     atom    4 type  1   force =     0.00540151    0.02454875    0.00000000
     atom    5 type  2   force =     0.00000000   -0.00000000   -0.00000000
     The ionic contribution  to forces
     atom    1 type  1   force =    -0.01821976    0.00290590   -0.00000000
     atom    2 type  1   force =     0.01821976   -0.00290590    0.00000000
     atom    3 type  1   force =    -0.00290590   -0.01821976   -0.00000000
     atom    4 type  1   force =     0.00290590    0.01821976   -0.00000000
     atom    5 type  2   force =     0.00000000    0.00000000    0.00000000
     The local contribution  to forces
     atom    1 type  1   force =     0.04123208   -0.00803948    0.00000000
     atom    2 type  1   force =    -0.04123208    0.00803948    0.00000000
     atom    3 type  1   force =     0.00803948    0.04123208   -0.00000000
     atom    4 type  1   force =    -0.00803948   -0.04123208   -0.00000000
     atom    5 type  2   force =     0.00000000    0.00000000   -0.00000000
     The core correction contribution to forces
     atom    1 type  1   force =     0.00161690   -0.00024440    0.00000000
     atom    2 type  1   force =    -0.00161690    0.00024440   -0.00000000
     atom    3 type  1   force =     0.00024440    0.00161690   -0.00000000
     atom    4 type  1   force =    -0.00024440   -0.00161690   -0.00000000
     atom    5 type  2   force =     0.00000000    0.00000000    0.00000000
     The Hubbard contrib.    to forces
     atom    1 type  1   force =     0.00000000    0.00000000    0.00000000
     atom    2 type  1   force =     0.00000000    0.00000000    0.00000000
     atom    3 type  1   force =     0.00000000    0.00000000    0.00000000
     atom    4 type  1   force =     0.00000000    0.00000000    0.00000000
     atom    5 type  2   force =     0.00000000    0.00000000    0.00000000
     The SCF correction term to forces
     atom    1 type  1   force =    -0.00000008    0.00000030    0.00000000
     atom    2 type  1   force =     0.00000008   -0.00000030    0.00000000
     atom    3 type  1   force =    -0.00000030   -0.00000008   -0.00000000
     atom    4 type  1   force =     0.00000030    0.00000008    0.00000000
     atom    5 type  2   force =    -0.00000000   -0.00000000    0.00000000

     Total force =     0.000168     Total SCF correction =     0.000001


     Computing stress (Cartesian axis) and pressure

          total   stress  (Ry/bohr**3)                   (kbar)     P=      503.09
   0.00342187   0.00000000   0.00000000          503.37        0.00        0.00
  -0.00000000   0.00342187  -0.00000000           -0.00      503.37       -0.00
   0.00000000  -0.00000000   0.00341616            0.00       -0.00      502.53


     Writing all to output data dir ./output/SiLi.save/

     init_run     :      1.83s CPU      2.10s WALL (       2 calls)
     electrons    :     63.79s CPU     68.93s WALL (       7 calls)
     update_pot   :      1.22s CPU      1.24s WALL (       5 calls)
     forces       :      1.73s CPU      1.84s WALL (       7 calls)
     stress       :      9.96s CPU     10.29s WALL (       7 calls)

     Called by init_run:
     wfcinit      :      1.01s CPU      1.04s WALL (       2 calls)
     potinit      :      0.27s CPU      0.40s WALL (       2 calls)
     hinit0       :      0.50s CPU      0.57s WALL (       2 calls)

     Called by electrons:
     c_bands      :     56.78s CPU     61.03s WALL (      51 calls)
     sum_band     :      6.59s CPU      6.89s WALL (      51 calls)
     v_of_rho     :      0.42s CPU      0.96s WALL (      55 calls)
     mix_rho      :      0.04s CPU      0.07s WALL (      51 calls)

     Called by c_bands:
     init_us_2    :      1.31s CPU      1.42s WALL (   10856 calls)
     init_us_2:cp :      1.30s CPU      1.41s WALL (   10856 calls)
     cegterg      :     52.75s CPU     54.46s WALL (    4692 calls)

     Called by *egterg:
     cdiaghg      :      4.65s CPU      4.80s WALL (   21425 calls)
     h_psi        :     43.68s CPU     45.09s WALL (   22345 calls)
     g_psi        :      0.21s CPU      0.21s WALL (   17469 calls)

     Called by h_psi:
     h_psi:calbec :      3.45s CPU      3.56s WALL (   22345 calls)
     vloc_psi     :     37.29s CPU     38.50s WALL (   22345 calls)
     add_vuspsi   :      2.76s CPU      2.84s WALL (   22345 calls)

     General routines
     calbec       :      4.18s CPU      4.32s WALL (   25565 calls)
     fft          :      0.71s CPU      1.45s WALL (     726 calls)
     ffts         :      0.02s CPU      0.05s WALL (      51 calls)
     fftw         :     38.10s CPU     39.32s WALL (  487576 calls)

     Parallel routines

     PWSCF        :   1m18.88s CPU   1m25.20s WALL


   This run was terminated on:  21:19:45  29Dec2024            

=------------------------------------------------------------------------------=
   JOB DONE.
=------------------------------------------------------------------------------=
