
     Program PWSCF v.7.2 starts on 29Dec2024 at 21:54:25 

     This program is part of the open-source Quantum ESPRESSO suite
     for quantum simulation of materials; please cite
         "P. Giannozzi et al., J. Phys.:Condens. Matter 21 395502 (2009);
         "P. Giannozzi et al., J. Phys.:Condens. Matter 29 465901 (2017);
         "P. Giannozzi et al., J. Chem. Phys. 152 154105 (2020);
          URL http://www.quantum-espresso.org", 
     in publications or presentations arising from this work. More details at
     http://www.quantum-espresso.org/quote

     Parallel version (MPI & OpenMP), running on       8 processor cores
     Number of MPI processes:                 8
     Threads/MPI process:                     1

     MPI processes distributed on     1 nodes
     481718 MiB available memory on the printing compute node when the environment starts

     Waiting for input...
     Reading input from standard input

     Current dimensions of program PWSCF are:
     Max number of different atomic species (ntypx) = 10
     Max number of k-points (npk) =  40000
     Max angular momentum in pseudopotentials (lmaxx) =  4

     R & G space division:  proc/nbgrp/npool/nimage =       8
     Subspace diagonalization in iterative solution of the eigenvalue problem:
     a serial algorithm will be used


     Parallelization info
     --------------------
     sticks:   dense  smooth     PW     G-vecs:    dense   smooth      PW
     Min          72      72     20                 9894     9894    1554
     Max          73      73     21                 9921     9921    1587
     Sum         583     583    163                79315    79315   12537

     Using Slab Decomposition



     bravais-lattice index     =            4
     lattice parameter (alat)  =       5.1284  a.u.
     unit-cell volume          =     818.4268 (a.u.)^3
     number of atoms/cell      =           10
     number of atomic types    =            2
     number of electrons       =        38.00
     number of Kohn-Sham states=           23
     kinetic-energy cutoff     =      80.0000  Ry
     charge density cutoff     =     320.0000  Ry
     scf convergence threshold =      1.0E-08
     mixing beta               =       0.7000
     number of iterations used =            8  plain     mixing
     energy convergence thresh.=      1.0E-04
     force convergence thresh. =      1.0E-03
     press convergence thresh. =      1.0E+00
     Exchange-correlation= PBE
                           (   1   4   3   4   0   0   0)
     nstep                     =           50


     celldm(1)=   5.128412  celldm(2)=   0.000000  celldm(3)=   7.006489
     celldm(4)=   0.000000  celldm(5)=   0.000000  celldm(6)=   0.000000

     crystal axes: (cart. coord. in units of alat)
               a(1) = (   1.000000   0.000000   0.000000 )  
               a(2) = (  -0.500000   0.866025   0.000000 )  
               a(3) = (   0.000000   0.000000   7.006489 )  

     reciprocal axes: (cart. coord. in units 2 pi/alat)
               b(1) = (  1.000000  0.577350 -0.000000 )  
               b(2) = (  0.000000  1.154701  0.000000 )  
               b(3) = (  0.000000 -0.000000  0.142725 )  


     PseudoPot. # 1 for Si read from file:
     ../pseudo/Si_ONCV_PBE_sr.upf
     MD5 check sum: e543d271109d17c80368dfa7c482276d
     Pseudo is Norm-conserving + core correction, Zval =  4.0
     Generated using ONCVPSP code by D. R. Hamann
     Using radial grid of 1510 points,  6 beta functions with: 
                l(1) =   0
                l(2) =   0
                l(3) =   1
                l(4) =   1
                l(5) =   2
                l(6) =   2

     PseudoPot. # 2 for Li read from file:
     ../pseudo/Li_ONCV_PBE_sr.upf
     MD5 check sum: 50ff420e78310ffa21704f3361e624a4
     Pseudo is Norm-conserving, Zval =  3.0
     Generated using ONCVPSP code by D. R. Hamann
     Using radial grid of 1944 points,  4 beta functions with: 
                l(1) =   0
                l(2) =   0
                l(3) =   1
                l(4) =   1

     atomic species   valence    mass     pseudopotential
        Si             4.00    28.08550     Si( 1.00)
        Li             3.00     6.94100     Li( 1.00)

      6 Sym. Ops. (no inversion) found



   Cartesian axes

     site n.     atom                  positions (alat units)
         1           Si  tau(   1) = (   0.0000000   0.0000000   0.2608866  )
         2           Si  tau(   2) = (   0.0000000   0.0000000   1.8642585  )
         3           Si  tau(   3) = (   0.0000000   0.0000000   4.5383691  )
         4           Si  tau(   4) = (  -0.0000000   0.5773503   1.0620926  )
         5           Si  tau(   5) = (  -0.0000000   0.5773503   2.6755259  )
         6           Si  tau(   6) = (  -0.0000000   0.5773503   5.6317667  )
         7           Si  tau(   7) = (   0.5000000   0.2886751   3.7680547  )
         8           Si  tau(   8) = (   0.5000000   0.2886751   6.4565215  )
         9           Li  tau(   9) = (  -0.0000000   0.5773503   3.3856405  )
        10           Li  tau(  10) = (  -0.0000000   0.5773503   4.9201036  )

     number of k points=    14  Marzari-Vanderbilt smearing, width (Ry)=  0.0200
                       cart. coord. in units 2pi/alat
        k(    1) = (   0.0000000   0.0000000   0.0000000), wk =   0.0200000
        k(    2) = (   0.0000000   0.1154701   0.0000000), wk =   0.1200000
        k(    3) = (   0.0000000   0.2309401   0.0000000), wk =   0.1200000
        k(    4) = (   0.0000000   0.3464102   0.0000000), wk =   0.1200000
        k(    5) = (   0.0000000   0.4618802   0.0000000), wk =   0.1200000
        k(    6) = (   0.0000000  -0.5773503   0.0000000), wk =   0.0600000
        k(    7) = (   0.1000000   0.1732051   0.0000000), wk =   0.1200000
        k(    8) = (   0.1000000   0.2886751   0.0000000), wk =   0.2400000
        k(    9) = (   0.1000000   0.4041452   0.0000000), wk =   0.2400000
        k(   10) = (   0.1000000   0.5196152   0.0000000), wk =   0.2400000
        k(   11) = (   0.2000000   0.3464102   0.0000000), wk =   0.1200000
        k(   12) = (   0.2000000   0.4618802   0.0000000), wk =   0.2400000
        k(   13) = (   0.2000000   0.5773503   0.0000000), wk =   0.1200000
        k(   14) = (   0.3000000   0.5196152   0.0000000), wk =   0.1200000

     Dense  grid:    79315 G-vectors     FFT dimensions: (  30,  30, 216)

     Estimated max dynamical RAM per process >      29.00 MB

     Estimated total dynamical RAM >     231.98 MB

     Initial potential from superposition of free atoms

     starting charge      37.9860, renormalised to      38.0000
     Starting wfcs are   36 randomized atomic wfcs

     total cpu time spent up to now is        2.2 secs

     Self-consistent Calculation

     iteration #  1     ecut=    80.00 Ry     beta= 0.70
     Davidson diagonalization with overlap
     ethr =  1.00E-02,  avg # of iterations =  4.0

     total cpu time spent up to now is        3.6 secs

     total energy              =     -80.75008607 Ry
     estimated scf accuracy    <      16.94842598 Ry

     iteration #  2     ecut=    80.00 Ry     beta= 0.70
     Davidson diagonalization with overlap
     c_bands:  2 eigenvalues not converged
     c_bands:  1 eigenvalues not converged
     c_bands:  1 eigenvalues not converged
     ethr =  1.00E-02,  avg # of iterations = 18.1

     total cpu time spent up to now is        7.4 secs

     total energy              =     -60.47090339 Ry
     estimated scf accuracy    <    1613.39180666 Ry

     iteration #  3     ecut=    80.00 Ry     beta= 0.70
     Davidson diagonalization with overlap
     ethr =  1.00E-02,  avg # of iterations =  9.0

     total cpu time spent up to now is        9.8 secs

     total energy              =     -89.60807078 Ry
     estimated scf accuracy    <     229.13057090 Ry

     iteration #  4     ecut=    80.00 Ry     beta= 0.70
     Davidson diagonalization with overlap
     ethr =  1.00E-02,  avg # of iterations =  7.0

     total cpu time spent up to now is       11.2 secs

     total energy              =     -95.74615077 Ry
     estimated scf accuracy    <      64.55161720 Ry

     iteration #  5     ecut=    80.00 Ry     beta= 0.70
     Davidson diagonalization with overlap
     ethr =  1.00E-02,  avg # of iterations =  2.4

     total cpu time spent up to now is       12.1 secs

     total energy              =     -95.03605935 Ry
     estimated scf accuracy    <      45.74915731 Ry

     iteration #  6     ecut=    80.00 Ry     beta= 0.70
     Davidson diagonalization with overlap
     ethr =  1.00E-02,  avg # of iterations =  3.8

     total cpu time spent up to now is       13.1 secs

     total energy              =     -95.04446948 Ry
     estimated scf accuracy    <       8.32437959 Ry

     iteration #  7     ecut=    80.00 Ry     beta= 0.70
     Davidson diagonalization with overlap
     ethr =  1.00E-02,  avg # of iterations =  2.9

     total cpu time spent up to now is       14.1 secs

     total energy              =     -95.51856359 Ry
     estimated scf accuracy    <       1.84942043 Ry

     iteration #  8     ecut=    80.00 Ry     beta= 0.70
     Davidson diagonalization with overlap
     ethr =  4.87E-03,  avg # of iterations =  1.4

     total cpu time spent up to now is       15.0 secs

     total energy              =     -95.54916597 Ry
     estimated scf accuracy    <       0.30568792 Ry

     iteration #  9     ecut=    80.00 Ry     beta= 0.70
     Davidson diagonalization with overlap
     ethr =  8.04E-04,  avg # of iterations =  3.9

     total cpu time spent up to now is       16.0 secs

     total energy              =     -95.57078219 Ry
     estimated scf accuracy    <       0.08912114 Ry

     iteration # 10     ecut=    80.00 Ry     beta= 0.70
     Davidson diagonalization with overlap
     ethr =  2.35E-04,  avg # of iterations =  4.6

     total cpu time spent up to now is       17.1 secs

     total energy              =     -95.58201156 Ry
     estimated scf accuracy    <       0.15296474 Ry

     iteration # 11     ecut=    80.00 Ry     beta= 0.70
     Davidson diagonalization with overlap
     ethr =  2.35E-04,  avg # of iterations =  1.1

     total cpu time spent up to now is       17.9 secs

     total energy              =     -95.58003804 Ry
     estimated scf accuracy    <       0.05174588 Ry

     iteration # 12     ecut=    80.00 Ry     beta= 0.70
     Davidson diagonalization with overlap
     ethr =  1.36E-04,  avg # of iterations =  2.9

     total cpu time spent up to now is       18.8 secs

     total energy              =     -95.58291537 Ry
     estimated scf accuracy    <       0.00754193 Ry

     iteration # 13     ecut=    80.00 Ry     beta= 0.70
     Davidson diagonalization with overlap
     c_bands:  1 eigenvalues not converged
     ethr =  1.98E-05,  avg # of iterations =  7.9

     total cpu time spent up to now is       20.0 secs

     total energy              =     -95.58294081 Ry
     estimated scf accuracy    <       0.02979090 Ry

     iteration # 14     ecut=    80.00 Ry     beta= 0.70
     Davidson diagonalization with overlap
     ethr =  1.98E-05,  avg # of iterations =  1.4

     total cpu time spent up to now is       20.9 secs

     total energy              =     -95.58284077 Ry
     estimated scf accuracy    <       0.01646818 Ry

     iteration # 15     ecut=    80.00 Ry     beta= 0.70
     Davidson diagonalization with overlap
     ethr =  1.98E-05,  avg # of iterations =  1.1

     total cpu time spent up to now is       21.7 secs

     total energy              =     -95.58255685 Ry
     estimated scf accuracy    <       0.00716882 Ry

     iteration # 16     ecut=    80.00 Ry     beta= 0.70
     Davidson diagonalization with overlap
     ethr =  1.89E-05,  avg # of iterations =  2.1

     total cpu time spent up to now is       22.6 secs

     total energy              =     -95.58283924 Ry
     estimated scf accuracy    <       0.00012979 Ry

     iteration # 17     ecut=    80.00 Ry     beta= 0.70
     Davidson diagonalization with overlap
     c_bands:  1 eigenvalues not converged
     ethr =  3.42E-07,  avg # of iterations =  7.4

     total cpu time spent up to now is       23.8 secs

     total energy              =     -95.58288370 Ry
     estimated scf accuracy    <       0.00008606 Ry

     iteration # 18     ecut=    80.00 Ry     beta= 0.70
     Davidson diagonalization with overlap
     ethr =  2.26E-07,  avg # of iterations =  1.7

     total cpu time spent up to now is       24.6 secs

     total energy              =     -95.58288669 Ry
     estimated scf accuracy    <       0.00001167 Ry

     iteration # 19     ecut=    80.00 Ry     beta= 0.70
     Davidson diagonalization with overlap
     ethr =  3.07E-08,  avg # of iterations =  3.2

     total cpu time spent up to now is       25.6 secs

     total energy              =     -95.58288776 Ry
     estimated scf accuracy    <       0.00000620 Ry

     iteration # 20     ecut=    80.00 Ry     beta= 0.70
     Davidson diagonalization with overlap
     ethr =  1.63E-08,  avg # of iterations =  1.4

     total cpu time spent up to now is       26.5 secs

     total energy              =     -95.58288776 Ry
     estimated scf accuracy    <       0.00000391 Ry

     iteration # 21     ecut=    80.00 Ry     beta= 0.70
     Davidson diagonalization with overlap
     ethr =  1.03E-08,  avg # of iterations =  1.4

     total cpu time spent up to now is       27.3 secs

     total energy              =     -95.58288784 Ry
     estimated scf accuracy    <       0.00000118 Ry

     iteration # 22     ecut=    80.00 Ry     beta= 0.70
     Davidson diagonalization with overlap
     ethr =  3.11E-09,  avg # of iterations =  1.8

     total cpu time spent up to now is       28.2 secs

     total energy              =     -95.58288787 Ry
     estimated scf accuracy    <       0.00000021 Ry

     iteration # 23     ecut=    80.00 Ry     beta= 0.70
     Davidson diagonalization with overlap
     ethr =  5.62E-10,  avg # of iterations =  3.4

     total cpu time spent up to now is       29.1 secs

     total energy              =     -95.58288790 Ry
     estimated scf accuracy    <       0.00000001 Ry

     iteration # 24     ecut=    80.00 Ry     beta= 0.70
     Davidson diagonalization with overlap
     ethr =  2.93E-11,  avg # of iterations =  5.4

     total cpu time spent up to now is       30.2 secs

     End of self-consistent calculation

          k = 0.0000 0.0000 0.0000 (  9985 PWs)   bands (ev):

   -35.7222 -35.7178  -3.5728  -2.9878  -2.8591  -2.1201  -1.0245   0.4317
     1.0001   2.3257   4.3245   6.6679   7.1747   9.9273  11.3909  15.1245
    15.3113  18.7595  18.7595  19.0195  19.0195  19.4586  19.4592

          k = 0.0000 0.1155 0.0000 (  9939 PWs)   bands (ev):

   -35.7158 -35.7114  -3.3103  -2.7263  -2.6158  -1.8594  -0.7697   0.6862
     1.2025   2.5830   4.5495   6.9032   7.3349  10.1498  11.5588  15.1457
    15.2423  16.1466  16.5538  16.9774  17.1346  17.7986  17.8675

          k = 0.0000 0.2309 0.0000 (  9911 PWs)   bands (ev):

   -35.6992 -35.6948  -2.5251  -1.9440  -1.8889  -1.0793  -0.0091   1.4467
     1.8066   3.3516   5.2131   7.5981   7.8037  10.7808  11.8377  12.4824
    12.6786  13.1058  13.8865  14.1988  15.1944  15.5737  15.8893

          k = 0.0000 0.3464 0.0000 (  9877 PWs)   bands (ev):

   -35.6786 -35.6742  -1.2239  -0.6899  -0.6479   0.2133   1.2423   2.7023
     2.7981   4.6190   6.2327   8.2954   8.5851   9.0332   9.3965   9.5235
    10.3243  10.9082  11.6858  11.7986  12.8889  13.7233  14.4355

          k = 0.0000 0.4619 0.0000 (  9866 PWs)   bands (ev):

   -35.6620 -35.6576   0.5785   0.9469   1.1471   2.0035   2.9345   4.1011
     4.3978   5.6508   5.8342   6.2556   6.3903   7.0969   7.7109   8.3297
     8.7990   9.2412  10.1878  10.5744  11.5649  12.7779  13.7482

          k = 0.0000-0.5774 0.0000 (  9888 PWs)   bands (ev):

   -35.6556 -35.6512   2.4647   2.6762   3.0121   3.3819   3.5525   3.8121
     4.1209   4.4711   4.5211   5.3693   5.9270   6.5713   6.8373   7.4646
     8.3259   8.9346   9.3028  10.2959  11.7594  12.5357  13.2176

          k = 0.1000 0.1732 0.0000 (  9919 PWs)   bands (ev):

   -35.7043 -35.6999  -2.7864  -2.2044  -2.1306  -1.3390  -0.2619   1.1937
     1.6061   3.0960   4.9946   7.3694   7.6529  10.5828  11.8404  14.1184
    14.3191  14.5121  14.7431  14.9405  15.2814  15.4120  15.5047

          k = 0.1000 0.2887 0.0000 (  9884 PWs)   bands (ev):

   -35.6857 -35.6813  -1.7431  -1.1680  -1.1638  -0.3025   0.7449   2.2026
     2.4077   4.1145   5.8551   8.2446   8.2742  10.7934  10.8713  11.2447
    11.6116  12.0595  12.2973  12.9528  13.0554  13.4113  13.7162

          k = 0.1000 0.4041 0.0000 (  9876 PWs)   bands (ev):

   -35.6671 -35.6627  -0.1902   0.2584   0.3816   1.2402   2.2250   3.5815
     3.6939   5.6164   6.7411   7.4676   7.7855   8.0575   8.7650   9.1737
     9.6212   9.7641  10.7531  11.1261  12.0537  12.3515  12.7120

          k = 0.1000 0.5196 0.0000 (  9891 PWs)   bands (ev):

   -35.6556 -35.6512   1.8425   2.0588   2.4083   3.2565   4.0257   4.4692
     4.6661   4.7616   5.2350   5.7309   5.9147   6.8739   7.5628   7.9342
     8.2175   9.0383  10.0322  10.5052  11.4086  11.6432  11.9578

          k = 0.2000 0.3464 0.0000 (  9887 PWs)   bands (ev):

   -35.6691 -35.6647  -0.4475   0.0268   0.1254   0.9847   1.9841   3.4057
     3.4508   5.3710   6.8435   8.9055   8.9930   9.3847   9.6610   9.7914
    10.1646  10.2843  10.3873  10.8676  11.2809  11.3221  11.7828

          k = 0.2000 0.4619 0.0000 (  9887 PWs)   bands (ev):

   -35.6556 -35.6512   1.3466   1.6632   1.9128   2.7670   3.6572   4.7607
     5.1393   6.3617   6.5133   6.9695   7.1234   7.8131   8.0138   8.7203
     8.9912   9.1709   9.3098   9.6972   9.9288  10.3655  10.6467

          k = 0.2000 0.5774 0.0000 (  9874 PWs)   bands (ev):

   -35.6505 -35.6461   3.2311   3.4452   3.7706   4.1380   4.2929   4.4206
     4.8708   5.2134   5.2633   6.0838   6.6502   7.2232   7.4178   7.7697
     8.5850   8.8017   8.9612   9.3323   9.6600   9.9544  10.1319

          k = 0.3000 0.5196 0.0000 (  9871 PWs)   bands (ev):

   -35.6485 -35.6441   3.3439   3.4787   3.9164   4.7547   5.3370   5.5703
     5.7512   6.0522   6.1739   6.4645   6.5832   6.6967   7.1560   7.2571
     7.4887   7.6689   8.4347   8.8966   9.0752   9.4943   9.8251

     the Fermi energy is    11.2766 ev

!    total energy              =     -95.58288789 Ry
     estimated scf accuracy    <          9.4E-09 Ry
     smearing contrib. (-TS)   =       0.00070215 Ry
     internal energy E=F+TS    =     -95.58359005 Ry

     The total energy is F=E-TS. E is the sum of the following terms:
     one-electron contribution =       6.62992278 Ry
     hartree contribution      =      16.23601916 Ry
     xc contribution           =     -32.59778612 Ry
     ewald contribution        =     -85.85174586 Ry

     convergence has been achieved in  24 iterations

     Forces acting on atoms (cartesian axes, Ry/au):

     atom    1 type  1   force =     0.00000000    0.00000000    0.00871593
     atom    2 type  1   force =     0.00000000    0.00000000    0.01741179
     atom    3 type  1   force =     0.00000000    0.00000000   -0.30490244
     atom    4 type  1   force =     0.00000000    0.00000000   -0.01478125
     atom    5 type  1   force =     0.00000000    0.00000000   -0.16548710
     atom    6 type  1   force =     0.00000000    0.00000000    0.16665474
     atom    7 type  1   force =     0.00000000    0.00000000    0.30631787
     atom    8 type  1   force =     0.00000000   -0.00000000   -0.01488746
     atom    9 type  2   force =     0.00000000   -0.00000000   -0.17131634
     atom   10 type  2   force =     0.00000000    0.00000000    0.17227427
     The non-local contrib.  to forces
     atom    1 type  1   force =     0.00000000    0.00000000   -0.01053020
     atom    2 type  1   force =     0.00000000   -0.00000000    0.02771936
     atom    3 type  1   force =     0.00000000    0.00000000   -0.32029553
     atom    4 type  1   force =     0.00000000   -0.00000000   -0.00597787
     atom    5 type  1   force =     0.00000000    0.00000000   -0.20821732
     atom    6 type  1   force =     0.00000000    0.00000000    0.21636109
     atom    7 type  1   force =     0.00000000   -0.00000000    0.32244472
     atom    8 type  1   force =     0.00000000    0.00000000   -0.01703295
     atom    9 type  2   force =     0.00000000   -0.00000000   -0.03528054
     atom   10 type  2   force =     0.00000000   -0.00000000    0.03185228
     The ionic contribution  to forces
     atom    1 type  1   force =    -0.00000000    0.00000000    0.58599439
     atom    2 type  1   force =    -0.00000000    0.00000000   -2.49422857
     atom    3 type  1   force =    -0.00000001    0.00000001    0.62244354
     atom    4 type  1   force =     0.00000000   -0.00000000   -0.94404845
     atom    5 type  1   force =     0.00000000   -0.00000000   -4.55393303
     atom    6 type  1   force =     0.00000000   -0.00000000    4.71481748
     atom    7 type  1   force =    -0.00000003    0.00000002   -0.42790198
     atom    8 type  1   force =    -0.00000000    0.00000000    2.34357439
     atom    9 type  2   force =     0.00000003   -0.00000002   -3.10738610
     atom   10 type  2   force =     0.00000002   -0.00000001    3.26066833
     The local contribution  to forces
     atom    1 type  1   force =     0.00000000    0.00000000   -0.56747125
     atom    2 type  1   force =    -0.00000000   -0.00000000    2.48539951
     atom    3 type  1   force =    -0.00000000   -0.00000000   -0.62539539
     atom    4 type  1   force =    -0.00000000    0.00000000    0.93500936
     atom    5 type  1   force =     0.00000000   -0.00000000    4.58468752
     atom    6 type  1   force =     0.00000000   -0.00000000   -4.75191954
     atom    7 type  1   force =     0.00000001   -0.00000001    0.43025475
     atom    8 type  1   force =     0.00000000   -0.00000000   -2.34245089
     atom    9 type  2   force =     0.00000050   -0.00000029    2.97136404
     atom   10 type  2   force =     0.00000050   -0.00000029   -3.12024555
     The core correction contribution to forces
     atom    1 type  1   force =     0.00000000    0.00000000    0.00079774
     atom    2 type  1   force =     0.00000000   -0.00000000   -0.00164474
     atom    3 type  1   force =    -0.00000000    0.00000000    0.01836357
     atom    4 type  1   force =    -0.00000000    0.00000000    0.00020297
     atom    5 type  1   force =    -0.00000000    0.00000000    0.01187237
     atom    6 type  1   force =    -0.00000000    0.00000000   -0.01251705
     atom    7 type  1   force =     0.00000000   -0.00000000   -0.01846674
     atom    8 type  1   force =     0.00000000   -0.00000000    0.00112165
     atom    9 type  2   force =     0.00000000    0.00000000    0.00000000
     atom   10 type  2   force =     0.00000000    0.00000000    0.00000000
     The Hubbard contrib.    to forces
     atom    1 type  1   force =     0.00000000    0.00000000    0.00000000
     atom    2 type  1   force =     0.00000000    0.00000000    0.00000000
     atom    3 type  1   force =     0.00000000    0.00000000    0.00000000
     atom    4 type  1   force =     0.00000000    0.00000000    0.00000000
     atom    5 type  1   force =     0.00000000    0.00000000    0.00000000
     atom    6 type  1   force =     0.00000000    0.00000000    0.00000000
     atom    7 type  1   force =     0.00000000    0.00000000    0.00000000
     atom    8 type  1   force =     0.00000000    0.00000000    0.00000000
     atom    9 type  2   force =     0.00000000    0.00000000    0.00000000
     atom   10 type  2   force =     0.00000000    0.00000000    0.00000000
     The SCF correction term to forces
     atom    1 type  1   force =     0.00000000   -0.00000000   -0.00007495
     atom    2 type  1   force =     0.00000000   -0.00000000    0.00016601
     atom    3 type  1   force =     0.00000000   -0.00000000   -0.00001884
     atom    4 type  1   force =    -0.00000000    0.00000000    0.00003253
     atom    5 type  1   force =     0.00000000   -0.00000000    0.00010315
     atom    6 type  1   force =     0.00000000   -0.00000000   -0.00008744
     atom    7 type  1   force =     0.00000000   -0.00000000   -0.00001308
     atom    8 type  1   force =     0.00000000   -0.00000000   -0.00009987
     atom    9 type  2   force =    -0.00000000    0.00000000   -0.00001394
     atom   10 type  2   force =    -0.00000000    0.00000000   -0.00000100

     Total force =     0.549366     Total SCF correction =     0.000251


     Computing stress (Cartesian axis) and pressure

          total   stress  (Ry/bohr**3)                   (kbar)     P=      303.93
   0.00161022  -0.00000000   0.00000000          236.87       -0.00        0.00
  -0.00000000   0.00161022   0.00000000           -0.00      236.87        0.00
   0.00000000   0.00000000   0.00297771            0.00        0.00      438.04


     BFGS Geometry Optimization
     Energy error            =      0.0E+00 Ry
     Gradient error          =      3.1E-01 Ry/Bohr
     Cell gradient error     =      2.6E+02 kbar

     number of scf cycles    =   1
     number of bfgs steps    =   0

     enthalpy           new  =     -92.8011117562 Ry

     new trust radius        =       0.3063178663 bohr
ibrav =      4
 celldm(1) =      4.89908044
 celldm(3) =      7.25723531
Input lattice vectors:
     0.95528211    -0.00000000     0.00000000
    -0.47764106     0.82729858     0.00000000
     0.00000000     0.00000000     6.93270708
New lattice vectors in INITIAL alat:
     0.95528211     0.00000000     0.00000000
    -0.47764106     0.82729858     0.00000000
     0.00000000     0.00000000     6.93270708
New lattice vectors in NEW alat (for information only):
     1.00000000     0.00000000     0.00000000
    -0.50000000     0.86602540     0.00000000
     0.00000000     0.00000000     7.25723531
Discrepancy in bohr =     0.000000    0.000000    0.000000
     new conv_thr            =       0.0000000100 Ry

     new unit-cell volume =    739.00189 a.u.^3 (   109.50878 Ang^3 )
     density =      3.61750 g/cm^3

CELL_PARAMETERS (alat=  5.12841219)
   0.955282113   0.000000000   0.000000000
  -0.477641057   0.827298578   0.000000000
   0.000000000   0.000000000   6.932707084

ATOMIC_POSITIONS (crystal)
Si            0.0000000000        0.0000000000        0.0374775663
Si            0.0000000000        0.0000000000        0.2665605739
Si            0.0000000000        0.0000000000        0.6392524979
Si            0.3333333300        0.6666666700        0.1511756345
Si            0.3333333300        0.6666666700        0.3772584575
Si            0.3333333300        0.6666666700        0.8084310381
Si            0.6666666700        0.3333333300        0.5463198936
Si            0.6666666700        0.3333333300        0.9210916786
Li            0.3333333300        0.6666666700        0.4784472287
Li            0.3333333300        0.6666666700        0.7070154308



     Writing config-only to output data dir ./output/SiLi.save/
     NEW-OLD atomic charge density approx. for the potential
     extrapolated charge   33.91742, renormalised to   38.00000

     total cpu time spent up to now is       34.9 secs

     Self-consistent Calculation

     iteration #  1     ecut=    80.00 Ry     beta= 0.70
     Davidson diagonalization with overlap
     c_bands:  3 eigenvalues not converged
     c_bands:  2 eigenvalues not converged
     c_bands:  4 eigenvalues not converged
     c_bands:  5 eigenvalues not converged
     c_bands:  2 eigenvalues not converged
     c_bands:  5 eigenvalues not converged
     c_bands:  1 eigenvalues not converged
     c_bands:  4 eigenvalues not converged
     c_bands:  1 eigenvalues not converged
     ethr =  1.00E-06,  avg # of iterations = 25.9

     total cpu time spent up to now is       40.8 secs

     total energy              =     125.25692126 Ry
     estimated scf accuracy    <     239.26113981 Ry

     iteration #  2     ecut=    80.00 Ry     beta= 0.70
     Davidson diagonalization with overlap
     c_bands:  2 eigenvalues not converged
     c_bands:  1 eigenvalues not converged
     c_bands:  4 eigenvalues not converged
     c_bands:  1 eigenvalues not converged
     ethr =  1.00E-02,  avg # of iterations = 37.6

     total cpu time spent up to now is       50.1 secs

     total energy              =    -169.96119405 Ry
     estimated scf accuracy    <    2932.33180979 Ry

     iteration #  3     ecut=    80.00 Ry     beta= 0.70
     Davidson diagonalization with overlap
     c_bands:  1 eigenvalues not converged
     ethr =  1.00E-02,  avg # of iterations = 17.1

     total cpu time spent up to now is       54.5 secs

     total energy              =    -151.20738994 Ry
     estimated scf accuracy    <     982.00613068 Ry

     iteration #  4     ecut=    80.00 Ry     beta= 0.70
     Davidson diagonalization with overlap
     ethr =  1.00E-02,  avg # of iterations =  8.1

     total cpu time spent up to now is       56.8 secs

     total energy              =    -149.33194382 Ry
     estimated scf accuracy    <    1052.75004416 Ry

     iteration #  5     ecut=    80.00 Ry     beta= 0.70
     Davidson diagonalization with overlap
     ethr =  1.00E-02,  avg # of iterations =  6.8

     total cpu time spent up to now is       58.2 secs

     total energy              =     -47.30246703 Ry
     estimated scf accuracy    <     934.63612839 Ry

     iteration #  6     ecut=    80.00 Ry     beta= 0.70
     Davidson diagonalization with overlap
     ethr =  1.00E-02,  avg # of iterations =  9.5

     total cpu time spent up to now is       60.9 secs

     total energy              =     -75.00949185 Ry
     estimated scf accuracy    <     242.10048933 Ry

     iteration #  7     ecut=    80.00 Ry     beta= 0.70
     Davidson diagonalization with overlap
     ethr =  1.00E-02,  avg # of iterations = 10.6

     total cpu time spent up to now is       63.7 secs

     total energy              =    -107.25461560 Ry
     estimated scf accuracy    <     536.39507323 Ry

     iteration #  8     ecut=    80.00 Ry     beta= 0.70
     Davidson diagonalization with overlap
     ethr =  1.00E-02,  avg # of iterations =  2.6

     total cpu time spent up to now is       64.7 secs

     total energy              =    -106.56746369 Ry
     estimated scf accuracy    <     350.76591309 Ry

     iteration #  9     ecut=    80.00 Ry     beta= 0.70
     Davidson diagonalization with overlap
     ethr =  1.00E-02,  avg # of iterations =  1.0

     total cpu time spent up to now is       65.6 secs

     total energy              =    -103.27705862 Ry
     estimated scf accuracy    <     349.03478459 Ry

     iteration # 10     ecut=    80.00 Ry     beta= 0.70
     Davidson diagonalization with overlap
     ethr =  1.00E-02,  avg # of iterations =  1.3

     negative rho (up, down):  1.366E-02 0.000E+00

     total cpu time spent up to now is       66.4 secs

     total energy              =      43.48333051 Ry
     estimated scf accuracy    <     326.72456696 Ry

     iteration # 11     ecut=    80.00 Ry     beta= 0.70
     Davidson diagonalization with overlap
     c_bands:  2 eigenvalues not converged
     c_bands:  1 eigenvalues not converged
     c_bands:  5 eigenvalues not converged
     c_bands:  2 eigenvalues not converged
     c_bands:  4 eigenvalues not converged
     c_bands:  1 eigenvalues not converged
     c_bands:  3 eigenvalues not converged
     c_bands:  3 eigenvalues not converged
     ethr =  1.00E-02,  avg # of iterations = 20.0

     total cpu time spent up to now is       71.7 secs

     total energy              =      -7.67089737 Ry
     estimated scf accuracy    <    2163.47202972 Ry

     iteration # 12     ecut=    80.00 Ry     beta= 0.70
     Davidson diagonalization with overlap
     ethr =  1.00E-02,  avg # of iterations = 11.3

     total cpu time spent up to now is       74.8 secs

     total energy              =     -96.26920830 Ry
     estimated scf accuracy    <      54.55296884 Ry

     iteration # 13     ecut=    80.00 Ry     beta= 0.70
     Davidson diagonalization with overlap
     ethr =  1.00E-02,  avg # of iterations =  3.5

     total cpu time spent up to now is       75.8 secs

     total energy              =     -96.67007929 Ry
     estimated scf accuracy    <      45.11292259 Ry

     iteration # 14     ecut=    80.00 Ry     beta= 0.70
     Davidson diagonalization with overlap
     ethr =  1.00E-02,  avg # of iterations =  6.1

     total cpu time spent up to now is       77.2 secs

     total energy              =    -100.13458063 Ry
     estimated scf accuracy    <     238.75130967 Ry

     iteration # 15     ecut=    80.00 Ry     beta= 0.70
     Davidson diagonalization with overlap
     ethr =  1.00E-02,  avg # of iterations =  1.4

     total cpu time spent up to now is       78.0 secs

     total energy              =     -99.40967513 Ry
     estimated scf accuracy    <     222.47374293 Ry

     iteration # 16     ecut=    80.00 Ry     beta= 0.70
     Davidson diagonalization with overlap
     ethr =  1.00E-02,  avg # of iterations =  1.1

     total cpu time spent up to now is       78.8 secs

     total energy              =     -95.87996606 Ry
     estimated scf accuracy    <     191.30496493 Ry

     iteration # 17     ecut=    80.00 Ry     beta= 0.70
     Davidson diagonalization with overlap
     ethr =  1.00E-02,  avg # of iterations =  2.9

     total cpu time spent up to now is       79.8 secs

     total energy              =     -94.34182530 Ry
     estimated scf accuracy    <      69.08883085 Ry

     iteration # 18     ecut=    80.00 Ry     beta= 0.70
     Davidson diagonalization with overlap
     ethr =  1.00E-02,  avg # of iterations =  5.1

     total cpu time spent up to now is       80.8 secs

     total energy              =     -95.43452011 Ry
     estimated scf accuracy    <       1.64161509 Ry

     iteration # 19     ecut=    80.00 Ry     beta= 0.70
     Davidson diagonalization with overlap
     ethr =  4.32E-03,  avg # of iterations =  4.9

     total cpu time spent up to now is       81.9 secs

     total energy              =     -95.53008051 Ry
     estimated scf accuracy    <       4.92382727 Ry

     iteration # 20     ecut=    80.00 Ry     beta= 0.70
     Davidson diagonalization with overlap
     ethr =  4.32E-03,  avg # of iterations =  1.3

     total cpu time spent up to now is       82.7 secs

     total energy              =     -95.64313028 Ry
     estimated scf accuracy    <       0.06426768 Ry

     iteration # 21     ecut=    80.00 Ry     beta= 0.70
     Davidson diagonalization with overlap
     ethr =  1.69E-04,  avg # of iterations =  6.1

     total cpu time spent up to now is       83.8 secs

     total energy              =     -95.65584680 Ry
     estimated scf accuracy    <       0.00319376 Ry

     iteration # 22     ecut=    80.00 Ry     beta= 0.70
     Davidson diagonalization with overlap
     ethr =  8.40E-06,  avg # of iterations =  9.4

     total cpu time spent up to now is       85.2 secs

     total energy              =     -95.65572292 Ry
     estimated scf accuracy    <       0.03792213 Ry

     iteration # 23     ecut=    80.00 Ry     beta= 0.70
     Davidson diagonalization with overlap
     ethr =  8.40E-06,  avg # of iterations =  2.9

     total cpu time spent up to now is       86.1 secs

     total energy              =     -95.65636153 Ry
     estimated scf accuracy    <       0.00040924 Ry

     iteration # 24     ecut=    80.00 Ry     beta= 0.70
     Davidson diagonalization with overlap
     ethr =  1.08E-06,  avg # of iterations =  7.6

     total cpu time spent up to now is       87.4 secs

     total energy              =     -95.65619056 Ry
     estimated scf accuracy    <       0.01785736 Ry

     iteration # 25     ecut=    80.00 Ry     beta= 0.70
     Davidson diagonalization with overlap
     ethr =  1.08E-06,  avg # of iterations =  4.9

     total cpu time spent up to now is       88.5 secs

     total energy              =     -95.65651748 Ry
     estimated scf accuracy    <       0.00211344 Ry

     iteration # 26     ecut=    80.00 Ry     beta= 0.70
     Davidson diagonalization with overlap
     ethr =  1.08E-06,  avg # of iterations =  2.1

     total cpu time spent up to now is       89.3 secs

     total energy              =     -95.65650514 Ry
     estimated scf accuracy    <       0.00382608 Ry

     iteration # 27     ecut=    80.00 Ry     beta= 0.70
     Davidson diagonalization with overlap
     ethr =  1.08E-06,  avg # of iterations =  1.3

     total cpu time spent up to now is       90.1 secs

     total energy              =     -95.65648213 Ry
     estimated scf accuracy    <       0.00140849 Ry

     iteration # 28     ecut=    80.00 Ry     beta= 0.70
     Davidson diagonalization with overlap
     ethr =  1.08E-06,  avg # of iterations =  1.6

     total cpu time spent up to now is       90.9 secs

     total energy              =     -95.65649910 Ry
     estimated scf accuracy    <       0.00011437 Ry

     iteration # 29     ecut=    80.00 Ry     beta= 0.70
     Davidson diagonalization with overlap
     ethr =  3.01E-07,  avg # of iterations =  2.3

     total cpu time spent up to now is       91.8 secs

     total energy              =     -95.65650269 Ry
     estimated scf accuracy    <       0.00000711 Ry

     iteration # 30     ecut=    80.00 Ry     beta= 0.70
     Davidson diagonalization with overlap
     ethr =  1.87E-08,  avg # of iterations =  4.5

     total cpu time spent up to now is       92.9 secs

     total energy              =     -95.65650464 Ry
     estimated scf accuracy    <       0.00004512 Ry

     iteration # 31     ecut=    80.00 Ry     beta= 0.70
     Davidson diagonalization with overlap
     ethr =  1.87E-08,  avg # of iterations =  2.6

     total cpu time spent up to now is       93.8 secs

     total energy              =     -95.65650569 Ry
     estimated scf accuracy    <       0.00002349 Ry

     iteration # 32     ecut=    80.00 Ry     beta= 0.70
     Davidson diagonalization with overlap
     ethr =  1.87E-08,  avg # of iterations =  1.3

     total cpu time spent up to now is       94.6 secs

     total energy              =     -95.65650565 Ry
     estimated scf accuracy    <       0.00001262 Ry

     iteration # 33     ecut=    80.00 Ry     beta= 0.70
     Davidson diagonalization with overlap
     ethr =  1.87E-08,  avg # of iterations =  1.0

     total cpu time spent up to now is       95.4 secs

     total energy              =     -95.65650564 Ry
     estimated scf accuracy    <       0.00000343 Ry

     iteration # 34     ecut=    80.00 Ry     beta= 0.70
     Davidson diagonalization with overlap
     ethr =  9.02E-09,  avg # of iterations =  1.6

     total cpu time spent up to now is       96.2 secs

     total energy              =     -95.65650577 Ry
     estimated scf accuracy    <       0.00000027 Ry

     iteration # 35     ecut=    80.00 Ry     beta= 0.70
     Davidson diagonalization with overlap
     ethr =  7.09E-10,  avg # of iterations =  2.9

     total cpu time spent up to now is       97.1 secs

     total energy              =     -95.65650579 Ry
     estimated scf accuracy    <       0.00000091 Ry

     iteration # 36     ecut=    80.00 Ry     beta= 0.70
     Davidson diagonalization with overlap
     ethr =  7.09E-10,  avg # of iterations =  1.6

     total cpu time spent up to now is       98.0 secs

     total energy              =     -95.65650580 Ry
     estimated scf accuracy    <       0.00000008 Ry

     iteration # 37     ecut=    80.00 Ry     beta= 0.70
     Davidson diagonalization with overlap
     ethr =  2.18E-10,  avg # of iterations =  2.9

     total cpu time spent up to now is       98.9 secs

     total energy              =     -95.65650581 Ry
     estimated scf accuracy    <       0.00000002 Ry

     iteration # 38     ecut=    80.00 Ry     beta= 0.70
     Davidson diagonalization with overlap
     ethr =  5.99E-11,  avg # of iterations =  2.4

     total cpu time spent up to now is       99.7 secs

     total energy              =     -95.65650581 Ry
     estimated scf accuracy    <       0.00000003 Ry

     iteration # 39     ecut=    80.00 Ry     beta= 0.70
     Davidson diagonalization with overlap
     ethr =  5.99E-11,  avg # of iterations =  1.0

     total cpu time spent up to now is      100.5 secs

     End of self-consistent calculation

          k = 0.0000 0.0000 0.0000 (  9985 PWs)   bands (ev):

   -33.8650 -33.8590  -3.4324  -3.1622  -2.6761  -1.7903  -0.4321   1.1498
     1.9491   2.9977   5.1669   7.5664   7.9718  10.6280  12.8194  16.2944
    16.6598  20.7282  21.3339  21.3339  21.6801  21.6801  21.7736

          k = 0.0000 0.1209 0.0000 (  9939 PWs)   bands (ev):

   -33.8559 -33.8499  -3.1562  -2.8742  -2.3892  -1.5050  -0.1501   1.4288
     2.1845   3.2789   5.4192   7.8234   8.1515  10.8812  13.0063  16.3870
    16.5871  18.0316  18.8955  19.2577  19.3242  20.0282  20.5126

          k = 0.0000 0.2418 0.0000 (  9911 PWs)   bands (ev):

   -33.8320 -33.8260  -2.3306  -2.0129  -1.5314  -0.6518   0.6927   2.2618
     2.8855   4.1179   6.1670   8.5830   8.6887  11.5949  13.2346  13.8275
    14.5999  15.0013  15.6794  16.3549  17.0305  17.5453  17.6063

          k = 0.0000 0.3626 0.0000 (  9877 PWs)   bands (ev):

   -33.8024 -33.7964  -0.9649  -0.5859  -0.1106   0.7611   2.0850   3.6355
     4.0317   5.4948   7.3457   9.4079   9.6365  10.0268  10.6383  10.9478
    11.7873  12.8884  13.0540  13.4457  14.5476  15.6117  16.3750

          k = 0.0000 0.4835 0.0000 (  9866 PWs)   bands (ev):

   -33.7784 -33.7724   0.9207   1.3928   1.8583   2.7173   3.9967   5.4078
     5.5274   6.4258   6.8536   7.2831   7.6910   8.2893   8.9811   9.6782
    10.2803  10.7445  11.4666  12.0100  13.0058  14.4598  15.2598

          k = 0.0000-0.6044 0.0000 (  9888 PWs)   bands (ev):

   -33.7692 -33.7632   2.9889   3.6751   3.7765   3.9958   4.2876   4.4577
     5.1218   5.2472   6.0929   6.7422   7.2332   7.8822   8.1544   8.8062
     9.7085  10.2185  10.5765  11.7173  13.0601  14.0885  14.5443

          k = 0.1047 0.1813 0.0000 (  9919 PWs)   bands (ev):

   -33.8394 -33.8334  -2.6053  -2.2996  -1.8169  -0.9358   0.4124   1.9848
     2.6529   3.8392   5.9199   8.3329   8.5118  11.3730  13.3211  15.5482
    15.7346  16.6634  16.7446  16.9644  17.1863  17.3457  17.5064

          k = 0.1047 0.3022 0.0000 (  9884 PWs)   bands (ev):

   -33.8126 -33.8066  -1.5093  -1.1553  -0.6776   0.1974   1.5302   3.0890
     3.5798   4.9486   6.8969   9.2219   9.3147  11.7151  12.2258  12.7726
    13.1797  13.8190  14.0123  14.3920  14.9860  15.3045  15.7041

          k = 0.1047 0.4231 0.0000 (  9876 PWs)   bands (ev):

   -33.7858 -33.7798   0.1186   0.5479   1.0178   1.8830   3.1861   4.7163
     4.9257   6.5584   7.8799   8.5826   8.9090   9.3554  10.0622  10.3300
    10.8764  11.4296  12.5244  12.7852  13.3049  13.9246  14.2156

          k = 0.1047 0.5439 0.0000 (  9891 PWs)   bands (ev):

   -33.7692 -33.7632   2.2390   2.7903   3.2470   4.0877   4.9252   5.3023
     5.5808   5.9466   6.6098   6.8028   7.1787   8.2329   8.7654   9.3602
     9.7457  10.3751  11.4543  11.7638  12.6921  13.0855  13.6920

          k = 0.2094 0.3626 0.0000 (  9887 PWs)   bands (ev):

   -33.7887 -33.7827  -0.1501   0.2653   0.7367   1.6037   2.9133   4.4522
     4.7211   6.3076   8.0438  10.0631  10.1326  10.5676  10.7903  11.3008
    11.5001  11.6688  11.8221  12.4650  12.6478  13.4588  13.8435

          k = 0.2094 0.4835 0.0000 (  9887 PWs)   bands (ev):

   -33.7693 -33.7632   1.7284   2.2351   2.6964   3.5502   4.8107   6.1602
     6.2904   7.1933   7.6547   8.0710   8.4854   9.0854   9.4134   9.9075
    10.3951  10.4845  10.8189  11.0882  11.4776  11.8765  12.1691

          k = 0.2094 0.6044 0.0000 (  9874 PWs)   bands (ev):

   -33.7618 -33.7558   3.8157   4.4387   4.6108   4.8242   5.1109   5.2805
     5.9399   6.0583   6.9031   7.5437   7.9894   8.6179   8.8281   9.2901
     9.5999  10.0556  10.2297  10.9659  11.1605  11.3391  11.5841

          k = 0.3140 0.5439 0.0000 (  9871 PWs)   bands (ev):

   -33.7590 -33.7530   3.8290   4.4543   4.9005   5.7248   6.1961   6.8152
     6.8710   7.0679   7.3043   7.5060   7.7506   8.0663   8.2325   8.6604
     8.8329   9.3813  10.1026  10.2728  10.5337  11.1662  11.4111

     the Fermi energy is    12.8220 ev

!    total energy              =     -95.65650580 Ry
     estimated scf accuracy    <          9.2E-09 Ry
     smearing contrib. (-TS)   =      -0.00178929 Ry
     internal energy E=F+TS    =     -95.65471651 Ry

     The total energy is F=E-TS. E is the sum of the following terms:
     one-electron contribution =      13.06082062 Ry
     hartree contribution      =      15.02290517 Ry
     xc contribution           =     -33.28637334 Ry
     ewald contribution        =     -90.45206897 Ry

     convergence has been achieved in  39 iterations

     Forces acting on atoms (cartesian axes, Ry/au):

     atom    1 type  1   force =     0.00000000   -0.00000000    0.01019725
     atom    2 type  1   force =     0.00000000    0.00000000    0.00522304
     atom    3 type  1   force =     0.00000000    0.00000000   -0.11340656
     atom    4 type  1   force =     0.00000000    0.00000000   -0.01764210
     atom    5 type  1   force =     0.00000000    0.00000000   -0.15285360
     atom    6 type  1   force =     0.00000000    0.00000000    0.15816780
     atom    7 type  1   force =     0.00000000    0.00000000    0.11396335
     atom    8 type  1   force =     0.00000000    0.00000000   -0.00744089
     atom    9 type  2   force =     0.00000000   -0.00000000   -0.09911487
     atom   10 type  2   force =     0.00000000    0.00000000    0.10290659
     The non-local contrib.  to forces
     atom    1 type  1   force =     0.00000000   -0.00000000   -0.02630002
     atom    2 type  1   force =     0.00000000    0.00000000    0.00340744
     atom    3 type  1   force =     0.00000000    0.00000000   -0.16126468
     atom    4 type  1   force =     0.00000000   -0.00000000   -0.01041514
     atom    5 type  1   force =     0.00000000   -0.00000000   -0.17627322
     atom    6 type  1   force =     0.00000000   -0.00000000    0.19238142
     atom    7 type  1   force =     0.00000000    0.00000000    0.16427488
     atom    8 type  1   force =     0.00000000   -0.00000000    0.00761876
     atom    9 type  2   force =     0.00000000    0.00000000   -0.04942483
     atom   10 type  2   force =     0.00000000    0.00000000    0.05006128
     The ionic contribution  to forces
     atom    1 type  1   force =    -0.00000000    0.00000000    0.60130013
     atom    2 type  1   force =    -0.00000000    0.00000000   -2.79941776
     atom    3 type  1   force =    -0.00000001    0.00000000    1.56944985
     atom    4 type  1   force =     0.00000000   -0.00000000   -0.96424773
     atom    5 type  1   force =     0.00000000   -0.00000000   -4.11244596
     atom    6 type  1   force =     0.00000000   -0.00000000    4.28187124
     atom    7 type  1   force =    -0.00000002    0.00000001   -1.36554776
     atom    8 type  1   force =    -0.00000000    0.00000000    2.62345083
     atom    9 type  2   force =     0.00000002   -0.00000001   -3.35318599
     atom   10 type  2   force =     0.00000001   -0.00000001    3.51877314
     The local contribution  to forces
     atom    1 type  1   force =     0.00000000    0.00000000   -0.56673047
     atom    2 type  1   force =     0.00000000   -0.00000000    2.80049953
     atom    3 type  1   force =     0.00000000   -0.00000000   -1.52716679
     atom    4 type  1   force =    -0.00000000    0.00000000    0.95671051
     atom    5 type  1   force =     0.00000000   -0.00000000    4.12682074
     atom    6 type  1   force =     0.00000000   -0.00000000   -4.30588136
     atom    7 type  1   force =     0.00000001   -0.00000001    1.32111658
     atom    8 type  1   force =     0.00000001   -0.00000000   -2.63742817
     atom    9 type  2   force =     0.00000048   -0.00000028    3.30348518
     atom   10 type  2   force =     0.00000048   -0.00000028   -3.46583616
     The core correction contribution to forces
     atom    1 type  1   force =     0.00000000   -0.00000000    0.00192842
     atom    2 type  1   force =     0.00000000   -0.00000000    0.00057902
     atom    3 type  1   force =    -0.00000000    0.00000000    0.00567421
     atom    4 type  1   force =    -0.00000000    0.00000000    0.00022209
     atom    5 type  1   force =    -0.00000000    0.00000000    0.00893037
     atom    6 type  1   force =    -0.00000000    0.00000000   -0.01009980
     atom    7 type  1   force =     0.00000000   -0.00000000   -0.00583283
     atom    8 type  1   force =     0.00000000   -0.00000000   -0.00100936
     atom    9 type  2   force =     0.00000000    0.00000000    0.00000000
     atom   10 type  2   force =     0.00000000    0.00000000    0.00000000
     The Hubbard contrib.    to forces
     atom    1 type  1   force =     0.00000000    0.00000000    0.00000000
     atom    2 type  1   force =     0.00000000    0.00000000    0.00000000
     atom    3 type  1   force =     0.00000000    0.00000000    0.00000000
     atom    4 type  1   force =     0.00000000    0.00000000    0.00000000
     atom    5 type  1   force =     0.00000000    0.00000000    0.00000000
     atom    6 type  1   force =     0.00000000    0.00000000    0.00000000
     atom    7 type  1   force =     0.00000000    0.00000000    0.00000000
     atom    8 type  1   force =     0.00000000    0.00000000    0.00000000
     atom    9 type  2   force =     0.00000000    0.00000000    0.00000000
     atom   10 type  2   force =     0.00000000    0.00000000    0.00000000
     The SCF correction term to forces
     atom    1 type  1   force =     0.00000000    0.00000000   -0.00000072
     atom    2 type  1   force =    -0.00000000    0.00000000    0.00015489
     atom    3 type  1   force =    -0.00000000    0.00000000   -0.00009906
     atom    4 type  1   force =    -0.00000000    0.00000000    0.00008826
     atom    5 type  1   force =     0.00000000   -0.00000000    0.00011457
     atom    6 type  1   force =    -0.00000000    0.00000000   -0.00010360
     atom    7 type  1   force =    -0.00000000    0.00000000   -0.00004743
     atom    8 type  1   force =     0.00000000   -0.00000000   -0.00007285
     atom    9 type  2   force =     0.00000000   -0.00000000    0.00001087
     atom   10 type  2   force =     0.00000000   -0.00000000   -0.00009158

     Total force =     0.308450     Total SCF correction =     0.000286


     Computing stress (Cartesian axis) and pressure

          total   stress  (Ry/bohr**3)                   (kbar)     P=      454.39
   0.00234620   0.00000000   0.00000000          345.14        0.00        0.00
   0.00000000   0.00234620   0.00000000            0.00      345.14        0.00
   0.00000000  -0.00000000   0.00457424            0.00       -0.00      672.89

     Energy error            =      3.4E-01 Ry
     Gradient error          =      1.6E-01 Ry/Bohr
     Cell gradient error     =      1.7E+02 kbar

     number of scf cycles    =   2
     number of bfgs steps    =   1

     enthalpy           old  =     -92.8011117562 Ry
     enthalpy           new  =     -93.1446894362 Ry

     CASE: enthalpy          _new < enthalpy          _old

     new trust radius        =       0.3954150414 bohr
ibrav =      4
 celldm(1) =      4.54278112
 celldm(3) =      8.21426749
Input lattice vectors:
     0.88580655     0.00000000     0.00000000
    -0.44290328     0.76713098    -0.00000000
     0.00000000     0.00000000     7.27625196
New lattice vectors in INITIAL alat:
     0.88580655     0.00000000     0.00000000
    -0.44290328     0.76713098     0.00000000
     0.00000000     0.00000000     7.27625196
New lattice vectors in NEW alat (for information only):
     1.00000000     0.00000000     0.00000000
    -0.50000000     0.86602540     0.00000000
     0.00000000     0.00000000     8.21426749
Discrepancy in bohr =     0.000000    0.000000    0.000000
     new conv_thr            =       0.0000000100 Ry

     new unit-cell volume =    666.90644 a.u.^3 (    98.82534 Ang^3 )
     density =      4.00857 g/cm^3

CELL_PARAMETERS (alat=  5.12841219)
   0.885806552   0.000000000   0.000000000
  -0.442903276   0.767130977   0.000000000
   0.000000000   0.000000000   7.276251963

ATOMIC_POSITIONS (crystal)
Si           -0.0000000000       -0.0000000000        0.0381463749
Si            0.0000000000        0.0000000000        0.2670617525
Si            0.0000000000        0.0000000000        0.6292667249
Si            0.3333333300        0.6666666700        0.1500221904
Si            0.3333333300        0.6666666700        0.3668064391
Si            0.3333333300        0.6666666700        0.8191902593
Si            0.6666666700        0.3333333300        0.5563536943
Si            0.6666666700        0.3333333300        0.9204991850
Li            0.3333333300        0.6666666700        0.4708856698
Li            0.3333333300        0.6666666700        0.7147977097



     Writing config-only to output data dir ./output/SiLi.save/
     NEW-OLD atomic charge density approx. for the potential
     extrapolated charge   33.89355, renormalised to   38.00000

     total cpu time spent up to now is      105.1 secs

     Self-consistent Calculation

     iteration #  1     ecut=    80.00 Ry     beta= 0.70
     Davidson diagonalization with overlap
     c_bands:  3 eigenvalues not converged
     c_bands:  4 eigenvalues not converged
     c_bands:  3 eigenvalues not converged
     c_bands:  1 eigenvalues not converged
     c_bands:  1 eigenvalues not converged
     c_bands:  3 eigenvalues not converged
     c_bands:  5 eigenvalues not converged
     c_bands:  5 eigenvalues not converged
     c_bands:  1 eigenvalues not converged
     c_bands:  5 eigenvalues not converged
     ethr =  1.00E-06,  avg # of iterations = 26.1

     total cpu time spent up to now is      110.8 secs

     total energy              =     173.04090773 Ry
     estimated scf accuracy    <     292.72021286 Ry

     iteration #  2     ecut=    80.00 Ry     beta= 0.70
     Davidson diagonalization with overlap
     c_bands:  2 eigenvalues not converged
     c_bands:  3 eigenvalues not converged
     c_bands:  4 eigenvalues not converged
     c_bands:  1 eigenvalues not converged
     c_bands:  4 eigenvalues not converged
     ethr =  1.00E-02,  avg # of iterations = 40.6

     total cpu time spent up to now is      120.6 secs

     total energy              =    -183.88103412 Ry
     estimated scf accuracy    <    3558.30525730 Ry

     iteration #  3     ecut=    80.00 Ry     beta= 0.70
     Davidson diagonalization with overlap
     c_bands:  1 eigenvalues not converged
     c_bands:  5 eigenvalues not converged
     c_bands:  1 eigenvalues not converged
     c_bands:  1 eigenvalues not converged
     c_bands:  2 eigenvalues not converged
     c_bands:  1 eigenvalues not converged
     ethr =  1.00E-02,  avg # of iterations = 19.9

     total cpu time spent up to now is      125.4 secs

     total energy              =    -164.99973411 Ry
     estimated scf accuracy    <    1153.92397251 Ry

     iteration #  4     ecut=    80.00 Ry     beta= 0.70
     Davidson diagonalization with overlap
     ethr =  1.00E-02,  avg # of iterations =  9.7

     total cpu time spent up to now is      128.0 secs

     total energy              =    -169.82557855 Ry
     estimated scf accuracy    <    1294.33664789 Ry

     iteration #  5     ecut=    80.00 Ry     beta= 0.70
     Davidson diagonalization with overlap
     ethr =  1.00E-02,  avg # of iterations =  9.5

     total cpu time spent up to now is      129.6 secs

     total energy              =     -58.37629255 Ry
     estimated scf accuracy    <    1160.89799264 Ry

     iteration #  6     ecut=    80.00 Ry     beta= 0.70
     Davidson diagonalization with overlap
     ethr =  1.00E-02,  avg # of iterations =  8.8

     total cpu time spent up to now is      132.0 secs

     total energy              =     -92.68804425 Ry
     estimated scf accuracy    <     222.83222220 Ry

     iteration #  7     ecut=    80.00 Ry     beta= 0.70
     Davidson diagonalization with overlap
     ethr =  1.00E-02,  avg # of iterations = 11.4

     total cpu time spent up to now is      134.6 secs

     total energy              =    -115.68286766 Ry
     estimated scf accuracy    <     707.49186428 Ry

     iteration #  8     ecut=    80.00 Ry     beta= 0.70
     Davidson diagonalization with overlap
     ethr =  1.00E-02,  avg # of iterations =  2.6

     total cpu time spent up to now is      135.5 secs

     total energy              =    -110.00256069 Ry
     estimated scf accuracy    <     491.42408650 Ry

     iteration #  9     ecut=    80.00 Ry     beta= 0.70
     Davidson diagonalization with overlap
     ethr =  1.00E-02,  avg # of iterations =  1.8

     total cpu time spent up to now is      136.3 secs

     total energy              =    -105.72860126 Ry
     estimated scf accuracy    <     437.02195278 Ry

     iteration # 10     ecut=    80.00 Ry     beta= 0.70
     Davidson diagonalization with overlap
     ethr =  1.00E-02,  avg # of iterations =  1.0

     negative rho (up, down):  3.006E+00 0.000E+00

     total cpu time spent up to now is      137.1 secs

     total energy              =     136.51693947 Ry
     estimated scf accuracy    <     414.32614826 Ry

     iteration # 11     ecut=    80.00 Ry     beta= 0.70
     Davidson diagonalization with overlap
     ethr =  1.00E-02,  avg # of iterations = 28.6

     total cpu time spent up to now is      144.4 secs

     total energy              =    -318.64223541 Ry
     estimated scf accuracy    <    3515.21562755 Ry

     iteration # 12     ecut=    80.00 Ry     beta= 0.70
     Davidson diagonalization with overlap
     ethr =  1.00E-02,  avg # of iterations = 10.7

     total cpu time spent up to now is      146.3 secs

     total energy              =     -59.94591102 Ry
     estimated scf accuracy    <    2240.75401433 Ry

     iteration # 13     ecut=    80.00 Ry     beta= 0.70
     Davidson diagonalization with overlap
     ethr =  1.00E-02,  avg # of iterations = 10.1

     total cpu time spent up to now is      148.8 secs

     total energy              =     -86.65756350 Ry
     estimated scf accuracy    <     251.71828084 Ry

     iteration # 14     ecut=    80.00 Ry     beta= 0.70
     Davidson diagonalization with overlap
     ethr =  1.00E-02,  avg # of iterations =  7.7

     total cpu time spent up to now is      150.4 secs

     total energy              =     -93.80439173 Ry
     estimated scf accuracy    <      54.32665706 Ry

     iteration # 15     ecut=    80.00 Ry     beta= 0.70
     Davidson diagonalization with overlap
     ethr =  1.00E-02,  avg # of iterations =  4.4

     total cpu time spent up to now is      151.5 secs

     total energy              =     -96.48359970 Ry
     estimated scf accuracy    <      15.54228121 Ry

     iteration # 16     ecut=    80.00 Ry     beta= 0.70
     Davidson diagonalization with overlap
     ethr =  1.00E-02,  avg # of iterations =  6.0

     total cpu time spent up to now is      152.8 secs

     total energy              =     -98.61035934 Ry
     estimated scf accuracy    <     177.53385544 Ry

     iteration # 17     ecut=    80.00 Ry     beta= 0.70
     Davidson diagonalization with overlap
     ethr =  1.00E-02,  avg # of iterations =  1.4

     total cpu time spent up to now is      153.6 secs

     total energy              =     -96.68239668 Ry
     estimated scf accuracy    <     172.77022590 Ry

     iteration # 18     ecut=    80.00 Ry     beta= 0.70
     Davidson diagonalization with overlap
     ethr =  1.00E-02,  avg # of iterations =  1.5

     total cpu time spent up to now is      154.4 secs

     total energy              =     -96.56435217 Ry
     estimated scf accuracy    <      87.55886543 Ry

     iteration # 19     ecut=    80.00 Ry     beta= 0.70
     Davidson diagonalization with overlap
     ethr =  1.00E-02,  avg # of iterations =  1.1

     total cpu time spent up to now is      155.2 secs

     total energy              =     -89.38047509 Ry
     estimated scf accuracy    <      72.21090162 Ry

     iteration # 20     ecut=    80.00 Ry     beta= 0.70
     Davidson diagonalization with overlap
     ethr =  1.00E-02,  avg # of iterations =  7.9

     total cpu time spent up to now is      156.8 secs

     total energy              =     -91.00425270 Ry
     estimated scf accuracy    <     233.65221295 Ry

     iteration # 21     ecut=    80.00 Ry     beta= 0.70
     Davidson diagonalization with overlap
     ethr =  1.00E-02,  avg # of iterations =  5.9

     total cpu time spent up to now is      158.0 secs

     total energy              =     -95.39820767 Ry
     estimated scf accuracy    <       1.59858008 Ry

     iteration # 22     ecut=    80.00 Ry     beta= 0.70
     Davidson diagonalization with overlap
     ethr =  4.21E-03,  avg # of iterations =  2.1

     total cpu time spent up to now is      158.9 secs

     total energy              =     -95.46466565 Ry
     estimated scf accuracy    <       0.87423083 Ry

     iteration # 23     ecut=    80.00 Ry     beta= 0.70
     Davidson diagonalization with overlap
     ethr =  2.30E-03,  avg # of iterations =  1.2

     total cpu time spent up to now is      159.6 secs

     total energy              =     -95.46244863 Ry
     estimated scf accuracy    <       0.45436972 Ry

     iteration # 24     ecut=    80.00 Ry     beta= 0.70
     Davidson diagonalization with overlap
     ethr =  1.20E-03,  avg # of iterations =  3.2

     total cpu time spent up to now is      160.5 secs

     total energy              =     -95.49070932 Ry
     estimated scf accuracy    <       0.02044453 Ry

     iteration # 25     ecut=    80.00 Ry     beta= 0.70
     Davidson diagonalization with overlap
     ethr =  5.38E-05,  avg # of iterations = 10.5

     total cpu time spent up to now is      161.9 secs

     total energy              =     -95.50898634 Ry
     estimated scf accuracy    <       0.60190139 Ry

     iteration # 26     ecut=    80.00 Ry     beta= 0.70
     Davidson diagonalization with overlap
     ethr =  5.38E-05,  avg # of iterations =  1.0

     total cpu time spent up to now is      162.7 secs

     total energy              =     -95.50920632 Ry
     estimated scf accuracy    <       0.49874071 Ry

     iteration # 27     ecut=    80.00 Ry     beta= 0.70
     Davidson diagonalization with overlap
     ethr =  5.38E-05,  avg # of iterations =  1.0

     total cpu time spent up to now is      163.5 secs

     total energy              =     -95.50829450 Ry
     estimated scf accuracy    <       0.49751339 Ry

     iteration # 28     ecut=    80.00 Ry     beta= 0.70
     Davidson diagonalization with overlap
     ethr =  5.38E-05,  avg # of iterations =  1.0

     total cpu time spent up to now is      164.2 secs

     total energy              =     -95.50742006 Ry
     estimated scf accuracy    <       0.48843608 Ry

     iteration # 29     ecut=    80.00 Ry     beta= 0.70
     Davidson diagonalization with overlap
     ethr =  5.38E-05,  avg # of iterations =  2.8

     total cpu time spent up to now is      165.1 secs

     total energy              =     -95.50748032 Ry
     estimated scf accuracy    <       0.46049530 Ry

     iteration # 30     ecut=    80.00 Ry     beta= 0.70
     Davidson diagonalization with overlap
     ethr =  5.38E-05,  avg # of iterations =  2.0

     total cpu time spent up to now is      165.9 secs

     total energy              =     -95.50654944 Ry
     estimated scf accuracy    <       0.48325041 Ry

     iteration # 31     ecut=    80.00 Ry     beta= 0.70
     Davidson diagonalization with overlap
     ethr =  5.38E-05,  avg # of iterations =  1.9

     total cpu time spent up to now is      166.7 secs

     total energy              =     -95.50259341 Ry
     estimated scf accuracy    <       0.46152260 Ry

     iteration # 32     ecut=    80.00 Ry     beta= 0.70
     Davidson diagonalization with overlap
     ethr =  5.38E-05,  avg # of iterations =  1.1

     total cpu time spent up to now is      167.4 secs

     total energy              =     -95.50417167 Ry
     estimated scf accuracy    <       0.29515385 Ry

     iteration # 33     ecut=    80.00 Ry     beta= 0.70
     Davidson diagonalization with overlap
     ethr =  5.38E-05,  avg # of iterations =  3.6

     total cpu time spent up to now is      168.4 secs

     total energy              =     -95.47754395 Ry
     estimated scf accuracy    <       0.65595301 Ry

     iteration # 34     ecut=    80.00 Ry     beta= 0.70
     Davidson diagonalization with overlap
     ethr =  5.38E-05,  avg # of iterations =  6.6

     total cpu time spent up to now is      169.5 secs

     total energy              =     -95.49335864 Ry
     estimated scf accuracy    <       0.31646914 Ry

     iteration # 35     ecut=    80.00 Ry     beta= 0.70
     Davidson diagonalization with overlap
     ethr =  5.38E-05,  avg # of iterations =  4.0

     total cpu time spent up to now is      170.4 secs

     total energy              =     -95.49826585 Ry
     estimated scf accuracy    <       0.00167451 Ry

     iteration # 36     ecut=    80.00 Ry     beta= 0.70
     Davidson diagonalization with overlap
     ethr =  4.41E-06,  avg # of iterations =  5.9

     total cpu time spent up to now is      171.4 secs

     total energy              =     -95.49839087 Ry
     estimated scf accuracy    <       0.00141461 Ry

     iteration # 37     ecut=    80.00 Ry     beta= 0.70
     Davidson diagonalization with overlap
     ethr =  3.72E-06,  avg # of iterations =  1.0

     total cpu time spent up to now is      172.1 secs

     total energy              =     -95.49840549 Ry
     estimated scf accuracy    <       0.00017026 Ry

     iteration # 38     ecut=    80.00 Ry     beta= 0.70
     Davidson diagonalization with overlap
     ethr =  4.48E-07,  avg # of iterations =  3.9

     total cpu time spent up to now is      173.1 secs

     total energy              =     -95.49841845 Ry
     estimated scf accuracy    <       0.00008612 Ry

     iteration # 39     ecut=    80.00 Ry     beta= 0.70
     Davidson diagonalization with overlap
     ethr =  2.27E-07,  avg # of iterations =  1.3

     total cpu time spent up to now is      173.8 secs

     total energy              =     -95.49842004 Ry
     estimated scf accuracy    <       0.00001133 Ry

     iteration # 40     ecut=    80.00 Ry     beta= 0.70
     Davidson diagonalization with overlap
     ethr =  2.98E-08,  avg # of iterations =  3.6

     total cpu time spent up to now is      174.7 secs

     total energy              =     -95.49842066 Ry
     estimated scf accuracy    <       0.00001018 Ry

     iteration # 41     ecut=    80.00 Ry     beta= 0.70
     Davidson diagonalization with overlap
     ethr =  2.68E-08,  avg # of iterations =  1.1

     total cpu time spent up to now is      175.5 secs

     total energy              =     -95.49842093 Ry
     estimated scf accuracy    <       0.00000019 Ry

     iteration # 42     ecut=    80.00 Ry     beta= 0.70
     Davidson diagonalization with overlap
     ethr =  4.99E-10,  avg # of iterations =  5.8

     total cpu time spent up to now is      176.6 secs

     total energy              =     -95.49842102 Ry
     estimated scf accuracy    <       0.00000091 Ry

     iteration # 43     ecut=    80.00 Ry     beta= 0.70
     Davidson diagonalization with overlap
     ethr =  4.99E-10,  avg # of iterations =  1.2

     total cpu time spent up to now is      177.3 secs

     total energy              =     -95.49842101 Ry
     estimated scf accuracy    <       0.00000035 Ry

     iteration # 44     ecut=    80.00 Ry     beta= 0.70
     Davidson diagonalization with overlap
     ethr =  4.99E-10,  avg # of iterations =  2.8

     total cpu time spent up to now is      178.2 secs

     total energy              =     -95.49842102 Ry
     estimated scf accuracy    <       0.00000018 Ry

     iteration # 45     ecut=    80.00 Ry     beta= 0.70
     Davidson diagonalization with overlap
     ethr =  4.61E-10,  avg # of iterations =  1.5

     total cpu time spent up to now is      178.9 secs

     total energy              =     -95.49842103 Ry
     estimated scf accuracy    <       0.00000003 Ry

     iteration # 46     ecut=    80.00 Ry     beta= 0.70
     Davidson diagonalization with overlap
     ethr =  7.06E-11,  avg # of iterations =  2.6

     total cpu time spent up to now is      179.6 secs

     End of self-consistent calculation

          k = 0.0000 0.0000 0.0000 (  9985 PWs)   bands (ev):

   -31.8755 -31.8550  -4.7500  -3.0247  -2.8525  -1.8828  -0.1283   1.4153
     2.2642   2.8584   5.5265   7.5353   8.0704  10.2710  13.0306  15.8861
    16.1881  19.5577  21.4380  23.6320  23.6323  24.3760  25.2009

          k = 0.0000 0.1304 0.0000 (  9939 PWs)   bands (ev):

   -31.8596 -31.8391  -4.4260  -2.6913  -2.5202  -1.5511   0.2010   1.7407
     2.5641   3.1823   5.8338   7.8375   8.3136  10.5707  13.2721  16.1158
    16.2261  19.4229  20.2818  21.4884  21.5983  22.4679  22.6998

          k = 0.0000 0.2607 0.0000 (  9911 PWs)   bands (ev):

   -31.8178 -31.7973  -3.4588  -1.6954  -1.5273  -0.5600   1.1842   2.7108
     3.4531   4.1462   6.7517   8.7362   9.0413  11.4480  13.8252  14.7336
    16.6512  17.0145  17.5196  17.8504  18.6541  19.7432  19.8353

          k = 0.0000 0.3911 0.0000 (  9877 PWs)   bands (ev):

   -31.7660 -31.7454  -1.8634  -0.0496   0.1134   1.0775   2.8054   4.3039
     4.8811   5.7164   8.2552  10.1325  10.2289  10.5660  12.3282  12.8148
    13.4857  13.9112  15.0649  15.5014  16.6774  17.2151  17.6628

          k = 0.0000 0.5214 0.0000 (  9866 PWs)   bands (ev):

   -31.7238 -31.7032   0.3345   2.2234   2.3785   3.3352   5.0181   5.9194
     6.4099   7.4449   7.7815   8.7500   9.1059   9.8510  10.3681  11.4645
    11.7172  12.2841  12.9765  13.2983  14.2465  15.2356  16.7174

          k = 0.0000-0.6518 0.0000 (  9888 PWs)   bands (ev):

   -31.7077 -31.6871   3.0664   3.1014   5.0262   5.0812   5.1936   5.2486
     5.9819   6.2539   7.7078   8.3752   9.2728   9.3838   9.6621  10.1595
    10.8698  11.1943  12.3193  13.2407  14.2007  15.1255  15.2607

          k = 0.1129 0.1955 0.0000 (  9919 PWs)   bands (ev):

   -31.8307 -31.8102  -3.7804  -2.0267  -1.8575  -0.8896   0.8573   2.3885
     3.1589   3.8263   6.4466   8.4385   8.7996  11.1620  13.7138  15.9735
    16.4697  17.5942  18.3015  19.7136  20.0535  20.1870  20.3217

          k = 0.1129 0.3259 0.0000 (  9884 PWs)   bands (ev):

   -31.7839 -31.7634  -2.4991  -0.7058  -0.5407   0.4248   2.1599   3.6714
     4.3241   5.0965   7.6616   9.6172   9.7674  12.2287  12.7775  14.3918
    15.2659  15.4072  15.7327  16.2408  17.3472  17.7064  17.9447

          k = 0.1129 0.4562 0.0000 (  9876 PWs)   bands (ev):

   -31.7369 -31.7163  -0.6019   1.2541   1.4129   2.3737   4.0837   5.5473
     5.9155   6.9116   8.8606   9.4517  10.6767  10.9750  11.2283  11.4922
    12.1526  13.5830  14.0855  14.3718  14.8220  14.9576  15.9988

          k = 0.1129 0.5866 0.0000 (  9891 PWs)   bands (ev):

   -31.7078 -31.6872   1.8769   3.8207   3.9688   4.8242   4.9221   6.4280
     6.8141   7.0796   7.9984   8.5622   8.6443   9.6901  10.0122  11.1646
    11.4510  11.8954  12.6473  13.0682  13.6971  14.3911  15.4015

          k = 0.2258 0.3911 0.0000 (  9887 PWs)   bands (ev):

   -31.7419 -31.7214  -0.9158   0.9295   1.0893   2.0512   3.7675   5.2458
     5.7140   6.6375   9.1475  10.9554  10.9665  11.2524  11.5300  13.0956
    13.5052  13.5566  13.8067  14.3668  14.6943  14.8885  15.6243

          k = 0.2258 0.5214 0.0000 (  9887 PWs)   bands (ev):

   -31.7079 -31.6873   1.2652   3.1871   3.3387   4.2922   5.9564   6.7647
     7.3141   8.2717   8.5508   9.6435   9.9706  10.5948  10.7287  11.2211
    12.1295  12.3338  12.5650  12.7840  13.1199  13.9796  14.3257

          k = 0.2258 0.6518 0.0000 (  9874 PWs)   bands (ev):

   -31.6949 -31.6743   3.9809   4.0020   5.9659   6.0245   6.1297   6.1894
     6.9130   7.1833   8.6192   9.2066   9.2551  10.1985  10.3619  10.9743
    11.1108  11.3035  11.7450  12.9682  13.1994  13.2761  13.7887

          k = 0.3387 0.5866 0.0000 (  9871 PWs)   bands (ev):

   -31.6900 -31.6693   3.7011   5.7130   5.8519   6.4870   6.7047   6.7931
     8.1619   8.5153   8.8041   8.8865   8.9306   9.6666   9.9456  10.5669
    10.7043  11.3218  12.0477  12.4895  12.9742  13.2662  13.4280

     the Fermi energy is    14.2428 ev

!    total energy              =     -95.49842103 Ry
     estimated scf accuracy    <          1.5E-09 Ry
     smearing contrib. (-TS)   =      -0.00038247 Ry
     internal energy E=F+TS    =     -95.49803855 Ry

     The total energy is F=E-TS. E is the sum of the following terms:
     one-electron contribution =      20.78294797 Ry
     hartree contribution      =      13.19863026 Ry
     xc contribution           =     -34.21723497 Ry
     ewald contribution        =     -95.26238181 Ry

     convergence has been achieved in  46 iterations

     Forces acting on atoms (cartesian axes, Ry/au):

     atom    1 type  1   force =     0.00000000    0.00000000   -0.01521084
     atom    2 type  1   force =     0.00000000    0.00000000   -0.06494547
     atom    3 type  1   force =     0.00000000   -0.00000000    0.41942648
     atom    4 type  1   force =     0.00000000    0.00000000    0.01338720
     atom    5 type  1   force =     0.00000000    0.00000000   -0.01597188
     atom    6 type  1   force =     0.00000000   -0.00000000    0.02552746
     atom    7 type  1   force =     0.00000000   -0.00000000   -0.42041468
     atom    8 type  1   force =     0.00000000    0.00000000    0.05487685
     atom    9 type  2   force =     0.00000000    0.00000000   -0.01915723
     atom   10 type  2   force =     0.00000000    0.00000000    0.02248214
     The non-local contrib.  to forces
     atom    1 type  1   force =     0.00000000    0.00000000   -0.03216234
     atom    2 type  1   force =     0.00000000    0.00000000   -0.05357013
     atom    3 type  1   force =     0.00000000    0.00000000    0.27117889
     atom    4 type  1   force =     0.00000000    0.00000000   -0.00420473
     atom    5 type  1   force =     0.00000000    0.00000000   -0.02023461
     atom    6 type  1   force =     0.00000000    0.00000000    0.05745931
     atom    7 type  1   force =     0.00000000    0.00000000   -0.26668584
     atom    8 type  1   force =     0.00000000   -0.00000000    0.06385394
     atom    9 type  2   force =     0.00000000    0.00000000   -0.04199733
     atom   10 type  2   force =     0.00000000    0.00000000    0.04067554
     The ionic contribution  to forces
     atom    1 type  1   force =    -0.00000000    0.00000000    0.55699657
     atom    2 type  1   force =    -0.00000000    0.00000000   -3.33034878
     atom    3 type  1   force =     0.00000000   -0.00000000    3.30720545
     atom    4 type  1   force =     0.00000000   -0.00000000   -0.87987374
     atom    5 type  1   force =     0.00000000   -0.00000000   -2.39576919
     atom    6 type  1   force =     0.00000000   -0.00000000    2.52712317
     atom    7 type  1   force =    -0.00000001    0.00000001   -3.08671463
     atom    8 type  1   force =    -0.00000000    0.00000000    3.14321486
     atom    9 type  2   force =     0.00000001   -0.00000000   -3.31973125
     atom   10 type  2   force =     0.00000000   -0.00000000    3.47789754
     The local contribution  to forces
     atom    1 type  1   force =    -0.00000000   -0.00000000   -0.54259448
     atom    2 type  1   force =    -0.00000000   -0.00000000    3.31281972
     atom    3 type  1   force =    -0.00000000   -0.00000000   -3.13422116
     atom    4 type  1   force =    -0.00000001    0.00000001    0.89789441
     atom    5 type  1   force =    -0.00000001    0.00000000    2.40216883
     atom    6 type  1   force =    -0.00000001    0.00000000   -2.55875834
     atom    7 type  1   force =     0.00000001   -0.00000001    2.90840328
     atom    8 type  1   force =     0.00000001   -0.00000001   -3.14569511
     atom    9 type  2   force =     0.00000044   -0.00000026    3.34255317
     atom   10 type  2   force =     0.00000044   -0.00000026   -3.49610801
     The core correction contribution to forces
     atom    1 type  1   force =     0.00000000   -0.00000000    0.00254454
     atom    2 type  1   force =     0.00000000   -0.00000000    0.00615066
     atom    3 type  1   force =    -0.00000000    0.00000000   -0.02475889
     atom    4 type  1   force =    -0.00000000    0.00000000   -0.00044970
     atom    5 type  1   force =    -0.00000000    0.00000000   -0.00211219
     atom    6 type  1   force =    -0.00000000    0.00000000   -0.00027523
     atom    7 type  1   force =     0.00000000   -0.00000000    0.02452863
     atom    8 type  1   force =     0.00000000   -0.00000000   -0.00642364
     atom    9 type  2   force =     0.00000000    0.00000000    0.00000000
     atom   10 type  2   force =     0.00000000    0.00000000    0.00000000
     The Hubbard contrib.    to forces
     atom    1 type  1   force =     0.00000000    0.00000000    0.00000000
     atom    2 type  1   force =     0.00000000    0.00000000    0.00000000
     atom    3 type  1   force =     0.00000000    0.00000000    0.00000000
     atom    4 type  1   force =     0.00000000    0.00000000    0.00000000
     atom    5 type  1   force =     0.00000000    0.00000000    0.00000000
     atom    6 type  1   force =     0.00000000    0.00000000    0.00000000
     atom    7 type  1   force =     0.00000000    0.00000000    0.00000000
     atom    8 type  1   force =     0.00000000    0.00000000    0.00000000
     atom    9 type  2   force =     0.00000000    0.00000000    0.00000000
     atom   10 type  2   force =     0.00000000    0.00000000    0.00000000
     The SCF correction term to forces
     atom    1 type  1   force =     0.00000000   -0.00000000    0.00000481
     atom    2 type  1   force =     0.00000000   -0.00000000    0.00000300
     atom    3 type  1   force =    -0.00000000    0.00000000    0.00002212
     atom    4 type  1   force =    -0.00000000    0.00000000    0.00002090
     atom    5 type  1   force =     0.00000000   -0.00000000   -0.00002478
     atom    6 type  1   force =     0.00000000   -0.00000000   -0.00002151
     atom    7 type  1   force =    -0.00000000    0.00000000    0.00005382
     atom    8 type  1   force =    -0.00000000    0.00000000   -0.00007326
     atom    9 type  2   force =    -0.00000000    0.00000000    0.00001812
     atom   10 type  2   force =     0.00000000   -0.00000000    0.00001701

     Total force =     0.601736     Total SCF correction =     0.000104


     Computing stress (Cartesian axis) and pressure

          total   stress  (Ry/bohr**3)                   (kbar)     P=      760.29
   0.00481747  -0.00000000   0.00000000          708.67       -0.00        0.00
   0.00000000   0.00481747  -0.00000000            0.00      708.67       -0.00
   0.00000000  -0.00000000   0.00587004            0.00       -0.00      863.51

     Energy error            =      8.7E-02 Ry
     Gradient error          =      4.2E-01 Ry/Bohr
     Cell gradient error     =      3.6E+02 kbar

     number of scf cycles    =   3
     number of bfgs steps    =   2

     enthalpy           old  =     -93.1446894362 Ry
     enthalpy           new  =     -93.2316521095 Ry

     CASE: enthalpy          _new < enthalpy          _old

[...]
     Davidson diagonalization with overlap
     ethr =  5.83E-04,  avg # of iterations =  1.3

     total cpu time spent up to now is      485.2 secs

     total energy              =     -95.87661463 Ry
     estimated scf accuracy    <       0.01482460 Ry

     iteration # 10     ecut=    80.00 Ry     beta= 0.70
     Davidson diagonalization with overlap
     c_bands:  1 eigenvalues not converged
     ethr =  3.90E-05,  avg # of iterations =  8.9

     total cpu time spent up to now is      486.2 secs

     total energy              =     -95.87889233 Ry
     estimated scf accuracy    <       0.02998525 Ry

     iteration # 11     ecut=    80.00 Ry     beta= 0.70
     Davidson diagonalization with overlap
     ethr =  3.90E-05,  avg # of iterations =  1.2

     total cpu time spent up to now is      486.9 secs

     total energy              =     -95.87901006 Ry
     estimated scf accuracy    <       0.00673449 Ry

     iteration # 12     ecut=    80.00 Ry     beta= 0.70
     Davidson diagonalization with overlap
     ethr =  1.77E-05,  avg # of iterations =  2.0

     total cpu time spent up to now is      487.6 secs

     total energy              =     -95.87913835 Ry
     estimated scf accuracy    <       0.00053107 Ry

     iteration # 13     ecut=    80.00 Ry     beta= 0.70
     Davidson diagonalization with overlap
     ethr =  1.40E-06,  avg # of iterations =  8.8

     total cpu time spent up to now is      488.5 secs

     total energy              =     -95.87919641 Ry
     estimated scf accuracy    <       0.00115929 Ry

     iteration # 14     ecut=    80.00 Ry     beta= 0.70
     Davidson diagonalization with overlap
     ethr =  1.40E-06,  avg # of iterations =  2.9

     total cpu time spent up to now is      489.3 secs

     total energy              =     -95.87918022 Ry
     estimated scf accuracy    <       0.00156743 Ry

     iteration # 15     ecut=    80.00 Ry     beta= 0.70
     Davidson diagonalization with overlap
     ethr =  1.40E-06,  avg # of iterations =  1.8

     total cpu time spent up to now is      490.0 secs

     total energy              =     -95.87922680 Ry
     estimated scf accuracy    <       0.00029513 Ry

     iteration # 16     ecut=    80.00 Ry     beta= 0.70
     Davidson diagonalization with overlap
     ethr =  7.77E-07,  avg # of iterations =  1.3

     total cpu time spent up to now is      490.7 secs

     total energy              =     -95.87923169 Ry
     estimated scf accuracy    <       0.00005621 Ry

     iteration # 17     ecut=    80.00 Ry     beta= 0.70
     Davidson diagonalization with overlap
     ethr =  1.48E-07,  avg # of iterations =  3.1

     total cpu time spent up to now is      491.5 secs

     total energy              =     -95.87923598 Ry
     estimated scf accuracy    <       0.00003042 Ry

     iteration # 18     ecut=    80.00 Ry     beta= 0.70
     Davidson diagonalization with overlap
     ethr =  8.00E-08,  avg # of iterations =  1.4

     total cpu time spent up to now is      492.1 secs

     total energy              =     -95.87923616 Ry
     estimated scf accuracy    <       0.00001238 Ry

     iteration # 19     ecut=    80.00 Ry     beta= 0.70
     Davidson diagonalization with overlap
     ethr =  3.26E-08,  avg # of iterations =  2.4

     total cpu time spent up to now is      492.9 secs

     total energy              =     -95.87923668 Ry
     estimated scf accuracy    <       0.00001316 Ry

     iteration # 20     ecut=    80.00 Ry     beta= 0.70
     Davidson diagonalization with overlap
     ethr =  3.26E-08,  avg # of iterations =  1.1

     total cpu time spent up to now is      493.5 secs

     total energy              =     -95.87923719 Ry
     estimated scf accuracy    <       0.00000068 Ry

     iteration # 21     ecut=    80.00 Ry     beta= 0.70
     Davidson diagonalization with overlap
     ethr =  1.78E-09,  avg # of iterations =  3.6

     total cpu time spent up to now is      494.3 secs

     total energy              =     -95.87923730 Ry
     estimated scf accuracy    <       0.00000018 Ry

     iteration # 22     ecut=    80.00 Ry     beta= 0.70
     Davidson diagonalization with overlap
     ethr =  4.73E-10,  avg # of iterations =  2.9

     total cpu time spent up to now is      495.1 secs

     total energy              =     -95.87923731 Ry
     estimated scf accuracy    <       0.00000028 Ry

     iteration # 23     ecut=    80.00 Ry     beta= 0.70
     Davidson diagonalization with overlap
     ethr =  4.73E-10,  avg # of iterations =  1.2

     total cpu time spent up to now is      495.7 secs

     total energy              =     -95.87923732 Ry
     estimated scf accuracy    <       0.00000004 Ry

     iteration # 24     ecut=    80.00 Ry     beta= 0.70
     Davidson diagonalization with overlap
     ethr =  1.12E-10,  avg # of iterations =  2.6

     total cpu time spent up to now is      496.5 secs

     total energy              =     -95.87923732 Ry
     estimated scf accuracy    <          7.6E-09 Ry

     iteration # 25     ecut=    80.00 Ry     beta= 0.70
     Davidson diagonalization with overlap
     ethr =  1.99E-11,  avg # of iterations =  3.1

     total cpu time spent up to now is      497.2 secs

     total energy              =     -95.87923732 Ry
     estimated scf accuracy    <          7.1E-09 Ry

     iteration # 26     ecut=    80.00 Ry     beta= 0.70
     Davidson diagonalization with overlap
     ethr =  1.86E-11,  avg # of iterations =  1.1

     total cpu time spent up to now is      497.8 secs

     total energy              =     -95.87923732 Ry
     estimated scf accuracy    <          2.2E-09 Ry

     iteration # 27     ecut=    80.00 Ry     beta= 0.70
     Davidson diagonalization with overlap
     ethr =  5.90E-12,  avg # of iterations =  2.5

     total cpu time spent up to now is      498.5 secs

     total energy              =     -95.87923732 Ry
     estimated scf accuracy    <          9.6E-09 Ry

     iteration # 28     ecut=    80.00 Ry     beta= 0.70
     Davidson diagonalization with overlap
     ethr =  5.90E-12,  avg # of iterations =  1.9

     total cpu time spent up to now is      499.2 secs

     total energy              =     -95.87923732 Ry
     estimated scf accuracy    <          2.2E-10 Ry

     iteration # 29     ecut=    80.00 Ry     beta= 0.70
     Davidson diagonalization with overlap
     ethr =  5.91E-13,  avg # of iterations =  3.9

     total cpu time spent up to now is      500.0 secs

     total energy              =     -95.87923732 Ry
     estimated scf accuracy    <          3.3E-10 Ry

     iteration # 30     ecut=    80.00 Ry     beta= 0.70
     Davidson diagonalization with overlap
     ethr =  5.91E-13,  avg # of iterations =  1.9

     total cpu time spent up to now is      500.7 secs

     total energy              =     -95.87923732 Ry
     estimated scf accuracy    <          5.1E-10 Ry

     iteration # 31     ecut=    80.00 Ry     beta= 0.70
     Davidson diagonalization with overlap
     ethr =  5.91E-13,  avg # of iterations =  1.3

     total cpu time spent up to now is      501.4 secs

     End of self-consistent calculation

          k = 0.0000 0.0000 0.0000 (  8617 PWs)   bands (ev):

   -32.5270 -32.4910  -4.1750  -3.5183  -2.9644  -2.5651  -1.0492   0.7021
     1.1655   2.7694   4.9422   6.5046   7.5178  10.2556  12.3476  14.0121
    15.6458  19.1822  19.7021  23.4228  24.9717  24.9719  25.0119

          k = 0.0000 0.1285 0.0000 (  8569 PWs)   bands (ev):

   -32.5136 -32.4776  -3.8501  -3.1945  -2.6431  -2.2432  -0.7297   1.0184
     1.4741   3.0829   5.2406   6.7766   7.8097  10.5368  12.5418  14.2640
    15.8399  19.3047  19.6498  20.7943  21.2221  21.8597  22.1297

          k = 0.0000 0.2571 0.0000 (  8527 PWs)   bands (ev):

   -32.4783 -32.4422  -2.8794  -2.2270  -1.6831  -1.2813   0.2247   1.9626
     2.3937   4.0155   6.1318   7.5905   8.6710  11.3465  13.0560  14.7809
    15.8362  16.1365  16.5627  16.9560  17.5689  18.5606  19.7407

          k = 0.0000 0.3856 0.0000 (  8495 PWs)   bands (ev):

   -32.4345 -32.3984  -1.2740  -0.6272  -0.0960   0.3086   1.8003   3.5166
     3.9033   5.5309   7.5933   8.9306   9.9097  11.2404  11.8202  12.0721
    12.5921  13.2802  13.9581  14.1462  15.6603  16.3393  16.8117

          k = 0.0000 0.5142 0.0000 (  8468 PWs)   bands (ev):

   -32.3990 -32.3629   0.9462   1.5835   2.0972   2.5023   3.9598   5.5881
     5.9071   6.8469   7.5296   8.3340   8.4336   8.8300   9.6291  10.2955
    10.7271  11.6139  11.9282  12.5996  13.8093  14.8748  15.6155

          k = 0.0000-0.6427 0.0000 (  8422 PWs)   bands (ev):

   -32.3854 -32.3493   3.7007   3.7796   4.2669   4.4270   4.8191   4.8610
     5.1819   5.2719   6.4915   7.2741   8.4351   8.6564   8.7456   8.7919
    10.5040  10.7867  11.6163  12.3804  13.2465  14.5904  14.7678

          k = 0.1113 0.1928 0.0000 (  8541 PWs)   bands (ev):

   -32.4892 -32.4532  -3.2023  -2.5489  -2.0025  -1.6013  -0.0928   1.6487
     2.0883   3.7061   5.8356   7.3198   8.3874  11.0870  12.9069  14.7199
    16.1430  18.2611  18.4014  18.9091  18.9296  19.0427  19.3077

          k = 0.1113 0.3214 0.0000 (  8535 PWs)   bands (ev):

   -32.4497 -32.4136  -1.9142  -1.2652  -0.7288  -0.3252   1.1725   2.8987
     3.3040   4.9342   7.0156   8.4010   9.4986  12.0303  13.3255  13.8015
    14.2101  14.7793  15.0996  15.7389  16.3074  16.8078  17.1030

          k = 0.1113 0.4499 0.0000 (  8505 PWs)   bands (ev):

   -32.4100 -32.3739  -0.0012   0.6407   1.1620   1.5678   3.0450   4.7351
     5.0844   6.6680   8.6627   9.3668   9.9664  10.0439  10.4226  10.8015
    11.5138  12.3346  13.5477  13.7564  14.1158  15.0936  15.3123

          k = 0.1113 0.5784 0.0000 (  8466 PWs)   bands (ev):

   -32.3854 -32.3493   2.5104   3.1376   3.6398   4.0341   5.3366   5.6519
     6.1042   6.4615   6.9121   7.7210   7.7942   8.7222   9.3604  10.3050
    10.4774  11.1195  12.0223  12.2601  13.5721  14.3171  14.8620

          k = 0.2226 0.3856 0.0000 (  8509 PWs)   bands (ev):

   -32.4142 -32.3782  -0.3183   0.3249   0.8488   1.2545   2.7364   4.4371
     4.7972   6.4188   8.4593   9.7365  10.6524  11.8630  12.2759  12.4611
    12.8048  12.9122  12.9868  13.3670  13.5572  14.2707  14.4765

          k = 0.2226 0.5142 0.0000 (  8494 PWs)   bands (ev):

   -32.3855 -32.3494   1.8883   2.5214   3.0284   3.4323   4.8755   6.4789
     6.7762   7.7331   8.3957   9.1804   9.2990   9.6748  10.3978  10.9875
    11.1696  11.5320  11.6211  12.0329  12.3824  12.8152  13.2572

          k = 0.2226 0.6427 0.0000 (  8486 PWs)   bands (ev):

   -32.3746 -32.3384   4.6232   4.7035   5.1803   5.3456   5.7357   5.7687
     6.0887   6.1746   7.3810   8.1526   9.2398   9.4499   9.5377   9.6042
    10.4226  10.7473  11.8342  12.1689  12.3826  12.5057  12.6762

          k = 0.3340 0.5784 0.0000 (  8488 PWs)   bands (ev):

   -32.3704 -32.3343   4.3656   4.9781   5.4696   5.8448   7.0376   7.3863
     7.4601   7.7675   8.0527   8.0895   8.4659   8.5343   8.9935   9.6645
     9.7595  10.2248  11.0757  11.3990  12.0951  12.2940  12.3516

     the Fermi energy is    13.5695 ev

!    total energy              =     -95.87923732 Ry
     estimated scf accuracy    <          3.7E-11 Ry
     smearing contrib. (-TS)   =      -0.00055923 Ry
     internal energy E=F+TS    =     -95.87867809 Ry

     The total energy is F=E-TS. E is the sum of the following terms:
     one-electron contribution =      30.55216780 Ry
     hartree contribution      =       7.23359909 Ry
     xc contribution           =     -33.77318574 Ry
     ewald contribution        =     -99.89125924 Ry

     convergence has been achieved in  31 iterations

     Forces acting on atoms (cartesian axes, Ry/au):

     atom    1 type  1   force =     0.00000000    0.00000000   -0.00060767
     atom    2 type  1   force =     0.00000000    0.00000000   -0.00097079
     atom    3 type  1   force =     0.00000000   -0.00000000   -0.00006323
     atom    4 type  1   force =     0.00000000   -0.00000000    0.00040067
     atom    5 type  1   force =     0.00000000    0.00000000    0.00027445
     atom    6 type  1   force =     0.00000000    0.00000000   -0.00071333
     atom    7 type  1   force =     0.00000000    0.00000000    0.00026548
     atom    8 type  1   force =     0.00000000    0.00000000    0.00093022
     atom    9 type  2   force =     0.00000000   -0.00000000    0.00076659
     atom   10 type  2   force =     0.00000000    0.00000000   -0.00028240
     The non-local contrib.  to forces
     atom    1 type  1   force =     0.00000000    0.00000000   -0.04213349
     atom    2 type  1   force =     0.00000000   -0.00000000   -0.00276677
     atom    3 type  1   force =     0.00000000   -0.00000000   -0.09364246
     atom    4 type  1   force =     0.00000000    0.00000000   -0.01220882
     atom    5 type  1   force =     0.00000000   -0.00000000   -0.01922169
     atom    6 type  1   force =     0.00000000   -0.00000000    0.05102127
     atom    7 type  1   force =     0.00000000   -0.00000000    0.10011511
     atom    8 type  1   force =     0.00000000    0.00000000    0.02150915
     atom    9 type  2   force =     0.00000000    0.00000000   -0.02050953
     atom   10 type  2   force =     0.00000000    0.00000000    0.02131994
     The ionic contribution  to forces
     atom    1 type  1   force =    -0.00000000    0.00000000   -0.46065638
     atom    2 type  1   force =    -0.00000000    0.00000000    1.08357124
     atom    3 type  1   force =    -0.00000000    0.00000000    0.76523765
     atom    4 type  1   force =     0.00000000   -0.00000000    0.58595392
     atom    5 type  1   force =     0.00000000   -0.00000000    2.04218393
     atom    6 type  1   force =     0.00000000   -0.00000000   -2.09228224
     atom    7 type  1   force =    -0.00000001    0.00000000   -0.75637733
     atom    8 type  1   force =    -0.00000000    0.00000000   -1.14230496
     atom    9 type  2   force =     0.00000000   -0.00000000   -0.72934961
     atom   10 type  2   force =     0.00000000   -0.00000000    0.70402378
     The local contribution  to forces
     atom    1 type  1   force =     0.00000000   -0.00000000    0.49940339
     atom    2 type  1   force =     0.00000000   -0.00000000   -1.08267310
     atom    3 type  1   force =     0.00000000   -0.00000000   -0.67451195
     atom    4 type  1   force =    -0.00000001    0.00000001   -0.57328237
     atom    5 type  1   force =    -0.00000001    0.00000000   -2.02095144
     atom    6 type  1   force =    -0.00000001    0.00000000    2.04053771
     atom    7 type  1   force =     0.00000001   -0.00000001    0.65975990
     atom    8 type  1   force =     0.00000001   -0.00000001    1.12341811
     atom    9 type  2   force =     0.00000045   -0.00000026    0.75062302
     atom   10 type  2   force =     0.00000045   -0.00000026   -0.72562392
     The core correction contribution to forces
     atom    1 type  1   force =     0.00000000   -0.00000000    0.00277314
     atom    2 type  1   force =     0.00000000   -0.00000000    0.00090028
     atom    3 type  1   force =    -0.00000000    0.00000000    0.00286351
     atom    4 type  1   force =    -0.00000000    0.00000000   -0.00006983
     atom    5 type  1   force =    -0.00000000    0.00000000   -0.00173368
     atom    6 type  1   force =    -0.00000000    0.00000000    0.00000703
     atom    7 type  1   force =     0.00000000   -0.00000000   -0.00322526
     atom    8 type  1   force =     0.00000000   -0.00000000   -0.00169623
     atom    9 type  2   force =     0.00000000    0.00000000    0.00000000
     atom   10 type  2   force =     0.00000000    0.00000000    0.00000000
     The Hubbard contrib.    to forces
     atom    1 type  1   force =     0.00000000    0.00000000    0.00000000
     atom    2 type  1   force =     0.00000000    0.00000000    0.00000000
     atom    3 type  1   force =     0.00000000    0.00000000    0.00000000
     atom    4 type  1   force =     0.00000000    0.00000000    0.00000000
     atom    5 type  1   force =     0.00000000    0.00000000    0.00000000
     atom    6 type  1   force =     0.00000000    0.00000000    0.00000000
     atom    7 type  1   force =     0.00000000    0.00000000    0.00000000
     atom    8 type  1   force =     0.00000000    0.00000000    0.00000000
     atom    9 type  2   force =     0.00000000    0.00000000    0.00000000
     atom   10 type  2   force =     0.00000000    0.00000000    0.00000000
     The SCF correction term to forces
     atom    1 type  1   force =     0.00000000    0.00000000    0.00000571
     atom    2 type  1   force =     0.00000000   -0.00000000   -0.00000241
     atom    3 type  1   force =     0.00000000   -0.00000000   -0.00000996
     atom    4 type  1   force =     0.00000000   -0.00000000    0.00000780
     atom    5 type  1   force =    -0.00000000    0.00000000   -0.00000264
     atom    6 type  1   force =    -0.00000000    0.00000000    0.00000294
     atom    7 type  1   force =    -0.00000000    0.00000000   -0.00000690
     atom    8 type  1   force =    -0.00000000    0.00000000    0.00000419
     atom    9 type  2   force =    -0.00000000    0.00000000    0.00000275
     atom   10 type  2   force =    -0.00000000    0.00000000   -0.00000216

     Total force =     0.001914     Total SCF correction =     0.000017


     Computing stress (Cartesian axis) and pressure

          total   stress  (Ry/bohr**3)                   (kbar)     P=      499.92
   0.00339746   0.00000000   0.00000000          499.78        0.00        0.00
   0.00000000   0.00339746   0.00000000            0.00      499.78        0.00
   0.00000000   0.00000000   0.00340018            0.00        0.00      500.18


     Writing all to output data dir ./output/SiLi.save/

     init_run     :      2.30s CPU      3.06s WALL (       2 calls)
     electrons    :    392.05s CPU    437.60s WALL (      16 calls)
     update_pot   :     10.96s CPU     11.07s WALL (      14 calls)
     forces       :      8.49s CPU      8.64s WALL (      16 calls)
     stress       :     41.20s CPU     43.04s WALL (      16 calls)

     Called by init_run:
     wfcinit      :      0.86s CPU      1.41s WALL (       2 calls)
     potinit      :      0.67s CPU      0.76s WALL (       2 calls)
     hinit0       :      0.66s CPU      0.75s WALL (       2 calls)

     Called by electrons:
     c_bands      :    352.26s CPU    391.12s WALL (     400 calls)
     sum_band     :     33.60s CPU     39.05s WALL (     400 calls)
     v_of_rho     :      5.35s CPU      6.24s WALL (     416 calls)
     mix_rho      :      0.87s CPU      0.99s WALL (     400 calls)

     Called by c_bands:
     init_us_2    :      6.78s CPU      7.85s WALL (   11676 calls)
     init_us_2:cp :      6.75s CPU      7.83s WALL (   11676 calls)
     cegterg      :    326.31s CPU    362.34s WALL (    5670 calls)

     Called by *egterg:
     cdiaghg      :     19.78s CPU     20.38s WALL (   31250 calls)
     h_psi        :    260.43s CPU    295.58s WALL (   31487 calls)
     g_psi        :      1.18s CPU      1.22s WALL (   25789 calls)

     Called by h_psi:
     h_psi:calbec :     40.80s CPU     42.87s WALL (   31487 calls)
     vloc_psi     :    184.37s CPU    216.78s WALL (   31487 calls)
     add_vuspsi   :     34.11s CPU     34.77s WALL (   31487 calls)

     General routines
     calbec       :     43.97s CPU     46.09s WALL (   32607 calls)
     fft          :      2.58s CPU      3.64s WALL (    4558 calls)
     ffts         :      0.17s CPU      0.23s WALL (     400 calls)
     fftw         :    188.29s CPU    221.40s WALL (  952440 calls)

     Parallel routines

     PWSCF        :   7m35.43s CPU   8m24.34s WALL


   This run was terminated on:  22: 2:49  29Dec2024            

=------------------------------------------------------------------------------=
   JOB DONE.
=------------------------------------------------------------------------------=
