
     Program PWSCF v.7.2 starts on 29Dec2024 at 20:29:39 

     This program is part of the open-source Quantum ESPRESSO suite
     for quantum simulation of materials; please cite
         "P. Giannozzi et al., J. Phys.:Condens. Matter 21 395502 (2009);
         "P. Giannozzi et al., J. Phys.:Condens. Matter 29 465901 (2017);
         "P. Giannozzi et al., J. Chem. Phys. 152 154105 (2020);
          URL http://www.quantum-espresso.org", 
     in publications or presentations arising from this work. More details at
     http://www.quantum-espresso.org/quote

     Parallel version (MPI & OpenMP), running on       8 processor cores
     Number of MPI processes:                 8
     Threads/MPI process:                     1

     MPI processes distributed on     1 nodes
     481909 MiB available memory on the printing compute node when the environment starts

     Waiting for input...
     Reading input from standard input

     Current dimensions of program PWSCF are:
     Max number of different atomic species (ntypx) = 10
     Max number of k-points (npk) =  40000
     Max angular momentum in pseudopotentials (lmaxx) =  4

     R & G space division:  proc/nbgrp/npool/nimage =       8
     Subspace diagonalization in iterative solution of the eigenvalue problem:
     a serial algorithm will be used


     Parallelization info
     --------------------
     sticks:   dense  smooth     PW     G-vecs:    dense   smooth      PW
     Min         191     191     54                 5627     5627     856
     Max         192     192     55                 5630     5630     859
     Sum        1533    1533    437                45025    45025    6859

     Using Slab Decomposition



     bravais-lattice index     =            1
     lattice parameter (alat)  =       7.7500  a.u.
     unit-cell volume          =     465.4922 (a.u.)^3
     number of atoms/cell      =            5
     number of atomic types    =            2
     number of electrons       =        19.00
     number of Kohn-Sham states=           14
     kinetic-energy cutoff     =      80.0000  Ry
     charge density cutoff     =     320.0000  Ry
     scf convergence threshold =      1.0E-08
     mixing beta               =       0.7000
     number of iterations used =            8  plain     mixing
     energy convergence thresh.=      1.0E-04
     force convergence thresh. =      1.0E-03
     press convergence thresh. =      1.0E+00
     Exchange-correlation= PBE
                           (   1   4   3   4   0   0   0)
     nstep                     =           50


     celldm(1)=   7.750043  celldm(2)=   0.000000  celldm(3)=   0.000000
     celldm(4)=   0.000000  celldm(5)=   0.000000  celldm(6)=   0.000000

     crystal axes: (cart. coord. in units of alat)
               a(1) = (   1.000000   0.000000   0.000000 )  
               a(2) = (   0.000000   1.000000   0.000000 )  
               a(3) = (   0.000000   0.000000   1.000000 )  

     reciprocal axes: (cart. coord. in units 2 pi/alat)
               b(1) = (  1.000000  0.000000  0.000000 )  
               b(2) = (  0.000000  1.000000  0.000000 )  
               b(3) = (  0.000000  0.000000  1.000000 )  


     PseudoPot. # 1 for Si read from file:
     ../pseudo/Si_ONCV_PBE_sr.upf
     MD5 check sum: e543d271109d17c80368dfa7c482276d
     Pseudo is Norm-conserving + core correction, Zval =  4.0
     Generated using ONCVPSP code by D. R. Hamann
     Using radial grid of 1510 points,  6 beta functions with: 
                l(1) =   0
                l(2) =   0
                l(3) =   1
                l(4) =   1
                l(5) =   2
                l(6) =   2

     PseudoPot. # 2 for Li read from file:
     ../pseudo/Li_ONCV_PBE_sr.upf
     MD5 check sum: 50ff420e78310ffa21704f3361e624a4
     Pseudo is Norm-conserving, Zval =  3.0
     Generated using ONCVPSP code by D. R. Hamann
     Using radial grid of 1944 points,  4 beta functions with: 
                l(1) =   0
                l(2) =   0
                l(3) =   1
                l(4) =   1

     atomic species   valence    mass     pseudopotential
        Si             4.00    28.08550     Si( 1.00)
        Li             3.00     6.94100     Li( 1.00)

     48 Sym. Ops., with inversion, found



   Cartesian axes

     site n.     atom                  positions (alat units)
         1           Si  tau(   1) = (   0.0000000   0.5000000   0.5000000  )
         2           Si  tau(   2) = (   0.5000000   0.0000000   0.5000000  )
         3           Si  tau(   3) = (   0.5000000   0.5000000   0.0000000  )
         4           Si  tau(   4) = (   0.0000000   0.0000000   0.0000000  )
         5           Li  tau(   5) = (   0.5000000   0.5000000   0.5000000  )

     number of k points=    20  Marzari-Vanderbilt smearing, width (Ry)=  0.0200
                       cart. coord. in units 2pi/alat
        k(    1) = (   0.0000000   0.0000000   0.0000000), wk =   0.0058309
        k(    2) = (   0.0000000   0.0000000   0.1428571), wk =   0.0349854
        k(    3) = (   0.0000000   0.0000000   0.2857143), wk =   0.0349854
        k(    4) = (   0.0000000   0.0000000   0.4285714), wk =   0.0349854
        k(    5) = (   0.0000000   0.1428571   0.1428571), wk =   0.0699708
        k(    6) = (   0.0000000   0.1428571   0.2857143), wk =   0.1399417
        k(    7) = (   0.0000000   0.1428571   0.4285714), wk =   0.1399417
        k(    8) = (   0.0000000   0.2857143   0.2857143), wk =   0.0699708
        k(    9) = (   0.0000000   0.2857143   0.4285714), wk =   0.1399417
        k(   10) = (   0.0000000   0.4285714   0.4285714), wk =   0.0699708
        k(   11) = (   0.1428571   0.1428571   0.1428571), wk =   0.0466472
        k(   12) = (   0.1428571   0.1428571   0.2857143), wk =   0.1399417
        k(   13) = (   0.1428571   0.1428571   0.4285714), wk =   0.1399417
        k(   14) = (   0.1428571   0.2857143   0.2857143), wk =   0.1399417
        k(   15) = (   0.1428571   0.2857143   0.4285714), wk =   0.2798834
        k(   16) = (   0.1428571   0.4285714   0.4285714), wk =   0.1399417
        k(   17) = (   0.2857143   0.2857143   0.2857143), wk =   0.0466472
        k(   18) = (   0.2857143   0.2857143   0.4285714), wk =   0.1399417
        k(   19) = (   0.2857143   0.4285714   0.4285714), wk =   0.1399417
        k(   20) = (   0.4285714   0.4285714   0.4285714), wk =   0.0466472

     Dense  grid:    45025 G-vectors     FFT dimensions: (  45,  45,  45)

     Estimated max dynamical RAM per process >      19.50 MB

     Estimated total dynamical RAM >     156.01 MB

     Initial potential from superposition of free atoms

     starting charge      18.9930, renormalised to      19.0000
     Starting wfcs are   18 randomized atomic wfcs

     total cpu time spent up to now is        1.1 secs

     Self-consistent Calculation

     iteration #  1     ecut=    80.00 Ry     beta= 0.70
     Davidson diagonalization with overlap
     ethr =  1.00E-02,  avg # of iterations =  3.0

     total cpu time spent up to now is        1.9 secs

     total energy              =     -47.75562080 Ry
     estimated scf accuracy    <       0.23937756 Ry

     iteration #  2     ecut=    80.00 Ry     beta= 0.70
     Davidson diagonalization with overlap
     ethr =  1.26E-03,  avg # of iterations =  3.1

     total cpu time spent up to now is        2.4 secs

     total energy              =     -47.82307000 Ry
     estimated scf accuracy    <       0.20544085 Ry

     iteration #  3     ecut=    80.00 Ry     beta= 0.70
     Davidson diagonalization with overlap
     ethr =  1.08E-03,  avg # of iterations =  2.0

     total cpu time spent up to now is        2.9 secs

     total energy              =     -47.86315840 Ry
     estimated scf accuracy    <       0.00070181 Ry

     iteration #  4     ecut=    80.00 Ry     beta= 0.70
     Davidson diagonalization with overlap
     c_bands:  1 eigenvalues not converged
     ethr =  3.69E-06,  avg # of iterations =  8.3

     total cpu time spent up to now is        3.6 secs

     total energy              =     -47.86426239 Ry
     estimated scf accuracy    <       0.00036726 Ry

     iteration #  5     ecut=    80.00 Ry     beta= 0.70
     Davidson diagonalization with overlap
     ethr =  1.93E-06,  avg # of iterations =  2.0

     total cpu time spent up to now is        4.1 secs

     total energy              =     -47.86434725 Ry
     estimated scf accuracy    <       0.00001072 Ry

     iteration #  6     ecut=    80.00 Ry     beta= 0.70
     Davidson diagonalization with overlap
     ethr =  5.64E-08,  avg # of iterations =  2.2

     total cpu time spent up to now is        4.7 secs

     total energy              =     -47.86435056 Ry
     estimated scf accuracy    <       0.00000005 Ry

     iteration #  7     ecut=    80.00 Ry     beta= 0.70
     Davidson diagonalization with overlap
     ethr =  2.77E-10,  avg # of iterations =  4.9

     total cpu time spent up to now is        5.2 secs

     End of self-consistent calculation

          k = 0.0000 0.0000 0.0000 (  5575 PWs)   bands (ev):

   -36.7651  -3.5757   3.9915   3.9915   3.9915   4.5044   4.5044   5.1591
    10.7498  10.7498  10.7498  11.9112  11.9112  11.9112

          k = 0.0000 0.0000 0.1429 (  5606 PWs)   bands (ev):

   -36.7649  -3.4137   2.2286   4.1508   4.1508   4.6405   5.0373   6.6992
     9.8581   9.8581  10.4019  10.9165  11.6084  11.6084

          k = 0.0000 0.0000 0.2857 (  5622 PWs)   bands (ev):

   -36.7644  -2.9293   0.4849   4.6183   4.6183   5.0130   5.1670   8.2513
     8.2513   8.9483   9.4600  10.0519  11.9680  11.9680

          k = 0.0000 0.0000 0.4286 (  5602 PWs)   bands (ev):

   -36.7640  -2.1377  -0.9423   5.2749   5.3039   5.3039   5.4391   6.9427
     6.9427   8.4417   9.0954  12.1822  12.6261  12.6261

          k = 0.0000 0.1429 0.1429 (  5597 PWs)   bands (ev):

   -36.7647  -3.2518   2.2025   2.5850   4.3097   4.9213   6.6492   6.9009
     8.6428   9.7369  10.3266  10.5729  11.1411  11.8725

          k = 0.0000 0.1429 0.2857 (  5603 PWs)   bands (ev):

   -36.7642  -2.7676   0.6273   2.8653   4.7760   4.9208   6.7873   7.4545
     8.3948   9.2344   9.8204  10.6922  10.7985  11.8948

          k = 0.0000 0.1429 0.4286 (  5621 PWs)   bands (ev):

   -36.7638  -1.9753  -0.7918   3.5473   4.4174   5.4575   6.8013   7.1045
     7.1073   9.4180   9.9362  11.3751  11.4706  12.8062

          k = 0.0000 0.2857 0.2857 (  5600 PWs)   bands (ev):

   -36.7637  -2.2845   0.8371   1.3970   4.0735   5.2372   6.8098   8.5871
     8.7482   9.1425   9.2965  10.3464  11.5729  12.4514

          k = 0.0000 0.2857 0.4286 (  5620 PWs)   bands (ev):

   -36.7633  -1.4917  -0.3490   1.9140   2.9217   5.9016   7.2328   7.5819
     8.1229   9.7343   9.9255  11.0582  11.1004  11.7327

          k = 0.0000 0.4286 0.4286 (  5636 PWs)   bands (ev):

   -36.7630  -0.7057   0.1479   0.7849   1.5936   6.5091   7.9299   8.2031
     8.6426   8.7141   9.2100   9.7028   9.9944  13.4907

          k = 0.1429 0.1429 0.1429 (  5617 PWs)   bands (ev):

   -36.7645  -3.0900   2.3549   2.3549   2.9588   6.3984   7.0118   7.0118
     8.5810   8.5810   9.2329  11.5675  11.5675  12.3699

          k = 0.1429 0.1429 0.2857 (  5637 PWs)   bands (ev):

   -36.7640  -2.6062   0.7700   2.7907   3.2022   5.9754   6.6716   7.6259
     8.3479   8.7506   9.8724  11.3255  11.3293  12.2503

          k = 0.1429 0.1429 0.4286 (  5635 PWs)   bands (ev):

   -36.7636  -1.8135  -0.6415   3.3611   3.7214   5.1836   5.5434   8.0325
     8.6182   9.2797  10.3963  10.4168  11.0186  12.9481

          k = 0.1429 0.2857 0.2857 (  5614 PWs)   bands (ev):

   -36.7635  -2.1240   0.9901   1.4994   3.2541   5.0714   6.8255   7.2128
     8.4568  10.0919  10.2875  10.5067  11.5613  12.1801

          k = 0.1429 0.2857 0.4286 (  5622 PWs)   bands (ev):

   -36.7631  -1.3320  -0.1996   2.0034   2.8882   4.8674   5.7489   7.7775
     8.9436   9.2944   9.9224  11.5632  12.1033  12.4731

          k = 0.1429 0.4286 0.4286 (  5623 PWs)   bands (ev):

   -36.7627  -0.5498   0.3012   0.9047   1.6920   5.4326   6.4250   6.5839
     7.6872   9.9317  10.7972  11.0381  12.1041  13.6137

          k = 0.2857 0.2857 0.2857 (  5623 PWs)   bands (ev):

   -36.7630  -1.6448   1.4268   1.4268   2.1685   5.4220   5.4866   5.4866
     8.7467  10.6925  10.6925  11.1623  12.9749  12.9751

          k = 0.2857 0.2857 0.4286 (  5645 PWs)   bands (ev):

   -36.7626  -0.8579   0.2367   1.9942   2.4497   4.2663   4.4428   6.2134
     7.3703  11.1482  11.6781  12.5651  13.3130  13.9489

          k = 0.2857 0.4286 0.4286 (  5644 PWs)   bands (ev):

   -36.7623  -0.0922   0.7382   1.2127   1.9094   4.0862   4.8350   5.0087
     5.9758  12.1478  13.0410  13.5048  13.9480  14.4834

          k = 0.4286 0.4286 0.4286 (  5667 PWs)   bands (ev):

   -36.7619   0.6154   1.3041   1.3041   1.9653   3.6088   3.6088   4.1240
     4.6816  14.3232  14.3232  14.8463  15.4059  15.4059

     the Fermi energy is     9.3806 ev

!    total energy              =     -47.86435066 Ry
     estimated scf accuracy    <          1.9E-09 Ry
     smearing contrib. (-TS)   =      -0.00067671 Ry
     internal energy E=F+TS    =     -47.86367395 Ry

     The total energy is F=E-TS. E is the sum of the following terms:
     one-electron contribution =       7.89192775 Ry
     hartree contribution      =       4.69060932 Ry
     xc contribution           =     -15.91479034 Ry
     ewald contribution        =     -44.53142069 Ry

     convergence has been achieved in   7 iterations

     Forces acting on atoms (cartesian axes, Ry/au):

     atom    1 type  1   force =     0.00000000    0.00000000    0.00000000
     atom    2 type  1   force =     0.00000000    0.00000000    0.00000000
     atom    3 type  1   force =     0.00000000    0.00000000    0.00000000
     atom    4 type  1   force =     0.00000000    0.00000000    0.00000000
     atom    5 type  2   force =     0.00000000    0.00000000    0.00000000
     The non-local contrib.  to forces
     atom    1 type  1   force =     0.00000000    0.00000000    0.00000000
     atom    2 type  1   force =     0.00000000    0.00000000    0.00000000
     atom    3 type  1   force =     0.00000000    0.00000000    0.00000000
     atom    4 type  1   force =     0.00000000    0.00000000    0.00000000
     atom    5 type  2   force =     0.00000000    0.00000000    0.00000000
     The ionic contribution  to forces
     atom    1 type  1   force =    -0.00000000    0.00000000    0.00000000
     atom    2 type  1   force =     0.00000000   -0.00000000    0.00000000
     atom    3 type  1   force =     0.00000000    0.00000000   -0.00000000
     atom    4 type  1   force =    -0.00000000   -0.00000000   -0.00000000
     atom    5 type  2   force =     0.00000000    0.00000000    0.00000000
     The local contribution  to forces
     atom    1 type  1   force =    -0.00000000    0.00000000    0.00000000
     atom    2 type  1   force =     0.00000000   -0.00000000   -0.00000000
     atom    3 type  1   force =     0.00000000    0.00000000   -0.00000000
     atom    4 type  1   force =    -0.00000000    0.00000000    0.00000000
     atom    5 type  2   force =     0.00000000    0.00000000    0.00000000
     The core correction contribution to forces
     atom    1 type  1   force =    -0.00000000   -0.00000000   -0.00000000
     atom    2 type  1   force =    -0.00000000   -0.00000000    0.00000000
     atom    3 type  1   force =    -0.00000000   -0.00000000   -0.00000000
     atom    4 type  1   force =     0.00000000   -0.00000000    0.00000000
     atom    5 type  2   force =     0.00000000    0.00000000    0.00000000
     The Hubbard contrib.    to forces
     atom    1 type  1   force =     0.00000000    0.00000000    0.00000000
     atom    2 type  1   force =     0.00000000    0.00000000    0.00000000
     atom    3 type  1   force =     0.00000000    0.00000000    0.00000000
     atom    4 type  1   force =     0.00000000    0.00000000    0.00000000
     atom    5 type  2   force =     0.00000000    0.00000000    0.00000000
     The SCF correction term to forces
     atom    1 type  1   force =     0.00000000   -0.00000000    0.00000000
     atom    2 type  1   force =     0.00000000    0.00000000    0.00000000
     atom    3 type  1   force =    -0.00000000    0.00000000   -0.00000000
     atom    4 type  1   force =     0.00000000    0.00000000   -0.00000000
     atom    5 type  2   force =    -0.00000000   -0.00000000    0.00000000

     Total force =     0.000000     Total SCF correction =     0.000000


     Computing stress (Cartesian axis) and pressure

          total   stress  (Ry/bohr**3)                   (kbar)     P=      143.24
   0.00097370   0.00000000   0.00000000          143.24        0.00        0.00
   0.00000000   0.00097370   0.00000000            0.00      143.24        0.00
   0.00000000   0.00000000   0.00097370            0.00        0.00      143.24


     BFGS Geometry Optimization
     Energy error            =      0.0E+00 Ry
     Gradient error          =      0.0E+00 Ry/Bohr
     Cell gradient error     =      3.6E+02 kbar

     number of scf cycles    =   1
     number of bfgs steps    =   0

     enthalpy           new  =     -46.2821748966 Ry

     new trust radius        =       0.2616255667 bohr
ibrav =      1
 celldm(1) =      7.28015124
Input lattice vectors:
     0.93936910     0.00000000     0.00000000
     0.00000000     0.93936910     0.00000000
     0.00000000     0.00000000     0.93936910
New lattice vectors in INITIAL alat:
     0.93936910     0.00000000     0.00000000
     0.00000000     0.93936910     0.00000000
     0.00000000     0.00000000     0.93936910
New lattice vectors in NEW alat (for information only):
     1.00000000     0.00000000     0.00000000
     0.00000000     1.00000000     0.00000000
     0.00000000     0.00000000     1.00000000
Discrepancy in bohr =     0.000000    0.000000    0.000000
     new conv_thr            =       0.0000000100 Ry

     new unit-cell volume =    385.85240 a.u.^3 (    57.17743 Ang^3 )
     density =      3.46420 g/cm^3

CELL_PARAMETERS (alat=  7.75004332)
   0.939369103   0.000000000   0.000000000
   0.000000000   0.939369103   0.000000000
   0.000000000   0.000000000   0.939369103

ATOMIC_POSITIONS (crystal)
Si            0.0000000000        0.5000000000        0.5000000000
Si            0.5000000000        0.0000000000        0.5000000000
Si            0.5000000000        0.5000000000        0.0000000000
Si            0.0000000000        0.0000000000        0.0000000000
Li            0.5000000000        0.5000000000        0.5000000000



     Writing config-only to output data dir ./output/SiLi.save/
     NEW-OLD atomic charge density approx. for the potential
     extrapolated charge   15.07985, renormalised to   19.00000

     total cpu time spent up to now is        7.2 secs

     Self-consistent Calculation

     iteration #  1     ecut=    80.00 Ry     beta= 0.70
     Davidson diagonalization with overlap
     c_bands:  1 eigenvalues not converged
     c_bands:  2 eigenvalues not converged
     ethr =  1.00E-06,  avg # of iterations = 13.1

     total cpu time spent up to now is        8.7 secs

     total energy              =     -47.41620858 Ry
     estimated scf accuracy    <       0.19530287 Ry

     iteration #  2     ecut=    80.00 Ry     beta= 0.70
     Davidson diagonalization with overlap
     ethr =  1.03E-03,  avg # of iterations =  3.7

     total cpu time spent up to now is        9.2 secs

     total energy              =     -47.71798716 Ry
     estimated scf accuracy    <       0.72612988 Ry

     iteration #  3     ecut=    80.00 Ry     beta= 0.70
     Davidson diagonalization with overlap
     ethr =  1.03E-03,  avg # of iterations =  2.0

     total cpu time spent up to now is        9.6 secs

     total energy              =     -47.73058131 Ry
     estimated scf accuracy    <       0.13432589 Ry

     iteration #  4     ecut=    80.00 Ry     beta= 0.70
     Davidson diagonalization with overlap
     ethr =  7.07E-04,  avg # of iterations =  1.4

     total cpu time spent up to now is       10.0 secs

     total energy              =     -47.71812046 Ry
     estimated scf accuracy    <       0.03876248 Ry

     iteration #  5     ecut=    80.00 Ry     beta= 0.70
     Davidson diagonalization with overlap
     ethr =  2.04E-04,  avg # of iterations =  2.5

     total cpu time spent up to now is       10.4 secs

     total energy              =     -47.72728456 Ry
     estimated scf accuracy    <       0.00003374 Ry

     iteration #  6     ecut=    80.00 Ry     beta= 0.70
     Davidson diagonalization with overlap
     ethr =  1.78E-07,  avg # of iterations =  8.1

     total cpu time spent up to now is       11.3 secs

     total energy              =     -47.72766436 Ry
     estimated scf accuracy    <       0.00013057 Ry

     iteration #  7     ecut=    80.00 Ry     beta= 0.70
     Davidson diagonalization with overlap
     ethr =  1.78E-07,  avg # of iterations =  3.2

     total cpu time spent up to now is       11.8 secs

     total energy              =     -47.72770314 Ry
     estimated scf accuracy    <       0.00004990 Ry

     iteration #  8     ecut=    80.00 Ry     beta= 0.70
     Davidson diagonalization with overlap
     ethr =  1.78E-07,  avg # of iterations =  2.0

     total cpu time spent up to now is       12.2 secs

     total energy              =     -47.72771365 Ry
     estimated scf accuracy    <       0.00000005 Ry

     iteration #  9     ecut=    80.00 Ry     beta= 0.70
     Davidson diagonalization with overlap
     ethr =  2.62E-10,  avg # of iterations =  4.7

     total cpu time spent up to now is       12.8 secs

     total energy              =     -47.72771376 Ry
     estimated scf accuracy    <       0.00000008 Ry

     iteration # 10     ecut=    80.00 Ry     beta= 0.70
     Davidson diagonalization with overlap
     ethr =  2.62E-10,  avg # of iterations =  2.0

     total cpu time spent up to now is       13.2 secs

     End of self-consistent calculation

          k = 0.0000 0.0000 0.0000 (  5575 PWs)   bands (ev):

   -34.9593  -2.5540   5.5275   5.5275   5.5275   7.0255   7.0255   8.2503
    13.5521  13.5521  13.5521  14.9096  14.9096  14.9096

          k = 0.0000 0.0000 0.1521 (  5606 PWs)   bands (ev):

   -34.9588  -2.3736   3.9115   5.7068   5.7068   7.2095   7.9375   9.2975
    12.2779  12.2779  13.1976  13.7229  14.4957  14.4957

          k = 0.0000 0.0000 0.3042 (  5622 PWs)   bands (ev):

   -34.9576  -1.8359   2.0070   6.2334   6.2334   7.7456   8.1801  10.3687
    10.3687  11.4550  11.9393  13.1035  14.9324  14.9324

          k = 0.0000 0.0000 0.4562 (  5602 PWs)   bands (ev):

   -34.9566  -0.9755   0.4443   7.0059   7.0059   8.3366   8.5093   8.8704
     8.8704  10.4974  11.5415  15.6722  15.6722  15.6743

          k = 0.0000 0.1521 0.1521 (  5597 PWs)   bands (ev):

   -34.9583  -2.1930   3.8600   4.3566   5.8858   7.7152   9.2545   9.4072
    11.0079  12.1446  13.0160  13.0667  13.9914  14.8374

          k = 0.0000 0.1521 0.3042 (  5603 PWs)   bands (ev):

   -34.9570  -1.6545   2.1632   4.6841   6.4111   7.7346   8.9545  10.0873
    10.5331  11.7763  12.7836  13.1833  13.4727  14.8247

          k = 0.0000 0.1521 0.4562 (  5621 PWs)   bands (ev):

   -34.9561  -0.7902   0.6088   5.5186   6.7314   7.1791   9.0535   9.2171
     9.9733  11.7458  12.3944  13.9666  14.8057  15.5923

          k = 0.0000 0.3042 0.3042 (  5600 PWs)   bands (ev):

   -34.9558  -1.1139   2.3483   3.1384   6.3553   6.9309   9.1577  10.7605
    11.5261  11.8388  12.0103  13.0125  14.3035  15.1640

          k = 0.0000 0.3042 0.4562 (  5620 PWs)   bands (ev):

   -34.9549  -0.2399   1.0875   3.6986   4.8789   7.6803   9.5942   9.7822
    10.9791  12.0359  12.8025  13.6104  14.0435  14.8309

          k = 0.0000 0.4562 0.4562 (  5636 PWs)   bands (ev):

   -34.9539   0.6451   1.5757   2.4587   3.3754   8.3673  10.3016  10.5814
    10.7771  11.3649  12.0076  12.3059  13.0357  16.7747

          k = 0.1521 0.1521 0.1521 (  5617 PWs)   bands (ev):

   -34.9577  -2.0122   4.0431   4.0431   4.8340   9.0580   9.5848   9.5848
    10.8020  10.8020  11.7022  14.4684  14.4684  15.4305

          k = 0.1521 0.1521 0.3042 (  5637 PWs)   bands (ev):

   -34.9565  -1.4731   2.3233   4.5798   5.1481   8.3007   8.8108  10.1029
    10.6495  11.4532  12.5466  14.0631  14.1681  15.2186

          k = 0.1521 0.1521 0.4562 (  5635 PWs)   bands (ev):

   -34.9555  -0.6053   0.7746   5.3603   5.8839   7.1181   7.2930  10.8351
    11.1984  11.7565  12.7796  13.1319  13.7769  16.0438

          k = 0.1521 0.3042 0.3042 (  5614 PWs)   bands (ev):

   -34.9553  -0.9324   2.5328   3.2425   5.3107   6.9195   8.9955   9.3794
    11.1145  12.8520  13.1795  13.3028  14.3569  15.0877

          k = 0.1521 0.3042 0.4562 (  5622 PWs)   bands (ev):

   -34.9543  -0.0562   1.2579   3.8183   4.9115   6.6194   7.7126  10.0173
    11.4494  12.0535  12.8291  14.2479  15.1752  15.4978

          k = 0.1521 0.4562 0.4562 (  5623 PWs)   bands (ev):

   -34.9533   0.8277   1.7607   2.6048   3.4882   7.3436   8.5142   8.6449
     9.9583  12.8091  13.8038  13.8299  15.1020  16.9326

          k = 0.3042 0.3042 0.3042 (  5623 PWs)   bands (ev):

   -34.9541  -0.3914   3.0731   3.0731   4.1316   7.3582   7.3582   7.5315
    11.1381  13.6614  13.6614  14.1710  16.0785  16.0785

          k = 0.3042 0.3042 0.4562 (  5645 PWs)   bands (ev):

   -34.9531   0.4890   1.7552   3.8552   4.4892   5.8292   6.2674   8.2829
     9.5981  14.3061  14.7591  15.5588  16.2318  17.2084

          k = 0.3042 0.4562 0.4562 (  5644 PWs)   bands (ev):

   -34.9522   1.3669   2.3020   2.9802   3.7823   5.7524   6.6133   7.0100
     8.0232  15.3587  16.2611  16.6356  17.4202  17.8204

          k = 0.4562 0.4562 0.4562 (  5667 PWs)   bands (ev):

   -34.9512   2.2169   3.0832   3.0832   3.9241   5.0813   5.0813   5.9760
     6.6381  17.8244  17.8244  18.2260  19.0663  19.0663

     the Fermi energy is    11.9646 ev

!    total energy              =     -47.72771378 Ry
     estimated scf accuracy    <          2.7E-10 Ry
     smearing contrib. (-TS)   =      -0.00033065 Ry
     internal energy E=F+TS    =     -47.72738313 Ry

     The total energy is F=E-TS. E is the sum of the following terms:
     one-electron contribution =      11.59360902 Ry
     hartree contribution      =       4.55406687 Ry
     xc contribution           =     -16.46939011 Ry
     ewald contribution        =     -47.40566891 Ry

     convergence has been achieved in  10 iterations

     Forces acting on atoms (cartesian axes, Ry/au):

     atom    1 type  1   force =     0.00000000    0.00000000    0.00000000
     atom    2 type  1   force =     0.00000000    0.00000000    0.00000000
     atom    3 type  1   force =     0.00000000    0.00000000    0.00000000
     atom    4 type  1   force =     0.00000000    0.00000000    0.00000000
     atom    5 type  2   force =     0.00000000    0.00000000    0.00000000
     The non-local contrib.  to forces
     atom    1 type  1   force =     0.00000000    0.00000000    0.00000000
     atom    2 type  1   force =     0.00000000    0.00000000    0.00000000
     atom    3 type  1   force =     0.00000000    0.00000000    0.00000000
     atom    4 type  1   force =     0.00000000    0.00000000    0.00000000
     atom    5 type  2   force =     0.00000000    0.00000000    0.00000000
     The ionic contribution  to forces
     atom    1 type  1   force =    -0.00000000    0.00000000   -0.00000000
     atom    2 type  1   force =     0.00000000   -0.00000000   -0.00000000
     atom    3 type  1   force =    -0.00000000    0.00000000   -0.00000000
     atom    4 type  1   force =    -0.00000000   -0.00000000   -0.00000000
     atom    5 type  2   force =     0.00000000    0.00000000    0.00000000
     The local contribution  to forces
     atom    1 type  1   force =    -0.00000000    0.00000000    0.00000000
     atom    2 type  1   force =     0.00000000   -0.00000000    0.00000000
     atom    3 type  1   force =     0.00000000    0.00000000   -0.00000000
     atom    4 type  1   force =     0.00000000    0.00000000   -0.00000000
     atom    5 type  2   force =     0.00000000    0.00000000    0.00000000
     The core correction contribution to forces
     atom    1 type  1   force =    -0.00000000   -0.00000000    0.00000000
     atom    2 type  1   force =    -0.00000000   -0.00000000   -0.00000000
     atom    3 type  1   force =     0.00000000   -0.00000000    0.00000000
     atom    4 type  1   force =     0.00000000   -0.00000000    0.00000000
     atom    5 type  2   force =     0.00000000    0.00000000    0.00000000
     The Hubbard contrib.    to forces
     atom    1 type  1   force =     0.00000000    0.00000000    0.00000000
     atom    2 type  1   force =     0.00000000    0.00000000    0.00000000
     atom    3 type  1   force =     0.00000000    0.00000000    0.00000000
     atom    4 type  1   force =     0.00000000    0.00000000    0.00000000
     atom    5 type  2   force =     0.00000000    0.00000000    0.00000000
     The SCF correction term to forces
     atom    1 type  1   force =     0.00000000   -0.00000000   -0.00000000
     atom    2 type  1   force =    -0.00000000    0.00000000   -0.00000000
     atom    3 type  1   force =     0.00000000    0.00000000    0.00000000
     atom    4 type  1   force =    -0.00000000   -0.00000000   -0.00000000
     atom    5 type  2   force =     0.00000000    0.00000000    0.00000000

     Total force =     0.000000     Total SCF correction =     0.000000


     Computing stress (Cartesian axis) and pressure

          total   stress  (Ry/bohr**3)                   (kbar)     P=      396.24
   0.00269358   0.00000000   0.00000000          396.24        0.00        0.00
   0.00000000   0.00269358   0.00000000            0.00      396.24        0.00
   0.00000000   0.00000000   0.00269358            0.00        0.00      396.24

     Energy error            =      1.3E-01 Ry
     Gradient error          =      0.0E+00 Ry/Bohr
     Cell gradient error     =      1.0E+02 kbar

     number of scf cycles    =   2
     number of bfgs steps    =   1

     enthalpy           old  =     -46.2821748966 Ry
     enthalpy           new  =     -46.4162281272 Ry

     CASE: enthalpy          _new < enthalpy          _old

     new trust radius        =       0.0875431089 bohr
ibrav =      1
 celldm(1) =      7.11792475
Input lattice vectors:
     0.91843677     0.00000000     0.00000000
     0.00000000     0.91843677     0.00000000
     0.00000000     0.00000000     0.91843677
New lattice vectors in INITIAL alat:
     0.91843677     0.00000000     0.00000000
     0.00000000     0.91843677     0.00000000
     0.00000000     0.00000000     0.91843677
New lattice vectors in NEW alat (for information only):
     1.00000000     0.00000000     0.00000000
     0.00000000     1.00000000     0.00000000
     0.00000000     0.00000000     1.00000000
Discrepancy in bohr =     0.000000    0.000000    0.000000
     new conv_thr            =            1.0E-10 Ry

     new unit-cell volume =    360.62861 a.u.^3 (    53.43965 Ang^3 )
     density =      3.70650 g/cm^3

CELL_PARAMETERS (alat=  7.75004332)
   0.918436770   0.000000000   0.000000000
   0.000000000   0.918436770   0.000000000
   0.000000000   0.000000000   0.918436770

ATOMIC_POSITIONS (crystal)
Si            0.0000000000        0.5000000000        0.5000000000
Si            0.5000000000        0.0000000000        0.5000000000
Si            0.5000000000        0.5000000000        0.0000000000
Si            0.0000000000        0.0000000000        0.0000000000
Li            0.5000000000        0.5000000000        0.5000000000



     Writing config-only to output data dir ./output/SiLi.save/
     NEW-OLD atomic charge density approx. for the potential
     extrapolated charge   17.67156, renormalised to   19.00000

     total cpu time spent up to now is       15.1 secs

     Self-consistent Calculation

     iteration #  1     ecut=    80.00 Ry     beta= 0.70
     Davidson diagonalization with overlap
     ethr =  1.00E-06,  avg # of iterations =  9.8

     total cpu time spent up to now is       16.1 secs

     total energy              =     -47.61812673 Ry
     estimated scf accuracy    <       0.01732789 Ry

     iteration #  2     ecut=    80.00 Ry     beta= 0.70
     Davidson diagonalization with overlap
     ethr =  9.12E-05,  avg # of iterations =  4.2

     total cpu time spent up to now is       16.6 secs

     total energy              =     -47.64819988 Ry
     estimated scf accuracy    <       0.06686706 Ry

     iteration #  3     ecut=    80.00 Ry     beta= 0.70
     Davidson diagonalization with overlap
     ethr =  9.12E-05,  avg # of iterations =  2.0

     total cpu time spent up to now is       17.0 secs

     total energy              =     -47.64951600 Ry
     estimated scf accuracy    <       0.01315642 Ry

     iteration #  4     ecut=    80.00 Ry     beta= 0.70
     Davidson diagonalization with overlap
     ethr =  6.92E-05,  avg # of iterations =  1.1

     total cpu time spent up to now is       17.4 secs

     total energy              =     -47.64768589 Ry
     estimated scf accuracy    <       0.00507142 Ry

     iteration #  5     ecut=    80.00 Ry     beta= 0.70
     Davidson diagonalization with overlap
     ethr =  2.67E-05,  avg # of iterations =  2.2

     total cpu time spent up to now is       17.7 secs

     total energy              =     -47.64850496 Ry
     estimated scf accuracy    <       0.00015054 Ry

     iteration #  6     ecut=    80.00 Ry     beta= 0.70
     Davidson diagonalization with overlap
     ethr =  7.92E-07,  avg # of iterations =  4.5

     total cpu time spent up to now is       18.2 secs

     total energy              =     -47.64859006 Ry
     estimated scf accuracy    <       0.00000575 Ry

     iteration #  7     ecut=    80.00 Ry     beta= 0.70
     Davidson diagonalization with overlap
     ethr =  3.03E-08,  avg # of iterations =  2.5

     total cpu time spent up to now is       18.6 secs

     total energy              =     -47.64859118 Ry
     estimated scf accuracy    <       0.00001362 Ry

     iteration #  8     ecut=    80.00 Ry     beta= 0.70
     Davidson diagonalization with overlap
     ethr =  3.03E-08,  avg # of iterations =  1.6

     total cpu time spent up to now is       19.0 secs

     total energy              =     -47.64858607 Ry
     estimated scf accuracy    <       0.00001570 Ry

     iteration #  9     ecut=    80.00 Ry     beta= 0.70
     Davidson diagonalization with overlap
     ethr =  3.03E-08,  avg # of iterations =  2.0

     total cpu time spent up to now is       19.4 secs

     total energy              =     -47.64858637 Ry
     estimated scf accuracy    <       0.00000231 Ry

     iteration # 10     ecut=    80.00 Ry     beta= 0.70
     Davidson diagonalization with overlap
     ethr =  1.22E-08,  avg # of iterations =  2.1

     total cpu time spent up to now is       19.7 secs

     total energy              =     -47.64858676 Ry
     estimated scf accuracy    <       0.00000004 Ry

     iteration # 11     ecut=    80.00 Ry     beta= 0.70
     Davidson diagonalization with overlap
     ethr =  2.30E-10,  avg # of iterations =  3.9

     total cpu time spent up to now is       20.2 secs

     total energy              =     -47.64858680 Ry
     estimated scf accuracy    <       0.00000001 Ry

     iteration # 12     ecut=    80.00 Ry     beta= 0.70
     Davidson diagonalization with overlap
     ethr =  6.50E-11,  avg # of iterations =  2.0

     total cpu time spent up to now is       20.6 secs

     total energy              =     -47.64858680 Ry
     estimated scf accuracy    <          1.4E-10 Ry

     iteration # 13     ecut=    80.00 Ry     beta= 0.70
     Davidson diagonalization with overlap
     ethr =  7.23E-13,  avg # of iterations =  4.7

     total cpu time spent up to now is       21.1 secs

     total energy              =     -47.64858680 Ry
     estimated scf accuracy    <          3.5E-09 Ry

     iteration # 14     ecut=    80.00 Ry     beta= 0.70
     Davidson diagonalization with overlap
     ethr =  7.23E-13,  avg # of iterations =  4.1

     total cpu time spent up to now is       21.6 secs

     End of self-consistent calculation

          k = 0.0000 0.0000 0.0000 (  5575 PWs)   bands (ev):

   -34.3124  -2.1328   6.1508   6.1508   6.1508   7.9881   7.9881   9.4870
    14.6702  14.6702  14.6702  16.1107  16.1107  16.1107

          k = 0.0000 0.0000 0.1555 (  5606 PWs)   bands (ev):

   -34.3116  -1.9459   4.5669   6.3375   6.3375   8.1874   9.0477  10.3583
    13.2257  13.2257  14.3265  14.8707  15.6465  15.6465

          k = 0.0000 0.0000 0.3111 (  5622 PWs)   bands (ev):

   -34.3100  -1.3898   2.6120   6.8860   6.8860   8.7764   9.3707  11.2076
    11.2076  12.4244  12.9814  14.3383  16.1133  16.1133

          k = 0.0000 0.0000 0.4666 (  5602 PWs)   bands (ev):

   -34.3086  -0.5094   1.0072   7.6904   7.6904   9.5479   9.6400   9.6400
     9.6848  11.3653  12.5221  16.8811  16.8811  17.0168

          k = 0.0000 0.1555 0.1555 (  5597 PWs)   bands (ev):

   -34.3109  -1.7586   4.5038   5.0449   6.5239   8.7816  10.2870  10.3780
    11.9889  13.0895  13.9707  14.1840  15.1406  16.0265

          k = 0.0000 0.1555 0.3111 (  5603 PWs)   bands (ev):

   -34.3092  -1.2014   2.7715   5.3869   7.0711   8.8091   9.7827  11.1966
    11.3797  12.7443  14.0040  14.1584  14.5658  15.9986

          k = 0.0000 0.1555 0.4666 (  5621 PWs)   bands (ev):

   -34.3079  -0.3155   1.1753   6.2692   7.5773   7.8709   9.8310  10.2163
    11.1705  12.6748  13.3910  14.9796  16.1126  16.6856

          k = 0.0000 0.3111 0.3111 (  5600 PWs)   bands (ev):

   -34.3076  -0.6404   2.9415   3.8291   7.2067   7.6126  10.1345  11.6198
    12.4082  13.0474  13.0811  14.1792  15.3865  16.2237

          k = 0.0000 0.3111 0.4666 (  5620 PWs)   bands (ev):

   -34.3062   0.2598   1.6620   4.3979   5.6345   8.3932  10.3954  10.8071
    12.1055  12.9446  13.9468  14.5959  15.2094  16.0512

          k = 0.0000 0.4666 0.4666 (  5636 PWs)   bands (ev):

   -34.3049   1.1802   2.1384   3.1146   4.0929   9.1092  11.1346  11.6255
    11.6318  12.4042  12.9178  13.5270  14.2643  18.0848

          k = 0.1555 0.1555 0.1555 (  5617 PWs)   bands (ev):

   -34.3102  -1.5711   4.6971   4.6971   5.5600  10.1227  10.5622  10.5622
    11.7243  11.7243  12.7034  15.6235  15.6235  16.6534

          k = 0.1555 0.1555 0.3111 (  5637 PWs)   bands (ev):

   -34.3085  -1.0128   2.9367   5.2666   5.8964   9.2200   9.6126  11.1432
    11.5664  12.5113  13.6272  15.1655  15.3082  16.3832

          k = 0.1555 0.1555 0.4666 (  5635 PWs)   bands (ev):

   -34.3072  -0.1220   1.3456   6.1176   6.6937   7.9131   7.9950  11.9757
    12.2114  12.7704  13.7414  14.1975  14.8517  17.2688

          k = 0.1555 0.3111 0.3111 (  5614 PWs)   bands (ev):

   -34.3068  -0.4513   3.1369   3.9295   6.0928   7.6697   9.8535  10.2275
    12.1787  13.9158  14.3013  14.4530  15.5036  16.2410

          k = 0.1555 0.3111 0.4666 (  5622 PWs)   bands (ev):

   -34.3055   0.4523   1.8394   4.5262   5.6872   7.3337   8.4990  10.8975
    12.4191  13.1563  14.0100  15.3110  16.3221  16.7762

          k = 0.1555 0.4666 0.4666 (  5623 PWs)   bands (ev):

   -34.3042   1.3725   2.3345   3.2713   4.2047   8.1100   9.3419   9.4629
    10.8536  13.9372  14.8855  15.0664  16.2804  18.2578

          k = 0.3111 0.3111 0.3111 (  5623 PWs)   bands (ev):

   -34.3052   0.1118   3.7125   3.7125   4.9077   8.1078   8.1078   8.3775
    12.0770  14.8352  14.8352  15.3726  17.3027  17.3027

          k = 0.3111 0.3111 0.4666 (  5645 PWs)   bands (ev):

   -34.3039   1.0234   2.3563   4.5732   5.2842   6.4675   7.0151   9.1083
    10.4790  15.5666  15.9749  16.7327  17.3715  18.4931

          k = 0.3111 0.4666 0.4666 (  5644 PWs)   bands (ev):

   -34.3026   1.9410   2.9120   3.6729   4.5094   6.4399   7.3319   7.8220
     8.8421  16.6262  17.5240  17.8257  18.8213  19.0800

          k = 0.4666 0.4666 0.4666 (  5667 PWs)   bands (ev):

   -34.3013   2.8412   3.7736   3.7736   4.6863   5.6867   5.6867   6.7301
     7.4492  19.1739  19.1739  19.4971  20.4967  20.4967

     the Fermi energy is    12.9760 ev

!    total energy              =     -47.64858680 Ry
     estimated scf accuracy    <          2.0E-11 Ry
     smearing contrib. (-TS)   =       0.00012523 Ry
     internal energy E=F+TS    =     -47.64871203 Ry

     The total energy is F=E-TS. E is the sum of the following terms:
     one-electron contribution =      13.00875280 Ry
     hartree contribution      =       4.51940063 Ry
     xc contribution           =     -16.69076152 Ry
     ewald contribution        =     -48.48610394 Ry

     convergence has been achieved in  14 iterations

     Forces acting on atoms (cartesian axes, Ry/au):

     atom    1 type  1   force =     0.00000000    0.00000000    0.00000000
     atom    2 type  1   force =     0.00000000    0.00000000    0.00000000
     atom    3 type  1   force =     0.00000000    0.00000000    0.00000000
     atom    4 type  1   force =     0.00000000    0.00000000    0.00000000
     atom    5 type  2   force =     0.00000000    0.00000000    0.00000000
     The non-local contrib.  to forces
     atom    1 type  1   force =     0.00000000    0.00000000    0.00000000
     atom    2 type  1   force =     0.00000000    0.00000000    0.00000000
     atom    3 type  1   force =     0.00000000    0.00000000    0.00000000
     atom    4 type  1   force =     0.00000000    0.00000000    0.00000000
     atom    5 type  2   force =     0.00000000    0.00000000    0.00000000
     The ionic contribution  to forces
     atom    1 type  1   force =    -0.00000000    0.00000000    0.00000000
     atom    2 type  1   force =     0.00000000   -0.00000000    0.00000000
     atom    3 type  1   force =     0.00000000    0.00000000   -0.00000000
     atom    4 type  1   force =    -0.00000000   -0.00000000   -0.00000000
     atom    5 type  2   force =     0.00000000    0.00000000    0.00000000
     The local contribution  to forces
     atom    1 type  1   force =    -0.00000000    0.00000000   -0.00000000
     atom    2 type  1   force =     0.00000000   -0.00000000   -0.00000000
     atom    3 type  1   force =     0.00000000    0.00000000    0.00000000
     atom    4 type  1   force =     0.00000000    0.00000000    0.00000000
     atom    5 type  2   force =     0.00000000    0.00000000    0.00000000
     The core correction contribution to forces
     atom    1 type  1   force =    -0.00000000   -0.00000000    0.00000000
     atom    2 type  1   force =    -0.00000000    0.00000000    0.00000000
     atom    3 type  1   force =    -0.00000000   -0.00000000   -0.00000000
     atom    4 type  1   force =     0.00000000    0.00000000   -0.00000000
     atom    5 type  2   force =     0.00000000    0.00000000    0.00000000
     The Hubbard contrib.    to forces
     atom    1 type  1   force =     0.00000000    0.00000000    0.00000000
     atom    2 type  1   force =     0.00000000    0.00000000    0.00000000
     atom    3 type  1   force =     0.00000000    0.00000000    0.00000000
     atom    4 type  1   force =     0.00000000    0.00000000    0.00000000
     atom    5 type  2   force =     0.00000000    0.00000000    0.00000000
     The SCF correction term to forces
     atom    1 type  1   force =    -0.00000000   -0.00000000    0.00000000
     atom    2 type  1   force =     0.00000000    0.00000000    0.00000000
     atom    3 type  1   force =    -0.00000000    0.00000000    0.00000000
     atom    4 type  1   force =     0.00000000    0.00000000   -0.00000000
     atom    5 type  2   force =    -0.00000000    0.00000000   -0.00000000

     Total force =     0.000000     Total SCF correction =     0.000000


     Computing stress (Cartesian axis) and pressure

          total   stress  (Ry/bohr**3)                   (kbar)     P=      533.48
   0.00362649   0.00000000   0.00000000          533.48        0.00        0.00
   0.00000000   0.00362649   0.00000000            0.00      533.48        0.00
   0.00000000   0.00000000   0.00362649            0.00        0.00      533.48

     Energy error            =      6.6E-03 Ry
     Gradient error          =      0.0E+00 Ry/Bohr
     Cell gradient error     =      3.3E+01 kbar

     number of scf cycles    =   3
     number of bfgs steps    =   2

     enthalpy           old  =     -46.4162281272 Ry
     enthalpy           new  =     -46.4228350666 Ry

     CASE: enthalpy          _new < enthalpy          _old

     new trust radius        =       0.0204035806 bohr
ibrav =      1
 celldm(1) =      7.15616315
Input lattice vectors:
     0.92337073     0.00000000     0.00000000
     0.00000000     0.92337073     0.00000000
     0.00000000     0.00000000     0.92337073
New lattice vectors in INITIAL alat:
     0.92337073     0.00000000     0.00000000
     0.00000000     0.92337073     0.00000000
     0.00000000     0.00000000     0.92337073
New lattice vectors in NEW alat (for information only):
     1.00000000     0.00000000     0.00000000
     0.00000000     1.00000000     0.00000000
     0.00000000     0.00000000     1.00000000
Discrepancy in bohr =     0.000000    0.000000    0.000000
     new conv_thr            =            1.0E-10 Ry

     new unit-cell volume =    366.47192 a.u.^3 (    54.30554 Ang^3 )
     density =      3.64740 g/cm^3

CELL_PARAMETERS (alat=  7.75004332)
   0.923370729   0.000000000   0.000000000
   0.000000000   0.923370729   0.000000000
   0.000000000   0.000000000   0.923370729

ATOMIC_POSITIONS (crystal)
Si            0.0000000000        0.5000000000        0.5000000000
Si            0.5000000000        0.0000000000        0.5000000000
Si            0.5000000000        0.5000000000        0.0000000000
Si            0.0000000000        0.0000000000        0.0000000000
Li            0.5000000000        0.5000000000        0.5000000000



     Writing config-only to output data dir ./output/SiLi.save/
     NEW-OLD atomic charge density approx. for the potential
     extrapolated charge   19.30284, renormalised to   19.00000

     total cpu time spent up to now is       23.5 secs

     Self-consistent Calculation

     iteration #  1     ecut=    80.00 Ry     beta= 0.70
     Davidson diagonalization with overlap
     ethr =  1.00E-06,  avg # of iterations =  5.8

     total cpu time spent up to now is       24.1 secs

     total energy              =     -47.66756219 Ry
     estimated scf accuracy    <       0.00084120 Ry

     iteration #  2     ecut=    80.00 Ry     beta= 0.70
     Davidson diagonalization with overlap
     ethr =  4.43E-06,  avg # of iterations =  4.0

     total cpu time spent up to now is       24.6 secs

     total energy              =     -47.66903721 Ry
     estimated scf accuracy    <       0.00338397 Ry

     iteration #  3     ecut=    80.00 Ry     beta= 0.70
     Davidson diagonalization with overlap
     ethr =  4.43E-06,  avg # of iterations =  2.0

     total cpu time spent up to now is       25.0 secs

     total energy              =     -47.66912619 Ry
     estimated scf accuracy    <       0.00066066 Ry

     iteration #  4     ecut=    80.00 Ry     beta= 0.70
     Davidson diagonalization with overlap
     ethr =  3.48E-06,  avg # of iterations =  1.1

     total cpu time spent up to now is       25.3 secs

     total energy              =     -47.66903258 Ry
     estimated scf accuracy    <       0.00029349 Ry

     iteration #  5     ecut=    80.00 Ry     beta= 0.70
     Davidson diagonalization with overlap
     ethr =  1.54E-06,  avg # of iterations =  1.7

     total cpu time spent up to now is       25.7 secs

     total energy              =     -47.66905781 Ry
     estimated scf accuracy    <       0.00003068 Ry

     iteration #  6     ecut=    80.00 Ry     beta= 0.70
     Davidson diagonalization with overlap
     ethr =  1.61E-07,  avg # of iterations =  2.8

     total cpu time spent up to now is       26.0 secs

     total energy              =     -47.66906365 Ry
     estimated scf accuracy    <       0.00000575 Ry

     iteration #  7     ecut=    80.00 Ry     beta= 0.70
     Davidson diagonalization with overlap
     ethr =  3.03E-08,  avg # of iterations =  1.8

     total cpu time spent up to now is       26.3 secs

     total energy              =     -47.66906318 Ry
     estimated scf accuracy    <       0.00000520 Ry

     iteration #  8     ecut=    80.00 Ry     beta= 0.70
     Davidson diagonalization with overlap
     ethr =  2.74E-08,  avg # of iterations =  1.1

     total cpu time spent up to now is       26.7 secs

     total energy              =     -47.66906205 Ry
     estimated scf accuracy    <       0.00000313 Ry

     iteration #  9     ecut=    80.00 Ry     beta= 0.70
     Davidson diagonalization with overlap
     ethr =  1.65E-08,  avg # of iterations =  1.9

     total cpu time spent up to now is       27.0 secs

     total energy              =     -47.66906244 Ry
     estimated scf accuracy    <       0.00000021 Ry

     iteration # 10     ecut=    80.00 Ry     beta= 0.70
     Davidson diagonalization with overlap
     ethr =  1.11E-09,  avg # of iterations =  2.6

     total cpu time spent up to now is       27.3 secs

     total energy              =     -47.66906247 Ry
     estimated scf accuracy    <       0.00000008 Ry

     iteration # 11     ecut=    80.00 Ry     beta= 0.70
     Davidson diagonalization with overlap
     ethr =  4.36E-10,  avg # of iterations =  1.1

     total cpu time spent up to now is       27.6 secs

     total energy              =     -47.66906245 Ry
     estimated scf accuracy    <       0.00000007 Ry

     iteration # 12     ecut=    80.00 Ry     beta= 0.70
     Davidson diagonalization with overlap
     ethr =  3.58E-10,  avg # of iterations =  2.0

     total cpu time spent up to now is       28.0 secs

     total energy              =     -47.66906246 Ry
     estimated scf accuracy    <          3.3E-09 Ry

     iteration # 13     ecut=    80.00 Ry     beta= 0.70
     Davidson diagonalization with overlap
     ethr =  1.74E-11,  avg # of iterations =  3.2

     total cpu time spent up to now is       28.3 secs

     total energy              =     -47.66906246 Ry
     estimated scf accuracy    <          3.3E-09 Ry

     iteration # 14     ecut=    80.00 Ry     beta= 0.70
     Davidson diagonalization with overlap
     ethr =  1.74E-11,  avg # of iterations =  2.2

     total cpu time spent up to now is       28.7 secs

     End of self-consistent calculation

          k = 0.0000 0.0000 0.0000 (  5575 PWs)   bands (ev):

   -34.4661  -2.2357   5.9989   5.9989   5.9989   7.7566   7.7566   9.1866
    14.3988  14.3988  14.3988  15.8189  15.8189  15.8189

          k = 0.0000 0.0000 0.1547 (  5606 PWs)   bands (ev):

   -34.4654  -2.0504   4.4082   6.1839   6.1839   7.9525   8.7815  10.0990
    12.9966  12.9966  14.0519  14.5907  15.3673  15.3673

          k = 0.0000 0.0000 0.3094 (  5622 PWs)   bands (ev):

   -34.4639  -1.4986   2.4651   6.7271   6.7271   8.5296   9.0824  11.0043
    11.0043  12.1901  12.7255  14.0384  15.8268  15.8268

          k = 0.0000 0.0000 0.4641 (  5602 PWs)   bands (ev):

   -34.4626  -0.6226   0.8699   7.5238   7.5238   9.2545   9.4041   9.4532
     9.4532  11.1501  12.2839  16.5880  16.5880  16.6940

          k = 0.0000 0.1547 0.1547 (  5597 PWs)   bands (ev):

   -34.4648  -1.8647   4.3481   4.8783   6.3685   8.5258  10.0369  10.1442
    11.7486  12.8609  13.7400  13.9116  14.8611  15.7376

          k = 0.0000 0.1547 0.3094 (  5603 PWs)   bands (ev):

   -34.4632  -1.3118   2.6239   5.2170   6.9104   8.5518   9.5810  10.9269
    11.1745  12.5096  13.7082  13.9226  14.2984  15.7134

          k = 0.0000 0.1547 0.4641 (  5621 PWs)   bands (ev):

   -34.4620  -0.4308   1.0373   6.0882   7.3752   7.7026   9.6423   9.9728
    10.8782  12.4490  13.1482  14.7348  15.7966  16.4217

          k = 0.0000 0.3094 0.3094 (  5600 PWs)   bands (ev):

   -34.4617  -0.7557   2.7978   3.6615   7.0025   7.4467   9.8960  11.4116
    12.1945  12.7793  12.8015  13.8907  15.1239  15.9676

          k = 0.0000 0.3094 0.4641 (  5620 PWs)   bands (ev):

   -34.4604   0.1384   1.5224   4.2286   5.4519   8.2199  10.2011  10.5585
    11.8335  12.7245  13.6684  14.3575  14.9282  15.7564

          k = 0.0000 0.4641 0.4641 (  5636 PWs)   bands (ev):

   -34.4592   1.0504   2.0020   2.9561   3.9180   8.9289  10.9326  11.3776
    11.4197  12.1531  12.6975  13.2321  13.9649  17.7667

          k = 0.1547 0.1547 0.1547 (  5617 PWs)   bands (ev):

   -34.4641  -1.6787   4.5390   4.5390   5.3844   9.8648  10.3286  10.3286
    11.4980  11.4980  12.4594  15.3433  15.3433  16.3565

          k = 0.1547 0.1547 0.3094 (  5637 PWs)   bands (ev):

   -34.4625  -1.1250   2.7879   5.1008   5.7156   8.9977   9.4197  10.8896
    11.3442  12.2550  13.3648  14.8971  15.0313  16.1013

          k = 0.1547 0.1547 0.4641 (  5635 PWs)   bands (ev):

   -34.4613  -0.2394   1.2066   5.9353   6.4992   7.7193   7.8245  11.6988
    11.9677  12.5220  13.5068  13.9397  14.5920  16.9718

          k = 0.1547 0.3094 0.3094 (  5614 PWs)   bands (ev):

   -34.4610  -0.5684   2.9906   3.7630   5.9044   7.4871   9.6456  10.0224
    11.9206  13.6599  14.0316  14.1720  15.2230  15.9614

          k = 0.1547 0.3094 0.4641 (  5622 PWs)   bands (ev):

   -34.4598   0.3288   1.6981   4.3550   5.5001   7.1595   8.3081  10.6844
    12.1850  12.8892  13.7227  15.0530  16.0461  16.4641

          k = 0.1547 0.4641 0.4641 (  5623 PWs)   bands (ev):

   -34.4585   1.2404   2.1955   3.1102   4.0303   7.9237   9.1412   9.2646
    10.6370  13.6647  14.6242  14.7650  15.9955  17.9360

          k = 0.3094 0.3094 0.3094 (  5623 PWs)   bands (ev):

   -34.4595  -0.0106   3.5579   3.5579   4.7194   7.9258   7.9258   8.1720
    11.8499  14.5511  14.5511  15.0811  17.0064  17.0064

          k = 0.3094 0.3094 0.4641 (  5645 PWs)   bands (ev):

   -34.4582   0.8938   2.2105   4.4000   5.0920   6.3119   6.8326   8.9079
    10.2657  15.2610  15.6808  16.4486  17.0959  18.1821

          k = 0.3094 0.4641 0.4641 (  5644 PWs)   bands (ev):

   -34.4570   1.8019   2.7644   3.5054   4.3336   6.2720   7.1572   7.6242
     8.6433  16.3195  17.2187  17.5394  18.4809  18.7772

          k = 0.4641 0.4641 0.4641 (  5667 PWs)   bands (ev):

   -34.4558   2.6902   3.6068   3.6068   4.5022   5.5389   5.5389   6.5466
     7.2506  18.8493  18.8493  19.1925  20.1512  20.1512

     the Fermi energy is    12.7331 ev

!    total energy              =     -47.66906246 Ry
     estimated scf accuracy    <          1.5E-11 Ry
     smearing contrib. (-TS)   =      -0.00003649 Ry
     internal energy E=F+TS    =     -47.66902597 Ry

     The total energy is F=E-TS. E is the sum of the following terms:
     one-electron contribution =      12.66809635 Ry
     hartree contribution      =       4.52695232 Ry
     xc contribution           =     -16.63705242 Ry
     ewald contribution        =     -48.22702223 Ry

     convergence has been achieved in  14 iterations

     Forces acting on atoms (cartesian axes, Ry/au):

     atom    1 type  1   force =     0.00000000    0.00000000    0.00000000
     atom    2 type  1   force =     0.00000000    0.00000000    0.00000000
     atom    3 type  1   force =     0.00000000    0.00000000    0.00000000
     atom    4 type  1   force =     0.00000000    0.00000000    0.00000000
     atom    5 type  2   force =     0.00000000    0.00000000    0.00000000
     The non-local contrib.  to forces
     atom    1 type  1   force =     0.00000000    0.00000000    0.00000000
     atom    2 type  1   force =     0.00000000    0.00000000    0.00000000
     atom    3 type  1   force =     0.00000000    0.00000000    0.00000000
     atom    4 type  1   force =     0.00000000    0.00000000    0.00000000
     atom    5 type  2   force =     0.00000000    0.00000000    0.00000000
     The ionic contribution  to forces
     atom    1 type  1   force =    -0.00000000    0.00000000    0.00000000
     atom    2 type  1   force =     0.00000000   -0.00000000    0.00000000
     atom    3 type  1   force =     0.00000000    0.00000000   -0.00000000
     atom    4 type  1   force =    -0.00000000   -0.00000000   -0.00000000
     atom    5 type  2   force =     0.00000000   -0.00000000    0.00000000
     The local contribution  to forces
     atom    1 type  1   force =    -0.00000000    0.00000000    0.00000000
     atom    2 type  1   force =     0.00000000   -0.00000000    0.00000000
     atom    3 type  1   force =     0.00000000    0.00000000   -0.00000000
     atom    4 type  1   force =     0.00000000    0.00000000   -0.00000000
     atom    5 type  2   force =    -0.00000000   -0.00000000   -0.00000000
     The core correction contribution to forces
     atom    1 type  1   force =    -0.00000000   -0.00000000   -0.00000000
     atom    2 type  1   force =    -0.00000000   -0.00000000   -0.00000000
     atom    3 type  1   force =    -0.00000000   -0.00000000   -0.00000000
     atom    4 type  1   force =     0.00000000    0.00000000   -0.00000000
     atom    5 type  2   force =     0.00000000    0.00000000    0.00000000
     The Hubbard contrib.    to forces
     atom    1 type  1   force =     0.00000000    0.00000000    0.00000000
     atom    2 type  1   force =     0.00000000    0.00000000    0.00000000
     atom    3 type  1   force =     0.00000000    0.00000000    0.00000000
     atom    4 type  1   force =     0.00000000    0.00000000    0.00000000
     atom    5 type  2   force =     0.00000000    0.00000000    0.00000000
     The SCF correction term to forces
     atom    1 type  1   force =    -0.00000000   -0.00000000   -0.00000000
     atom    2 type  1   force =     0.00000000    0.00000000   -0.00000000
     atom    3 type  1   force =     0.00000000    0.00000000    0.00000000
     atom    4 type  1   force =    -0.00000000    0.00000000    0.00000000
     atom    5 type  2   force =     0.00000000   -0.00000000    0.00000000

     Total force =     0.000000     Total SCF correction =     0.000000


     Computing stress (Cartesian axis) and pressure

          total   stress  (Ry/bohr**3)                   (kbar)     P=      497.91
   0.00338470   0.00000000   0.00000000          497.91        0.00        0.00
   0.00000000   0.00338470   0.00000000            0.00      497.91        0.00
   0.00000000   0.00000000   0.00338470            0.00        0.00      497.91

     Energy error            =      6.1E-04 Ry
     Gradient error          =      0.0E+00 Ry/Bohr
     Cell gradient error     =      2.1E+00 kbar

     number of scf cycles    =   4
     number of bfgs steps    =   3

     enthalpy           old  =     -46.4228350666 Ry
     enthalpy           new  =     -46.4234497270 Ry

     CASE: enthalpy          _new < enthalpy          _old

     new trust radius        =       0.0012163852 bohr
ibrav =      1
 celldm(1) =      7.15388962
Input lattice vectors:
     0.92307737     0.00000000     0.00000000
     0.00000000     0.92307737     0.00000000
     0.00000000     0.00000000     0.92307737
New lattice vectors in INITIAL alat:
     0.92307737     0.00000000     0.00000000
     0.00000000     0.92307737     0.00000000
     0.00000000     0.00000000     0.92307737
New lattice vectors in NEW alat (for information only):
     1.00000000     0.00000000     0.00000000
     0.00000000     1.00000000     0.00000000
     0.00000000     0.00000000     1.00000000
Discrepancy in bohr =     0.000000    0.000000    0.000000
     new conv_thr            =            1.0E-10 Ry

     new unit-cell volume =    366.12274 a.u.^3 (    54.25379 Ang^3 )
     density =      3.65088 g/cm^3

CELL_PARAMETERS (alat=  7.75004332)
   0.923077372   0.000000000   0.000000000
   0.000000000   0.923077372   0.000000000
   0.000000000   0.000000000   0.923077372

ATOMIC_POSITIONS (crystal)
Si            0.0000000000        0.5000000000        0.5000000000
Si            0.5000000000        0.0000000000        0.5000000000
Si            0.5000000000        0.5000000000        0.0000000000
Si            0.0000000000        0.0000000000        0.0000000000
Li            0.5000000000        0.5000000000        0.5000000000



     Writing config-only to output data dir ./output/SiLi.save/
     NEW-OLD atomic charge density approx. for the potential
     extrapolated charge   18.98189, renormalised to   19.00000

     total cpu time spent up to now is       30.5 secs

     Self-consistent Calculation

     iteration #  1     ecut=    80.00 Ry     beta= 0.70
     Davidson diagonalization with overlap
     ethr =  1.00E-06,  avg # of iterations =  1.1

     Threshold (ethr) on eigenvalues was too large:
     Diagonalizing with lowered threshold

     Davidson diagonalization with overlap
     ethr =  1.04E-08,  avg # of iterations =  3.6

     total cpu time spent up to now is       31.2 secs

     total energy              =     -47.66787286 Ry
     estimated scf accuracy    <       0.00000295 Ry

     iteration #  2     ecut=    80.00 Ry     beta= 0.70
     Davidson diagonalization with overlap
     ethr =  1.55E-08,  avg # of iterations =  3.5

     total cpu time spent up to now is       31.6 secs

     total energy              =     -47.66787810 Ry
     estimated scf accuracy    <       0.00001182 Ry

     iteration #  3     ecut=    80.00 Ry     beta= 0.70
     Davidson diagonalization with overlap
     ethr =  1.55E-08,  avg # of iterations =  2.0

     total cpu time spent up to now is       31.9 secs

     total energy              =     -47.66787837 Ry
     estimated scf accuracy    <       0.00000234 Ry

     iteration #  4     ecut=    80.00 Ry     beta= 0.70
     Davidson diagonalization with overlap
     ethr =  1.23E-08,  avg # of iterations =  1.1

     total cpu time spent up to now is       32.2 secs

     total energy              =     -47.66787805 Ry
     estimated scf accuracy    <       0.00000099 Ry

     iteration #  5     ecut=    80.00 Ry     beta= 0.70
     Davidson diagonalization with overlap
     ethr =  5.19E-09,  avg # of iterations =  1.9

     total cpu time spent up to now is       32.6 secs

     total energy              =     -47.66787815 Ry
     estimated scf accuracy    <       0.00000009 Ry

     iteration #  6     ecut=    80.00 Ry     beta= 0.70
     Davidson diagonalization with overlap
     ethr =  4.57E-10,  avg # of iterations =  3.1

     total cpu time spent up to now is       32.9 secs

     total energy              =     -47.66787817 Ry
     estimated scf accuracy    <       0.00000002 Ry

     iteration #  7     ecut=    80.00 Ry     beta= 0.70
     Davidson diagonalization with overlap
     ethr =  8.30E-11,  avg # of iterations =  2.0

     total cpu time spent up to now is       33.3 secs

     total energy              =     -47.66787817 Ry
     estimated scf accuracy    <       0.00000001 Ry

     iteration #  8     ecut=    80.00 Ry     beta= 0.70
     Davidson diagonalization with overlap
     ethr =  6.29E-11,  avg # of iterations =  1.1

     total cpu time spent up to now is       33.5 secs

     total energy              =     -47.66787816 Ry
     estimated scf accuracy    <          5.4E-09 Ry

     iteration #  9     ecut=    80.00 Ry     beta= 0.70
     Davidson diagonalization with overlap
     ethr =  2.83E-11,  avg # of iterations =  2.1

     total cpu time spent up to now is       33.9 secs

     total energy              =     -47.66787817 Ry
     estimated scf accuracy    <          3.2E-10 Ry

     iteration # 10     ecut=    80.00 Ry     beta= 0.70
     Davidson diagonalization with overlap
     ethr =  1.68E-12,  avg # of iterations =  3.0

     total cpu time spent up to now is       34.2 secs

     total energy              =     -47.66787817 Ry
     estimated scf accuracy    <          1.9E-10 Ry

     iteration # 11     ecut=    80.00 Ry     beta= 0.70
     Davidson diagonalization with overlap
     ethr =  9.82E-13,  avg # of iterations =  1.0

     total cpu time spent up to now is       34.5 secs

     total energy              =     -47.66787817 Ry
     estimated scf accuracy    <          2.1E-10 Ry

     iteration # 12     ecut=    80.00 Ry     beta= 0.70
     Davidson diagonalization with overlap
     ethr =  9.82E-13,  avg # of iterations =  1.6

     total cpu time spent up to now is       34.8 secs

     End of self-consistent calculation

          k = 0.0000 0.0000 0.0000 (  5575 PWs)   bands (ev):

   -34.4570  -2.2297   6.0079   6.0079   6.0079   7.7703   7.7703   9.2043
    14.4148  14.4148  14.4148  15.8361  15.8361  15.8361

          k = 0.0000 0.0000 0.1548 (  5606 PWs)   bands (ev):

   -34.4563  -2.0442   4.4176   6.1929   6.1929   7.9663   8.7973  10.1142
    13.0101  13.0101  14.0681  14.6072  15.3837  15.3837

          k = 0.0000 0.0000 0.3095 (  5622 PWs)   bands (ev):

   -34.4547  -1.4922   2.4737   6.7365   6.7365   8.5442   9.0995  11.0163
    11.0163  12.2039  12.7405  14.0561  15.8437  15.8437

          k = 0.0000 0.0000 0.4643 (  5602 PWs)   bands (ev):

   -34.4535  -0.6160   0.8780   7.5337   7.5337   9.2718   9.4208   9.4642
     9.4642  11.1627  12.2979  16.6053  16.6053  16.7131

          k = 0.0000 0.1548 0.1548 (  5597 PWs)   bands (ev):

   -34.4556  -1.8584   4.3573   4.8882   6.3776   8.5409  10.0517  10.1580
    11.7627  12.8744  13.7536  13.9276  14.8775  15.7546

          k = 0.0000 0.1548 0.3095 (  5603 PWs)   bands (ev):

   -34.4540  -1.3053   2.6326   5.2270   6.9199   8.5671   9.5929  10.9428
    11.1866  12.5234  13.7257  13.9365  14.3142  15.7302

          k = 0.0000 0.1548 0.4643 (  5621 PWs)   bands (ev):

   -34.4528  -0.4240   1.0455   6.0989   7.3872   7.7125   9.6535   9.9872
    10.8954  12.4623  13.1625  14.7492  15.8153  16.4373

          k = 0.0000 0.3095 0.3095 (  5600 PWs)   bands (ev):

   -34.4525  -0.7489   2.8062   3.6714   7.0146   7.4565   9.9100  11.4239
    12.2071  12.7971  12.8161  13.9076  15.1394  15.9827

          k = 0.0000 0.3095 0.4643 (  5620 PWs)   bands (ev):

   -34.4512   0.1456   1.5306   4.2386   5.4627   8.2301  10.2125  10.5732
    11.8496  12.7374  13.6848  14.3716  14.9449  15.7738

          k = 0.0000 0.4643 0.4643 (  5636 PWs)   bands (ev):

   -34.4500   1.0581   2.0100   2.9654   3.9283   8.9395  10.9445  11.3926
    11.4318  12.1679  12.7105  13.2496  13.9825  17.7855

          k = 0.1548 0.1548 0.1548 (  5617 PWs)   bands (ev):

   -34.4549  -1.6724   4.5483   4.5483   5.3948   9.8800  10.3424  10.3424
    11.5113  11.5113  12.4737  15.3598  15.3598  16.3740

          k = 0.1548 0.1548 0.3095 (  5637 PWs)   bands (ev):

   -34.4533  -1.1184   2.7967   5.1106   5.7263   9.0109   9.4311  10.9046
    11.3573  12.2702  13.3803  14.9129  15.0476  16.1179

          k = 0.1548 0.1548 0.4643 (  5635 PWs)   bands (ev):

   -34.4521  -0.2325   1.2148   5.9461   6.5107   7.7307   7.8345  11.7151
    11.9821  12.5366  13.5206  13.9549  14.6074  16.9893

          k = 0.1548 0.3095 0.3095 (  5614 PWs)   bands (ev):

   -34.4518  -0.5615   2.9992   3.7728   5.9155   7.4978   9.6579  10.0345
    11.9358  13.6750  14.0476  14.1885  15.2395  15.9779

          k = 0.1548 0.3095 0.4643 (  5622 PWs)   bands (ev):

   -34.4506   0.3361   1.7065   4.3651   5.5112   7.1698   8.3193  10.6970
    12.1988  12.9050  13.7396  15.0682  16.0624  16.4825

          k = 0.1548 0.4643 0.4643 (  5623 PWs)   bands (ev):

   -34.4493   1.2482   2.2037   3.1197   4.0406   7.9347   9.1531   9.2763
    10.6497  13.6808  14.6396  14.7827  16.0123  17.9549

          k = 0.3095 0.3095 0.3095 (  5623 PWs)   bands (ev):

   -34.4503  -0.0034   3.5670   3.5670   4.7305   7.9365   7.9365   8.1841
    11.8633  14.5679  14.5679  15.0983  17.0239  17.0239

          k = 0.3095 0.3095 0.4643 (  5645 PWs)   bands (ev):

   -34.4490   0.9014   2.2191   4.4102   5.1033   6.3211   6.8434   8.9197
    10.2782  15.2790  15.6982  16.4654  17.1121  18.2004

          k = 0.3095 0.4643 0.4643 (  5644 PWs)   bands (ev):

   -34.4478   1.8101   2.7731   3.5152   4.3440   6.2818   7.1675   7.6359
     8.6550  16.3376  17.2367  17.5563  18.5010  18.7951

          k = 0.4643 0.4643 0.4643 (  5667 PWs)   bands (ev):

   -34.4466   2.6991   3.6167   3.6167   4.5131   5.5476   5.5476   6.5574
     7.2623  18.8685  18.8685  19.2105  20.1716  20.1716

     the Fermi energy is    12.7475 ev

!    total energy              =     -47.66787817 Ry
     estimated scf accuracy    <          4.7E-11 Ry
     smearing contrib. (-TS)   =      -0.00002760 Ry
     internal energy E=F+TS    =     -47.66785057 Ry

     The total energy is F=E-TS. E is the sum of the following terms:
     one-electron contribution =      12.68824182 Ry
     hartree contribution      =       4.52647389 Ry
     xc contribution           =     -16.64021734 Ry
     ewald contribution        =     -48.24234895 Ry

     convergence has been achieved in  12 iterations

     Forces acting on atoms (cartesian axes, Ry/au):

     atom    1 type  1   force =     0.00000000    0.00000000    0.00000000
     atom    2 type  1   force =     0.00000000    0.00000000    0.00000000
     atom    3 type  1   force =     0.00000000    0.00000000    0.00000000
     atom    4 type  1   force =     0.00000000    0.00000000    0.00000000
     atom    5 type  2   force =     0.00000000    0.00000000    0.00000000
     The non-local contrib.  to forces
     atom    1 type  1   force =     0.00000000    0.00000000    0.00000000
     atom    2 type  1   force =     0.00000000    0.00000000    0.00000000
     atom    3 type  1   force =     0.00000000    0.00000000    0.00000000
     atom    4 type  1   force =     0.00000000    0.00000000    0.00000000
     atom    5 type  2   force =     0.00000000    0.00000000    0.00000000
     The ionic contribution  to forces
     atom    1 type  1   force =    -0.00000000    0.00000000    0.00000000
     atom    2 type  1   force =     0.00000000   -0.00000000    0.00000000
     atom    3 type  1   force =     0.00000000    0.00000000   -0.00000000
     atom    4 type  1   force =    -0.00000000   -0.00000000   -0.00000000
     atom    5 type  2   force =     0.00000000    0.00000000    0.00000000
     The local contribution  to forces
     atom    1 type  1   force =    -0.00000000    0.00000000    0.00000000
     atom    2 type  1   force =     0.00000000   -0.00000000    0.00000000
     atom    3 type  1   force =     0.00000000    0.00000000   -0.00000000
     atom    4 type  1   force =     0.00000000   -0.00000000   -0.00000000
     atom    5 type  2   force =     0.00000000    0.00000000    0.00000000
     The core correction contribution to forces
     atom    1 type  1   force =    -0.00000000   -0.00000000   -0.00000000
     atom    2 type  1   force =    -0.00000000   -0.00000000   -0.00000000
     atom    3 type  1   force =    -0.00000000   -0.00000000   -0.00000000
     atom    4 type  1   force =     0.00000000    0.00000000   -0.00000000
     atom    5 type  2   force =     0.00000000    0.00000000    0.00000000
     The Hubbard contrib.    to forces
     atom    1 type  1   force =     0.00000000    0.00000000    0.00000000
     atom    2 type  1   force =     0.00000000    0.00000000    0.00000000
     atom    3 type  1   force =     0.00000000    0.00000000    0.00000000
     atom    4 type  1   force =     0.00000000    0.00000000    0.00000000
     atom    5 type  2   force =     0.00000000    0.00000000    0.00000000
     The SCF correction term to forces
     atom    1 type  1   force =     0.00000000    0.00000000    0.00000000
     atom    2 type  1   force =     0.00000000   -0.00000000    0.00000000
     atom    3 type  1   force =    -0.00000000   -0.00000000   -0.00000000
     atom    4 type  1   force =    -0.00000000    0.00000000    0.00000000
     atom    5 type  2   force =    -0.00000000   -0.00000000    0.00000000

     Total force =     0.000000     Total SCF correction =     0.000000


     Computing stress (Cartesian axis) and pressure

          total   stress  (Ry/bohr**3)                   (kbar)     P=      499.96
   0.00339866   0.00000000   0.00000000          499.96        0.00        0.00
   0.00000000   0.00339866   0.00000000            0.00      499.96        0.00
   0.00000000   0.00000000   0.00339866            0.00        0.00      499.96

     Energy error            =      2.5E-06 Ry
     Gradient error          =      0.0E+00 Ry/Bohr
     Cell gradient error     =      4.0E-02 kbar
ibrav =      1
 celldm(1) =      7.15388962
Input lattice vectors:
     0.92307737     0.00000000     0.00000000
     0.00000000     0.92307737     0.00000000
     0.00000000     0.00000000     0.92307737
New lattice vectors in INITIAL alat:
     0.92307737     0.00000000     0.00000000
     0.00000000     0.92307737     0.00000000
     0.00000000     0.00000000     0.92307737
New lattice vectors in NEW alat (for information only):
     1.00000000     0.00000000     0.00000000
     0.00000000     1.00000000     0.00000000
     0.00000000     0.00000000     1.00000000
Discrepancy in bohr =     0.000000    0.000000    0.000000

     bfgs converged in   5 scf cycles and   4 bfgs steps
     (criteria: energy <  1.0E-04 Ry, force <  1.0E-03 Ry/Bohr, cell <  1.0E+00 kbar)

     End of BFGS Geometry Optimization

     Final enthalpy           =     -46.4234522614 Ry

     File ./output/SiLi.bfgs deleted, as requested
Begin final coordinates
     new unit-cell volume =    366.12274 a.u.^3 (    54.25379 Ang^3 )
     density =      3.65088 g/cm^3

CELL_PARAMETERS (alat=  7.75004332)
   0.923077372   0.000000000   0.000000000
   0.000000000   0.923077372   0.000000000
   0.000000000   0.000000000   0.923077372

ATOMIC_POSITIONS (crystal)
Si            0.0000000000        0.5000000000        0.5000000000
Si            0.5000000000        0.0000000000        0.5000000000
Si            0.5000000000        0.5000000000        0.0000000000
Si            0.0000000000        0.0000000000        0.0000000000
Li            0.5000000000        0.5000000000        0.5000000000
End final coordinates



     Writing config-only to output data dir ./output/SiLi.save/

     Final scf calculation at the relaxed structure.
     The G-vectors are recalculated for the final unit cell
     Results may differ from those at the preceding step.

     Parallelization info
     --------------------
     sticks:   dense  smooth     PW     G-vecs:    dense   smooth      PW
     Min         163     163     46                 4437     4437     680
     Max         164     164     47                 4442     4442     683
     Sum        1305    1305    373                35513    35513    5449

     Using Slab Decomposition



     bravais-lattice index     =            1
     lattice parameter (alat)  =       7.7500  a.u.
     unit-cell volume          =     366.1227 (a.u.)^3
     number of atoms/cell      =            5
     number of atomic types    =            2
     number of electrons       =        19.00
     number of Kohn-Sham states=           14
     kinetic-energy cutoff     =      80.0000  Ry
     charge density cutoff     =     320.0000  Ry
     scf convergence threshold =      1.0E-10
     mixing beta               =       0.7000
     number of iterations used =            8  plain     mixing
     press convergence thresh. =      1.0E+00
     Exchange-correlation= PBE
                           (   1   4   3   4   0   0   0)

     celldm(1)=   7.750043  celldm(2)=   0.000000  celldm(3)=   0.000000
     celldm(4)=   0.000000  celldm(5)=   0.000000  celldm(6)=   0.000000

     crystal axes: (cart. coord. in units of alat)
               a(1) = (   0.923077   0.000000   0.000000 )  
               a(2) = (   0.000000   0.923077   0.000000 )  
               a(3) = (   0.000000   0.000000   0.923077 )  

     reciprocal axes: (cart. coord. in units 2 pi/alat)
               b(1) = (  1.083333  0.000000  0.000000 )  
               b(2) = (  0.000000  1.083333  0.000000 )  
               b(3) = (  0.000000  0.000000  1.083333 )  


     PseudoPot. # 1 for Si read from file:
     ../pseudo/Si_ONCV_PBE_sr.upf
     MD5 check sum: e543d271109d17c80368dfa7c482276d
     Pseudo is Norm-conserving + core correction, Zval =  4.0
     Generated using ONCVPSP code by D. R. Hamann
     Using radial grid of 1510 points,  6 beta functions with: 
                l(1) =   0
                l(2) =   0
                l(3) =   1
                l(4) =   1
                l(5) =   2
                l(6) =   2

     PseudoPot. # 2 for Li read from file:
     ../pseudo/Li_ONCV_PBE_sr.upf
     MD5 check sum: 50ff420e78310ffa21704f3361e624a4
     Pseudo is Norm-conserving, Zval =  3.0
     Generated using ONCVPSP code by D. R. Hamann
     Using radial grid of 1944 points,  4 beta functions with: 
                l(1) =   0
                l(2) =   0
                l(3) =   1
                l(4) =   1

     atomic species   valence    mass     pseudopotential
        Si             4.00    28.08550     Si( 1.00)
        Li             3.00     6.94100     Li( 1.00)

     48 Sym. Ops., with inversion, found



   Cartesian axes

     site n.     atom                  positions (alat units)
         1           Si  tau(   1) = (   0.0000000   0.4615387   0.4615387  )
         2           Si  tau(   2) = (   0.4615387   0.0000000   0.4615387  )
         3           Si  tau(   3) = (   0.4615387   0.4615387   0.0000000  )
         4           Si  tau(   4) = (   0.0000000   0.0000000   0.0000000  )
         5           Li  tau(   5) = (   0.4615387   0.4615387   0.4615387  )

     number of k points=    20  Marzari-Vanderbilt smearing, width (Ry)=  0.0200
                       cart. coord. in units 2pi/alat
        k(    1) = (   0.0000000   0.0000000   0.0000000), wk =   0.0058309
        k(    2) = (   0.0000000   0.0000000   0.1547618), wk =   0.0349854
        k(    3) = (   0.0000000   0.0000000   0.3095237), wk =   0.0349854
        k(    4) = (   0.0000000   0.0000000   0.4642855), wk =   0.0349854
        k(    5) = (   0.0000000   0.1547618   0.1547618), wk =   0.0699708
        k(    6) = (   0.0000000   0.1547618   0.3095237), wk =   0.1399417
        k(    7) = (   0.0000000   0.1547618   0.4642855), wk =   0.1399417
        k(    8) = (   0.0000000   0.3095237   0.3095237), wk =   0.0699708
        k(    9) = (   0.0000000   0.3095237   0.4642855), wk =   0.1399417
        k(   10) = (   0.0000000   0.4642855   0.4642855), wk =   0.0699708
        k(   11) = (   0.1547618   0.1547618   0.1547618), wk =   0.0466472
        k(   12) = (   0.1547618   0.1547618   0.3095237), wk =   0.1399417
        k(   13) = (   0.1547618   0.1547618   0.4642855), wk =   0.1399417
        k(   14) = (   0.1547618   0.3095237   0.3095237), wk =   0.1399417
        k(   15) = (   0.1547618   0.3095237   0.4642855), wk =   0.2798834
        k(   16) = (   0.1547618   0.4642855   0.4642855), wk =   0.1399417
        k(   17) = (   0.3095237   0.3095237   0.3095237), wk =   0.0466472
        k(   18) = (   0.3095237   0.3095237   0.4642855), wk =   0.1399417
        k(   19) = (   0.3095237   0.4642855   0.4642855), wk =   0.1399417
        k(   20) = (   0.4642855   0.4642855   0.4642855), wk =   0.0466472

     Dense  grid:    35513 G-vectors     FFT dimensions: (  45,  45,  45)

     Estimated max dynamical RAM per process >      18.07 MB

     Estimated total dynamical RAM >     144.58 MB

     Initial potential from superposition of free atoms

     starting charge      18.9930, renormalised to      19.0000
     Starting wfcs are   18 randomized atomic wfcs

     total cpu time spent up to now is       36.6 secs

     Self-consistent Calculation

     iteration #  1     ecut=    80.00 Ry     beta= 0.70
     Davidson diagonalization with overlap
     c_bands:  1 eigenvalues not converged
     c_bands:  1 eigenvalues not converged
     c_bands:  2 eigenvalues not converged
     c_bands:  1 eigenvalues not converged
     c_bands:  2 eigenvalues not converged
     ethr =  1.00E-06,  avg # of iterations = 16.7

     total cpu time spent up to now is       37.8 secs

     total energy              =     -47.56124642 Ry
     estimated scf accuracy    <       0.27070212 Ry

     iteration #  2     ecut=    80.00 Ry     beta= 0.70
     Davidson diagonalization with overlap
     ethr =  1.42E-03,  avg # of iterations =  2.4

     total cpu time spent up to now is       38.2 secs

     total energy              =     -47.63677777 Ry
     estimated scf accuracy    <       0.16127441 Ry

     iteration #  3     ecut=    80.00 Ry     beta= 0.70
     Davidson diagonalization with overlap
     ethr =  8.49E-04,  avg # of iterations =  2.0

     total cpu time spent up to now is       38.6 secs

     total energy              =     -47.66717448 Ry
     estimated scf accuracy    <       0.00058067 Ry

     iteration #  4     ecut=    80.00 Ry     beta= 0.70
     Davidson diagonalization with overlap
     ethr =  3.06E-06,  avg # of iterations =  6.6

     total cpu time spent up to now is       39.1 secs

     total energy              =     -47.66781465 Ry
     estimated scf accuracy    <       0.00024266 Ry

     iteration #  5     ecut=    80.00 Ry     beta= 0.70
     Davidson diagonalization with overlap
     ethr =  1.28E-06,  avg # of iterations =  2.0

     total cpu time spent up to now is       39.4 secs

     total energy              =     -47.66785831 Ry
     estimated scf accuracy    <       0.00000097 Ry

     iteration #  6     ecut=    80.00 Ry     beta= 0.70
     Davidson diagonalization with overlap
     ethr =  5.12E-09,  avg # of iterations =  4.8

     total cpu time spent up to now is       39.8 secs

     total energy              =     -47.66786014 Ry
     estimated scf accuracy    <       0.00000074 Ry

     iteration #  7     ecut=    80.00 Ry     beta= 0.70
     Davidson diagonalization with overlap
     ethr =  3.92E-09,  avg # of iterations =  2.0

     total cpu time spent up to now is       40.1 secs

     total energy              =     -47.66786032 Ry
     estimated scf accuracy    <          5.5E-09 Ry

     iteration #  8     ecut=    80.00 Ry     beta= 0.70
     Davidson diagonalization with overlap
     ethr =  2.87E-11,  avg # of iterations =  3.6

     total cpu time spent up to now is       40.5 secs

     End of self-consistent calculation

          k = 0.0000 0.0000 0.0000 (  4385 PWs)   bands (ev):

   -34.4570  -2.2297   6.0079   6.0079   6.0079   7.7703   7.7703   9.2044
    14.4149  14.4149  14.4149  15.8361  15.8361  15.8362

          k = 0.0000 0.0000 0.1548 (  4437 PWs)   bands (ev):

   -34.4563  -2.0442   4.4176   6.1929   6.1929   7.9663   8.7973  10.1143
    13.0101  13.0101  14.0681  14.6072  15.3838  15.3838

          k = 0.0000 0.0000 0.3095 (  4424 PWs)   bands (ev):

   -34.4548  -1.4922   2.4737   6.7365   6.7365   8.5442   9.0995  11.0163
    11.0163  12.2039  12.7405  14.0561  15.8437  15.8437

          k = 0.0000 0.0000 0.4643 (  4424 PWs)   bands (ev):

   -34.4535  -0.6159   0.8780   7.5337   7.5337   9.2718   9.4208   9.4642
     9.4642  11.1627  12.2979  16.6053  16.6053  16.7131

          k = 0.0000 0.1548 0.1548 (  4423 PWs)   bands (ev):

   -34.4556  -1.8584   4.3573   4.8882   6.3776   8.5410  10.0517  10.1580
    11.7627  12.8744  13.7536  13.9277  14.8775  15.7546

          k = 0.0000 0.1548 0.3095 (  4430 PWs)   bands (ev):

   -34.4541  -1.3053   2.6326   5.2270   6.9199   8.5671   9.5929  10.9428
    11.1866  12.5234  13.7257  13.9366  14.3142  15.7302

          k = 0.0000 0.1548 0.4643 (  4412 PWs)   bands (ev):

   -34.4528  -0.4240   1.0455   6.0989   7.3872   7.7125   9.6535   9.9872
    10.8954  12.4623  13.1625  14.7492  15.8153  16.4374

          k = 0.0000 0.3095 0.3095 (  4426 PWs)   bands (ev):

   -34.4525  -0.7489   2.8062   3.6714   7.0146   7.4565   9.9101  11.4239
    12.2071  12.7971  12.8161  13.9076  15.1394  15.9827

          k = 0.0000 0.3095 0.4643 (  4436 PWs)   bands (ev):

   -34.4513   0.1456   1.5306   4.2386   5.4627   8.2301  10.2125  10.5732
    11.8496  12.7374  13.6848  14.3716  14.9449  15.7738

          k = 0.0000 0.4643 0.4643 (  4422 PWs)   bands (ev):

   -34.4501   1.0581   2.0100   2.9655   3.9283   8.9395  10.9446  11.3926
    11.4318  12.1679  12.7105  13.2496  13.9826  17.7856

          k = 0.1548 0.1548 0.1548 (  4428 PWs)   bands (ev):

   -34.4549  -1.6724   4.5483   4.5483   5.3948   9.8800  10.3424  10.3424
    11.5113  11.5113  12.4738  15.3598  15.3598  16.3740

          k = 0.1548 0.1548 0.3095 (  4442 PWs)   bands (ev):

   -34.4534  -1.1184   2.7967   5.1106   5.7263   9.0109   9.4311  10.9046
    11.3573  12.2702  13.3803  14.9129  15.0476  16.1180

          k = 0.1548 0.1548 0.4643 (  4403 PWs)   bands (ev):

   -34.4521  -0.2325   1.2148   5.9461   6.5107   7.7307   7.8346  11.7151
    11.9821  12.5366  13.5206  13.9549  14.6074  16.9893

          k = 0.1548 0.3095 0.3095 (  4420 PWs)   bands (ev):

   -34.4519  -0.5615   2.9992   3.7728   5.9155   7.4978   9.6579  10.0345
    11.9358  13.6750  14.0476  14.1885  15.2395  15.9779

          k = 0.1548 0.3095 0.4643 (  4418 PWs)   bands (ev):

   -34.4506   0.3361   1.7065   4.3651   5.5112   7.1698   8.3193  10.6970
    12.1989  12.9050  13.7396  15.0682  16.0624  16.4825

          k = 0.1548 0.4643 0.4643 (  4435 PWs)   bands (ev):

   -34.4494   1.2482   2.2037   3.1197   4.0406   7.9347   9.1531   9.2763
    10.6498  13.6808  14.6396  14.7828  16.0123  17.9551

          k = 0.3095 0.3095 0.3095 (  4416 PWs)   bands (ev):

   -34.4503  -0.0033   3.5670   3.5670   4.7306   7.9365   7.9365   8.1841
    11.8634  14.5679  14.5679  15.0983  17.0239  17.0239

          k = 0.3095 0.3095 0.4643 (  4425 PWs)   bands (ev):

   -34.4491   0.9015   2.2191   4.4102   5.1033   6.3211   6.8434   8.9198
    10.2783  15.2790  15.6982  16.4654  17.1121  18.2005

          k = 0.3095 0.4643 0.4643 (  4445 PWs)   bands (ev):

   -34.4479   1.8101   2.7731   3.5153   4.3440   6.2819   7.1675   7.6359
     8.6550  16.3376  17.2367  17.5564  18.5010  18.7952

          k = 0.4643 0.4643 0.4643 (  4446 PWs)   bands (ev):

   -34.4466   2.6991   3.6167   3.6167   4.5131   5.5476   5.5476   6.5574
     7.2623  18.8685  18.8685  19.2105  20.1717  20.1717

     the Fermi energy is    12.7475 ev

!    total energy              =     -47.66786032 Ry
     estimated scf accuracy    <          9.7E-11 Ry
     smearing contrib. (-TS)   =      -0.00002756 Ry
     internal energy E=F+TS    =     -47.66783276 Ry

     The total energy is F=E-TS. E is the sum of the following terms:
     one-electron contribution =      12.68824252 Ry
     hartree contribution      =       4.52648977 Ry
     xc contribution           =     -16.64021610 Ry
     ewald contribution        =     -48.24234895 Ry

     convergence has been achieved in   8 iterations

     Forces acting on atoms (cartesian axes, Ry/au):

     atom    1 type  1   force =     0.00000000    0.00000000    0.00000000
     atom    2 type  1   force =     0.00000000    0.00000000    0.00000000
     atom    3 type  1   force =     0.00000000    0.00000000    0.00000000
     atom    4 type  1   force =     0.00000000    0.00000000    0.00000000
     atom    5 type  2   force =     0.00000000    0.00000000    0.00000000
     The non-local contrib.  to forces
     atom    1 type  1   force =     0.00000000    0.00000000    0.00000000
     atom    2 type  1   force =     0.00000000    0.00000000    0.00000000
     atom    3 type  1   force =     0.00000000    0.00000000    0.00000000
     atom    4 type  1   force =     0.00000000    0.00000000    0.00000000
     atom    5 type  2   force =     0.00000000    0.00000000    0.00000000
     The ionic contribution  to forces
     atom    1 type  1   force =    -0.00000000   -0.00000000    0.00000000
     atom    2 type  1   force =    -0.00000000   -0.00000000    0.00000000
     atom    3 type  1   force =     0.00000000   -0.00000000   -0.00000000
     atom    4 type  1   force =    -0.00000000   -0.00000000   -0.00000000
     atom    5 type  2   force =     0.00000000    0.00000000    0.00000000
     The local contribution  to forces
     atom    1 type  1   force =    -0.00000000    0.00000000    0.00000000
     atom    2 type  1   force =     0.00000000   -0.00000000    0.00000000
     atom    3 type  1   force =     0.00000000    0.00000000   -0.00000000
     atom    4 type  1   force =     0.00000000    0.00000000    0.00000000
     atom    5 type  2   force =     0.00000000    0.00000000    0.00000000
     The core correction contribution to forces
     atom    1 type  1   force =    -0.00000000   -0.00000000   -0.00000000
     atom    2 type  1   force =    -0.00000000   -0.00000000   -0.00000000
     atom    3 type  1   force =    -0.00000000   -0.00000000    0.00000000
     atom    4 type  1   force =     0.00000000   -0.00000000    0.00000000
     atom    5 type  2   force =     0.00000000    0.00000000    0.00000000
     The Hubbard contrib.    to forces
     atom    1 type  1   force =     0.00000000    0.00000000    0.00000000
     atom    2 type  1   force =     0.00000000    0.00000000    0.00000000
     atom    3 type  1   force =     0.00000000    0.00000000    0.00000000
     atom    4 type  1   force =     0.00000000    0.00000000    0.00000000
     atom    5 type  2   force =     0.00000000    0.00000000    0.00000000
     The SCF correction term to forces
     atom    1 type  1   force =    -0.00000000    0.00000000    0.00000000
     atom    2 type  1   force =     0.00000000    0.00000000    0.00000000
     atom    3 type  1   force =     0.00000000    0.00000000   -0.00000000
     atom    4 type  1   force =    -0.00000000    0.00000000   -0.00000000
     atom    5 type  2   force =    -0.00000000    0.00000000    0.00000000

     Total force =     0.000000     Total SCF correction =     0.000000


     Computing stress (Cartesian axis) and pressure

          total   stress  (Ry/bohr**3)                   (kbar)     P=      499.92
   0.00339836   0.00000000   0.00000000          499.92        0.00        0.00
   0.00000000   0.00339836   0.00000000            0.00      499.92        0.00
   0.00000000   0.00000000   0.00339836            0.00        0.00      499.92


     Writing all to output data dir ./output/SiLi.save/

     init_run     :      0.95s CPU      1.26s WALL (       2 calls)
     electrons    :     25.99s CPU     30.05s WALL (       6 calls)
     update_pot   :      1.88s CPU      1.99s WALL (       4 calls)
     forces       :      1.64s CPU      1.74s WALL (       6 calls)
     stress       :      5.75s CPU      6.16s WALL (       6 calls)

     Called by init_run:
     wfcinit      :      0.27s CPU      0.29s WALL (       2 calls)
     potinit      :      0.37s CPU      0.54s WALL (       2 calls)
     hinit0       :      0.26s CPU      0.32s WALL (       2 calls)

     Called by electrons:
     c_bands      :     22.27s CPU     24.83s WALL (      66 calls)
     sum_band     :      2.88s CPU      3.25s WALL (      66 calls)
     v_of_rho     :      0.82s CPU      1.90s WALL (      71 calls)
     mix_rho      :      0.07s CPU      0.16s WALL (      66 calls)

     Called by c_bands:
     init_us_2    :      0.59s CPU      0.66s WALL (    2920 calls)
     init_us_2:cp :      0.59s CPU      0.66s WALL (    2920 calls)
     cegterg      :     20.28s CPU     21.22s WALL (    1320 calls)

     Called by *egterg:
     cdiaghg      :      1.14s CPU      1.20s WALL (    5533 calls)
     h_psi        :     17.25s CPU     18.04s WALL (    5673 calls)
     g_psi        :      0.09s CPU      0.09s WALL (    4313 calls)

     Called by h_psi:
     h_psi:calbec :      1.41s CPU      1.47s WALL (    5673 calls)
     vloc_psi     :     14.58s CPU     15.23s WALL (    5673 calls)
     add_vuspsi   :      1.21s CPU      1.25s WALL (    5673 calls)

     General routines
     calbec       :      1.63s CPU      1.70s WALL (    6273 calls)
     fft          :      0.83s CPU      2.16s WALL (     859 calls)
     ffts         :      0.04s CPU      0.11s WALL (      66 calls)
     fftw         :     15.19s CPU     15.86s WALL (  129956 calls)

     Parallel routines

     PWSCF        :     36.45s CPU     41.76s WALL


   This run was terminated on:  20:30:21  29Dec2024            

=------------------------------------------------------------------------------=
   JOB DONE.
=------------------------------------------------------------------------------=
