
     Program PWSCF v.7.2 starts on 29Dec2024 at 20:17:37 

     This program is part of the open-source Quantum ESPRESSO suite
     for quantum simulation of materials; please cite
         "P. Giannozzi et al., J. Phys.:Condens. Matter 21 395502 (2009);
         "P. Giannozzi et al., J. Phys.:Condens. Matter 29 465901 (2017);
         "P. Giannozzi et al., J. Chem. Phys. 152 154105 (2020);
          URL http://www.quantum-espresso.org", 
     in publications or presentations arising from this work. More details at
     http://www.quantum-espresso.org/quote

     Parallel version (MPI & OpenMP), running on       8 processor cores
     Number of MPI processes:                 8
     Threads/MPI process:                     1

     MPI processes distributed on     1 nodes
     482429 MiB available memory on the printing compute node when the environment starts

     Waiting for input...
     Reading input from standard input

     Current dimensions of program PWSCF are:
     Max number of different atomic species (ntypx) = 10
     Max number of k-points (npk) =  40000
     Max angular momentum in pseudopotentials (lmaxx) =  4

     R & G space division:  proc/nbgrp/npool/nimage =       8
     Subspace diagonalization in iterative solution of the eigenvalue problem:
     a serial algorithm will be used


     Parallelization info
     --------------------
     sticks:   dense  smooth     PW     G-vecs:    dense   smooth      PW
     Min         135     135     40                 3315     3315     546
     Max         136     136     41                 3318     3318     549
     Sum        1085    1085    325                26529    26529    4385

     Using Slab Decomposition



     bravais-lattice index     =            1
     lattice parameter (alat)  =       6.4910  a.u.
     unit-cell volume          =     273.4843 (a.u.)^3
     number of atoms/cell      =            5
     number of atomic types    =            2
     number of electrons       =        19.00
     number of Kohn-Sham states=           14
     kinetic-energy cutoff     =      80.0000  Ry
     charge density cutoff     =     320.0000  Ry
     scf convergence threshold =      1.0E-08
     mixing beta               =       0.7000
     number of iterations used =            8  plain     mixing
     energy convergence thresh.=      1.0E-04
     force convergence thresh. =      1.0E-03
     press convergence thresh. =      1.0E+00
     Exchange-correlation= PBE
                           (   1   4   3   4   0   0   0)
     nstep                     =           50


     celldm(1)=   6.490988  celldm(2)=   0.000000  celldm(3)=   0.000000
     celldm(4)=   0.000000  celldm(5)=   0.000000  celldm(6)=   0.000000

     crystal axes: (cart. coord. in units of alat)
               a(1) = (   1.000000   0.000000   0.000000 )  
               a(2) = (   0.000000   1.000000   0.000000 )  
               a(3) = (   0.000000   0.000000   1.000000 )  

     reciprocal axes: (cart. coord. in units 2 pi/alat)
               b(1) = (  1.000000  0.000000  0.000000 )  
               b(2) = (  0.000000  1.000000  0.000000 )  
               b(3) = (  0.000000  0.000000  1.000000 )  


     PseudoPot. # 1 for Si read from file:
     ../pseudo/Si_ONCV_PBE_sr.upf
     MD5 check sum: e543d271109d17c80368dfa7c482276d
     Pseudo is Norm-conserving + core correction, Zval =  4.0
     Generated using ONCVPSP code by D. R. Hamann
     Using radial grid of 1510 points,  6 beta functions with: 
                l(1) =   0
                l(2) =   0
                l(3) =   1
                l(4) =   1
                l(5) =   2
                l(6) =   2

     PseudoPot. # 2 for Li read from file:
     ../pseudo/Li_ONCV_PBE_sr.upf
     MD5 check sum: 50ff420e78310ffa21704f3361e624a4
     Pseudo is Norm-conserving, Zval =  3.0
     Generated using ONCVPSP code by D. R. Hamann
     Using radial grid of 1944 points,  4 beta functions with: 
                l(1) =   0
                l(2) =   0
                l(3) =   1
                l(4) =   1

     atomic species   valence    mass     pseudopotential
        Si             4.00    28.08550     Si( 1.00)
        Li             3.00     6.94100     Li( 1.00)

     48 Sym. Ops., with inversion, found



   Cartesian axes

     site n.     atom                  positions (alat units)
         1           Si  tau(   1) = (   0.0000000   0.0000000   0.5000000  )
         2           Si  tau(   2) = (   0.5000000   0.0000000   0.0000000  )
         3           Si  tau(   3) = (   0.0000000   0.5000000   0.0000000  )
         4           Si  tau(   4) = (   0.5000000   0.5000000   0.5000000  )
         5           Li  tau(   5) = (   0.0000000   0.0000000   0.0000000  )

     number of k points=    20  Marzari-Vanderbilt smearing, width (Ry)=  0.0200
                       cart. coord. in units 2pi/alat
        k(    1) = (   0.0000000   0.0000000   0.0000000), wk =   0.0092593
        k(    2) = (   0.0000000   0.0000000   0.1666667), wk =   0.0555556
        k(    3) = (   0.0000000   0.0000000   0.3333333), wk =   0.0555556
        k(    4) = (   0.0000000   0.0000000  -0.5000000), wk =   0.0277778
        k(    5) = (   0.0000000   0.1666667   0.1666667), wk =   0.1111111
        k(    6) = (   0.0000000   0.1666667   0.3333333), wk =   0.2222222
        k(    7) = (   0.0000000   0.1666667  -0.5000000), wk =   0.1111111
        k(    8) = (   0.0000000   0.3333333   0.3333333), wk =   0.1111111
        k(    9) = (   0.0000000   0.3333333  -0.5000000), wk =   0.1111111
        k(   10) = (   0.0000000  -0.5000000  -0.5000000), wk =   0.0277778
        k(   11) = (   0.1666667   0.1666667   0.1666667), wk =   0.0740741
        k(   12) = (   0.1666667   0.1666667   0.3333333), wk =   0.2222222
        k(   13) = (   0.1666667   0.1666667  -0.5000000), wk =   0.1111111
        k(   14) = (   0.1666667   0.3333333   0.3333333), wk =   0.2222222
        k(   15) = (   0.1666667   0.3333333  -0.5000000), wk =   0.2222222
        k(   16) = (   0.1666667  -0.5000000  -0.5000000), wk =   0.0555556
        k(   17) = (   0.3333333   0.3333333   0.3333333), wk =   0.0740741
        k(   18) = (   0.3333333   0.3333333  -0.5000000), wk =   0.1111111
        k(   19) = (   0.3333333  -0.5000000  -0.5000000), wk =   0.0555556
        k(   20) = (  -0.5000000  -0.5000000  -0.5000000), wk =   0.0092593

     Dense  grid:    26529 G-vectors     FFT dimensions: (  40,  40,  40)

     Estimated max dynamical RAM per process >      16.28 MB

     Estimated total dynamical RAM >     130.26 MB

     Initial potential from superposition of free atoms

     starting charge      18.9930, renormalised to      19.0000
     Starting wfcs are   18 randomized atomic wfcs

     total cpu time spent up to now is        1.2 secs

     Self-consistent Calculation

     iteration #  1     ecut=    80.00 Ry     beta= 0.70
     Davidson diagonalization with overlap
     ethr =  1.00E-02,  avg # of iterations =  4.0

     total cpu time spent up to now is        1.6 secs

     total energy              =     -46.98335929 Ry
     estimated scf accuracy    <       0.26721332 Ry

     iteration #  2     ecut=    80.00 Ry     beta= 0.70
     Davidson diagonalization with overlap
     ethr =  1.41E-03,  avg # of iterations =  2.8

     total cpu time spent up to now is        1.9 secs

     total energy              =     -47.06718456 Ry
     estimated scf accuracy    <       0.09844559 Ry

     iteration #  3     ecut=    80.00 Ry     beta= 0.70
     Davidson diagonalization with overlap
     ethr =  5.18E-04,  avg # of iterations =  2.5

     total cpu time spent up to now is        2.3 secs

     total energy              =     -47.08798745 Ry
     estimated scf accuracy    <       0.00071044 Ry

     iteration #  4     ecut=    80.00 Ry     beta= 0.70
     Davidson diagonalization with overlap
     ethr =  3.74E-06,  avg # of iterations =  7.3

     total cpu time spent up to now is        2.9 secs

     total energy              =     -47.08836561 Ry
     estimated scf accuracy    <       0.00018987 Ry

     iteration #  5     ecut=    80.00 Ry     beta= 0.70
     Davidson diagonalization with overlap
     ethr =  9.99E-07,  avg # of iterations =  2.4

     total cpu time spent up to now is        3.2 secs

     total energy              =     -47.08840345 Ry
     estimated scf accuracy    <       0.00000075 Ry

     iteration #  6     ecut=    80.00 Ry     beta= 0.70
     Davidson diagonalization with overlap
     ethr =  3.94E-09,  avg # of iterations =  5.0

     total cpu time spent up to now is        3.6 secs

     total energy              =     -47.08840445 Ry
     estimated scf accuracy    <       0.00000062 Ry

     iteration #  7     ecut=    80.00 Ry     beta= 0.70
     Davidson diagonalization with overlap
     ethr =  3.25E-09,  avg # of iterations =  3.6

     total cpu time spent up to now is        3.8 secs

     End of self-consistent calculation

          k = 0.0000 0.0000 0.0000 (  3287 PWs)   bands (ev):

   -31.5958  -0.0632   9.1669   9.1669   9.1669  12.2156  12.2156  15.3362
    19.9227  19.9227  19.9227  20.5118  20.5118  21.7901

          k = 0.0000 0.0000 0.1667 (  3303 PWs)   bands (ev):

   -31.5926   0.2246   7.2590   9.4638   9.4638  12.5373  14.0295  15.8239
    17.1173  17.1173  19.6636  20.0999  21.1181  21.1181

          k = 0.0000 0.0000 0.3333 (  3306 PWs)   bands (ev):

   -31.5862   1.0610   4.8352  10.3260  10.3260  13.4630  14.4047  14.4047
    14.9832  17.1180  17.6214  20.8247  21.9237  21.9237

          k = 0.0000 0.0000-0.5000 (  3362 PWs)   bands (ev):

   -31.5829   1.9831   3.3584  11.2519  11.2519  12.8556  12.8556  14.4462
    15.1813  16.0768  17.1520  22.7816  22.7816  23.0601

          k = 0.0000 0.1667 0.1667 (  3279 PWs)   bands (ev):

   -31.5894   0.5148   7.1532   8.0405   9.7601  13.5625  14.4929  15.2888
    17.0177  17.0476  17.9583  19.4399  20.5721  21.7400

          k = 0.0000 0.1667 0.3333 (  3306 PWs)   bands (ev):

   -31.5830   1.3604   5.0656   8.6141  10.6193  12.0886  14.4583  14.6954
    16.8772  17.4708  18.4700  19.5660  20.6549  21.6986

          k = 0.0000 0.1667-0.5000 (  3328 PWs)   bands (ev):

   -31.5798   2.3155   3.5783   9.9758  10.1661  11.5344  13.1682  15.1103
    16.8208  18.0549  18.1172  19.5056  20.7211  22.4234

          k = 0.0000 0.3333 0.3333 (  3289 PWs)   bands (ev):

   -31.5767   2.2367   5.3015   6.7796   9.6715  11.4629  15.2360  15.3159
    16.1004  17.4093  19.4610  19.6144  20.4951  21.3946

          k = 0.0000 0.3333-0.5000 (  3314 PWs)   bands (ev):

   -31.5735   3.3039   4.1736   7.3043   8.1035  12.3262  14.1043  16.0236
    16.8292  17.0049  17.8988  19.8084  20.0659  22.5435

          k = 0.0000-0.5000-0.5000 (  3276 PWs)   bands (ev):

   -31.5703   4.6610   4.6610   5.3130   7.1464  13.0481  15.4780  15.4780
    15.8952  17.0556  17.0556  18.2795  20.2619  25.4655

          k = 0.1667 0.1667 0.1667 (  3278 PWs)   bands (ev):

   -31.5862   0.8070   7.4716   7.4716   8.8845  14.5179  14.7126  14.7126
    16.2577  16.2577  17.8513  21.2544  21.2544  22.6375

          k = 0.1667 0.1667 0.3333 (  3302 PWs)   bands (ev):

   -31.5798   1.6607   5.3170   8.4175   9.4538  12.2423  12.5589  15.5766
    16.9114  17.8458  19.4189  19.8472  20.4784  21.8031

          k = 0.1667 0.1667-0.5000 (  3316 PWs)   bands (ev):

   -31.5767   2.6473   3.8103   9.6964  10.3726  10.6076  10.8919  16.4280
    17.9362  18.2039  18.6395  18.6855  19.6947  23.3866

          k = 0.1667 0.3333 0.3333 (  3305 PWs)   bands (ev):

   -31.5735   2.5411   5.6270   6.9135   9.5595  10.3427  13.2816  13.3142
    16.8454  18.4282  20.2665  20.8252  22.0702  22.1527

          k = 0.1667 0.3333-0.5000 (  3294 PWs)   bands (ev):

   -31.5704   3.6339   4.4456   7.6269   8.1541  11.3596  11.4408  14.3749
    15.2923  19.2524  19.8558  21.4399  22.4931  23.1909

          k = 0.1667-0.5000-0.5000 (  3304 PWs)   bands (ev):

   -31.5672   4.9882   4.9882   5.6398   7.1920  12.4897  12.7204  12.7204
    13.4019  20.3117  20.3117  21.3174  21.4338  25.7483

          k = 0.3333 0.3333 0.3333 (  3296 PWs)   bands (ev):

   -31.5673   3.4364   6.5972   6.5972   8.4293  10.4970  10.4970  11.7586
    14.3929  22.0154  22.0154  22.3125  23.9213  23.9213

          k = 0.3333 0.3333-0.5000 (  3312 PWs)   bands (ev):

   -31.5641   4.6153   5.2108   7.9737   8.4968   8.6847  10.0669  12.4479
    12.5087  22.9850  23.1919  23.3202  23.8136  25.4044

          k = 0.3333-0.5000-0.5000 (  3300 PWs)   bands (ev):

   -31.5610   5.9637   5.9637   6.6082   7.2940   9.8837   9.8837  10.5989
    11.6067  24.0188  24.3184  24.3184  25.6544  26.7465

          k =-0.5000-0.5000-0.5000 (  3328 PWs)   bands (ev):

   -31.5579   7.3521   7.3521   7.3521   7.8672   7.8672   7.8672   8.7149
    11.2307  26.0667  26.0667  26.0667  28.1922  28.1922

     the Fermi energy is    17.8356 ev

!    total energy              =     -47.08840461 Ry
     estimated scf accuracy    <          7.2E-09 Ry
     smearing contrib. (-TS)   =      -0.00088430 Ry
     internal energy E=F+TS    =     -47.08752031 Ry

     The total energy is F=E-TS. E is the sum of the following terms:
     one-electron contribution =      19.34035735 Ry
     hartree contribution      =       4.45477400 Ry
     xc contribution           =     -17.71347959 Ry
     ewald contribution        =     -53.16917207 Ry

     convergence has been achieved in   7 iterations

     Forces acting on atoms (cartesian axes, Ry/au):

     atom    1 type  1   force =     0.00000000    0.00000000    0.00000000
     atom    2 type  1   force =     0.00000000    0.00000000    0.00000000
     atom    3 type  1   force =     0.00000000    0.00000000    0.00000000
     atom    4 type  1   force =     0.00000000    0.00000000    0.00000000
     atom    5 type  2   force =     0.00000000    0.00000000    0.00000000
     The non-local contrib.  to forces
     atom    1 type  1   force =     0.00000000    0.00000000    0.00000000
     atom    2 type  1   force =     0.00000000    0.00000000    0.00000000
     atom    3 type  1   force =     0.00000000    0.00000000    0.00000000
     atom    4 type  1   force =     0.00000000    0.00000000    0.00000000
     atom    5 type  2   force =     0.00000000    0.00000000    0.00000000
     The ionic contribution  to forces
     atom    1 type  1   force =    -0.00000000   -0.00000000    0.00000000
     atom    2 type  1   force =     0.00000000   -0.00000000   -0.00000000
     atom    3 type  1   force =    -0.00000000    0.00000000   -0.00000000
     atom    4 type  1   force =     0.00000000    0.00000000    0.00000000
     atom    5 type  2   force =    -0.00000000   -0.00000000   -0.00000000
     The local contribution  to forces
     atom    1 type  1   force =    -0.00000000    0.00000000   -0.00000000
     atom    2 type  1   force =    -0.00000000   -0.00000000    0.00000000
     atom    3 type  1   force =    -0.00000000   -0.00000000   -0.00000000
     atom    4 type  1   force =    -0.00000000   -0.00000000   -0.00000000
     atom    5 type  2   force =    -0.00000000    0.00000000   -0.00000000
     The core correction contribution to forces
     atom    1 type  1   force =    -0.00000000   -0.00000000   -0.00000000
     atom    2 type  1   force =    -0.00000000   -0.00000000    0.00000000
     atom    3 type  1   force =    -0.00000000   -0.00000000    0.00000000
     atom    4 type  1   force =    -0.00000000   -0.00000000   -0.00000000
     atom    5 type  2   force =     0.00000000    0.00000000    0.00000000
     The Hubbard contrib.    to forces
     atom    1 type  1   force =     0.00000000    0.00000000    0.00000000
     atom    2 type  1   force =     0.00000000    0.00000000    0.00000000
     atom    3 type  1   force =     0.00000000    0.00000000    0.00000000
     atom    4 type  1   force =     0.00000000    0.00000000    0.00000000
     atom    5 type  2   force =     0.00000000    0.00000000    0.00000000
     The SCF correction term to forces
     atom    1 type  1   force =     0.00000000    0.00000000   -0.00000000
     atom    2 type  1   force =    -0.00000000   -0.00000000   -0.00000000
     atom    3 type  1   force =    -0.00000000    0.00000000   -0.00000000
     atom    4 type  1   force =    -0.00000000   -0.00000000    0.00000000
     atom    5 type  2   force =     0.00000000    0.00000000    0.00000000

     Total force =     0.000000     Total SCF correction =     0.000000


     Computing stress (Cartesian axis) and pressure

          total   stress  (Ry/bohr**3)                   (kbar)     P=     1535.51
   0.01043816   0.00000000   0.00000000         1535.51        0.00        0.00
   0.00000000   0.01043816   0.00000000            0.00     1535.51        0.00
   0.00000000   0.00000000   0.01043816            0.00        0.00     1535.51


     BFGS Geometry Optimization
     Energy error            =      0.0E+00 Ry
     Gradient error          =      0.0E+00 Ry/Bohr
     Cell gradient error     =      1.0E+03 kbar

     number of scf cycles    =   1
     number of bfgs steps    =   0

     enthalpy           new  =     -46.1588504709 Ry

     new trust radius        =       0.5000000000 bohr
ibrav =      1
 celldm(1) =      7.47224883
Input lattice vectors:
     1.15117286     0.00000000     0.00000000
     0.00000000     1.15117286     0.00000000
     0.00000000     0.00000000     1.15117286
New lattice vectors in INITIAL alat:
     1.15117286     0.00000000     0.00000000
     0.00000000     1.15117286     0.00000000
     0.00000000     0.00000000     1.15117286
New lattice vectors in NEW alat (for information only):
     1.00000000     0.00000000     0.00000000
     0.00000000     1.00000000     0.00000000
     0.00000000     0.00000000     1.00000000
Discrepancy in bohr =     0.000000    0.000000    0.000000
     new conv_thr            =       0.0000000100 Ry

     new unit-cell volume =    417.20930 a.u.^3 (    61.82404 Ang^3 )
     density =      3.20384 g/cm^3

CELL_PARAMETERS (alat=  6.49098765)
   1.151172862   0.000000000   0.000000000
   0.000000000   1.151172862   0.000000000
   0.000000000   0.000000000   1.151172862

ATOMIC_POSITIONS (crystal)
Si            0.0000000000        0.0000000000        0.5000000000
Si            0.5000000000        0.0000000000        0.0000000000
Si            0.0000000000        0.5000000000        0.0000000000
Si            0.5000000000        0.5000000000        0.5000000000
Li            0.0000000000        0.0000000000        0.0000000000



     Writing config-only to output data dir ./output/SiLi.save/
     NEW-OLD atomic charge density approx. for the potential
     extrapolated charge   25.54292, renormalised to   19.00000

     total cpu time spent up to now is        5.1 secs

     Self-consistent Calculation

     iteration #  1     ecut=    80.00 Ry     beta= 0.70
     Davidson diagonalization with overlap
     ethr =  1.00E-06,  avg # of iterations = 13.2

     total cpu time spent up to now is        6.0 secs

     total energy              =     -47.18569366 Ry
     estimated scf accuracy    <       0.35956976 Ry

     iteration #  2     ecut=    80.00 Ry     beta= 0.70
     Davidson diagonalization with overlap
     ethr =  1.89E-03,  avg # of iterations =  4.2

     total cpu time spent up to now is        6.4 secs

     total energy              =     -47.77594504 Ry
     estimated scf accuracy    <       1.60058115 Ry

     iteration #  3     ecut=    80.00 Ry     beta= 0.70
     Davidson diagonalization with overlap
     ethr =  1.89E-03,  avg # of iterations =  2.0

     total cpu time spent up to now is        6.6 secs

     total energy              =     -47.80771888 Ry
     estimated scf accuracy    <       0.30310607 Ry

     iteration #  4     ecut=    80.00 Ry     beta= 0.70
     Davidson diagonalization with overlap
     ethr =  1.60E-03,  avg # of iterations =  1.4

     total cpu time spent up to now is        6.9 secs

     total energy              =     -47.77192352 Ry
     estimated scf accuracy    <       0.09446990 Ry

     iteration #  5     ecut=    80.00 Ry     beta= 0.70
     Davidson diagonalization with overlap
     ethr =  4.97E-04,  avg # of iterations =  2.5

     total cpu time spent up to now is        7.1 secs

     total energy              =     -47.79799850 Ry
     estimated scf accuracy    <       0.00153332 Ry

     iteration #  6     ecut=    80.00 Ry     beta= 0.70
     Davidson diagonalization with overlap
     ethr =  8.07E-06,  avg # of iterations =  5.7

     total cpu time spent up to now is        7.6 secs

     total energy              =     -47.79892881 Ry
     estimated scf accuracy    <       0.00213848 Ry

     iteration #  7     ecut=    80.00 Ry     beta= 0.70
     Davidson diagonalization with overlap
     ethr =  8.07E-06,  avg # of iterations =  1.0

     total cpu time spent up to now is        7.8 secs

     total energy              =     -47.79800070 Ry
     estimated scf accuracy    <       0.00125544 Ry

     iteration #  8     ecut=    80.00 Ry     beta= 0.70
     Davidson diagonalization with overlap
     ethr =  6.61E-06,  avg # of iterations =  2.4

     total cpu time spent up to now is        8.1 secs

     total energy              =     -47.79839187 Ry
     estimated scf accuracy    <       0.00134593 Ry

     iteration #  9     ecut=    80.00 Ry     beta= 0.70
     Davidson diagonalization with overlap
     ethr =  6.61E-06,  avg # of iterations =  1.9

     total cpu time spent up to now is        8.4 secs

     total energy              =     -47.79859567 Ry
     estimated scf accuracy    <       0.00001485 Ry

     iteration # 10     ecut=    80.00 Ry     beta= 0.70
     Davidson diagonalization with overlap
     ethr =  7.82E-08,  avg # of iterations =  3.5

     total cpu time spent up to now is        8.8 secs

     total energy              =     -47.79860206 Ry
     estimated scf accuracy    <       0.00000106 Ry

     iteration # 11     ecut=    80.00 Ry     beta= 0.70
     Davidson diagonalization with overlap
     ethr =  5.60E-09,  avg # of iterations =  2.8

     total cpu time spent up to now is        9.0 secs

     total energy              =     -47.79860226 Ry
     estimated scf accuracy    <       0.00000024 Ry

     iteration # 12     ecut=    80.00 Ry     beta= 0.70
     Davidson diagonalization with overlap
     ethr =  1.24E-09,  avg # of iterations =  1.8

     total cpu time spent up to now is        9.3 secs

     total energy              =     -47.79860208 Ry
     estimated scf accuracy    <       0.00000024 Ry

     iteration # 13     ecut=    80.00 Ry     beta= 0.70
     Davidson diagonalization with overlap
     ethr =  1.24E-09,  avg # of iterations =  3.0

     total cpu time spent up to now is        9.6 secs

     total energy              =     -47.79860236 Ry
     estimated scf accuracy    <       0.00000049 Ry

     iteration # 14     ecut=    80.00 Ry     beta= 0.70
     Davidson diagonalization with overlap
     ethr =  1.24E-09,  avg # of iterations =  1.0

     total cpu time spent up to now is        9.9 secs

     total energy              =     -47.79860202 Ry
     estimated scf accuracy    <       0.00000053 Ry

     iteration # 15     ecut=    80.00 Ry     beta= 0.70
     Davidson diagonalization with overlap
     ethr =  1.24E-09,  avg # of iterations =  2.6

     total cpu time spent up to now is       10.1 secs

     total energy              =     -47.79860221 Ry
     estimated scf accuracy    <       0.00000017 Ry

     iteration # 16     ecut=    80.00 Ry     beta= 0.70
     Davidson diagonalization with overlap
     ethr =  8.79E-10,  avg # of iterations =  1.0

     total cpu time spent up to now is       10.4 secs

     total energy              =     -47.79860221 Ry
     estimated scf accuracy    <       0.00000003 Ry

     iteration # 17     ecut=    80.00 Ry     beta= 0.70
     Davidson diagonalization with overlap
     ethr =  1.82E-10,  avg # of iterations =  1.9

     total cpu time spent up to now is       10.6 secs

     End of self-consistent calculation

          k = 0.0000 0.0000 0.0000 (  3287 PWs)   bands (ev):

   -35.7489  -3.0026   4.8535   4.8535   4.8535   5.9478   5.9478   6.9126
    12.3356  12.3356  12.3356  13.6030  14.7336  14.7338

          k = 0.0000 0.0000 0.1448 (  3303 PWs)   bands (ev):

   -35.7487  -2.7675   2.8636   5.0855   5.0855   6.1709   6.7334   8.5617
    10.9317  10.9317  11.8820  12.2104  13.2740  13.2740

          k = 0.0000 0.0000 0.2896 (  3306 PWs)   bands (ev):

   -35.7478  -2.0677   0.8014   5.7570   5.7570   6.7859   6.9339   8.9188
     8.9188  10.3520  10.5750  12.3482  13.8607  13.8607

          k = 0.0000 0.0000-0.4343 (  3362 PWs)   bands (ev):

   -35.7483  -1.1226  -0.6045   6.4708   6.4708   7.0361   7.3214   7.7375
     7.7375   9.3747  10.4285  14.5706  14.5706  15.5989

          k = 0.0000 0.1448 0.1448 (  3279 PWs)   bands (ev):

   -35.7478  -2.5322   2.8591   3.3603   5.3169   6.5630   8.3310   8.8561
     9.5958  10.8532  11.6829  11.7007  12.7210  13.6258

          k = 0.0000 0.1448 0.2896 (  3306 PWs)   bands (ev):

   -35.7474  -1.8319   1.0131   3.8205   5.9855   6.1544   8.0146   9.1238
     9.1418  10.8913  11.9745  12.0083  12.3013  13.7834

          k = 0.0000 0.1448-0.4343 (  3328 PWs)   bands (ev):

   -35.7473  -0.8718  -0.3987   4.7378   5.0605   6.6904   7.9796   8.3817
     8.7613  11.1173  11.3712  12.7785  13.7092  13.7247

          k = 0.0000 0.2896 0.2896 (  3289 PWs)   bands (ev):

   -35.7461  -1.1302   1.3685   2.1071   4.4357   6.6406   8.4495   9.5508
    10.2449  10.5609  10.7987  12.9129  13.0239  13.1395

          k = 0.0000 0.2896-0.4343 (  3314 PWs)   bands (ev):

   -35.7461  -0.1271   0.2010   2.9154   2.9322   7.3038   8.7036   9.1479
     9.6786  10.7869  11.6140  11.7259  12.0370  14.6340

          k = 0.0000-0.4343-0.4343 (  3276 PWs)   bands (ev):

   -35.7449   0.8652   0.8652   1.4444   1.8559   7.8579   9.7615   9.7615
    10.0838  10.1423  10.1423  10.6112  11.2326  16.7146

          k = 0.1448 0.1448 0.1448 (  3278 PWs)   bands (ev):

   -35.7473  -2.2970   3.0912   3.0912   3.8732   7.8871   8.9780   8.9780
     9.3126   9.3126  10.6376  13.3846  13.3846  14.2767

          k = 0.1448 0.1448 0.2896 (  3302 PWs)   bands (ev):

   -35.7468  -1.5964   1.2268   3.7517   4.2780   6.8164   7.1141   9.5334
     9.7114  10.5336  12.1220  12.5826  12.9373  13.4905

          k = 0.1448 0.1448-0.4343 (  3316 PWs)   bands (ev):

   -35.7466  -0.6219  -0.1920   4.3977   4.8963   5.8665   5.9934  10.2619
    10.2820  10.7644  11.3482  12.0400  12.4036  15.0523

          k = 0.1448 0.2896 0.2896 (  3305 PWs)   bands (ev):

   -35.7459  -0.8957   1.6016   2.2636   4.1735   5.5736   7.6020   7.7947
    10.4118  10.9858  12.5040  13.1881  13.3675  14.4242

          k = 0.1448 0.2896-0.4343 (  3294 PWs)   bands (ev):

   -35.7453   0.1193   0.4111   3.0078   3.1305   6.1317   6.3040   8.5897
     9.2056  11.7215  11.9520  13.7135  14.7709  14.9071

          k = 0.1448-0.4343-0.4343 (  3304 PWs)   bands (ev):

   -35.7450   1.0986   1.0986   1.6929   1.9621   6.9625   7.3178   7.3178
     7.6898  12.5883  12.9898  12.9898  13.3808  16.9473

          k = 0.2896 0.2896 0.2896 (  3296 PWs)   bands (ev):

   -35.7449  -0.1995   2.2631   2.2631   3.1614   5.6901   5.6901   6.0601
     8.5116  13.7651  13.7651  14.0976  15.5091  15.5091

          k = 0.2896 0.2896-0.4343 (  3312 PWs)   bands (ev):

   -35.7447   0.8457   1.0196   2.9018   3.4178   4.5672   5.0460   6.8172
     7.0388  14.2112  14.8276  15.0749  16.0269  16.5473

          k = 0.2896-0.4343-0.4343 (  3300 PWs)   bands (ev):

   -35.7440   1.7602   1.7602   2.2242   2.4284   5.2061   5.2061   5.5052
     5.7705  15.1459  16.2017  16.2017  16.5374  17.6567

          k =-0.4343-0.4343-0.4343 (  3328 PWs)   bands (ev):

   -35.7440   2.3964   2.3964   2.3964   3.3637   4.0838   4.0838   4.0838
     5.2585  17.4308  17.4308  18.5723  18.5723  18.5723

     the Fermi energy is    10.8191 ev

!    total energy              =     -47.79860221 Ry
     estimated scf accuracy    <          3.1E-09 Ry
     smearing contrib. (-TS)   =      -0.00043586 Ry
     internal energy E=F+TS    =     -47.79816635 Ry

     The total energy is F=E-TS. E is the sum of the following terms:
     one-electron contribution =      10.01936913 Ry
     hartree contribution      =       4.59701148 Ry
     xc contribution           =     -16.22758942 Ry
     ewald contribution        =     -46.18695754 Ry

     convergence has been achieved in  17 iterations

     Forces acting on atoms (cartesian axes, Ry/au):

     atom    1 type  1   force =     0.00000000    0.00000000    0.00000000
     atom    2 type  1   force =     0.00000000    0.00000000    0.00000000
     atom    3 type  1   force =     0.00000000    0.00000000    0.00000000
     atom    4 type  1   force =     0.00000000    0.00000000    0.00000000
     atom    5 type  2   force =     0.00000000    0.00000000    0.00000000
     The non-local contrib.  to forces
     atom    1 type  1   force =     0.00000000    0.00000000    0.00000000
     atom    2 type  1   force =     0.00000000    0.00000000    0.00000000
     atom    3 type  1   force =     0.00000000    0.00000000    0.00000000
     atom    4 type  1   force =     0.00000000    0.00000000    0.00000000
     atom    5 type  2   force =     0.00000000    0.00000000    0.00000000
     The ionic contribution  to forces
     atom    1 type  1   force =    -0.00000000   -0.00000000    0.00000000
     atom    2 type  1   force =     0.00000000   -0.00000000   -0.00000000
     atom    3 type  1   force =    -0.00000000    0.00000000   -0.00000000
     atom    4 type  1   force =     0.00000000    0.00000000    0.00000000
     atom    5 type  2   force =    -0.00000000   -0.00000000   -0.00000000
     The local contribution  to forces
     atom    1 type  1   force =    -0.00000000    0.00000000    0.00000000
     atom    2 type  1   force =     0.00000000   -0.00000000   -0.00000000
     atom    3 type  1   force =     0.00000000    0.00000000   -0.00000000
     atom    4 type  1   force =     0.00000000    0.00000000    0.00000000
     atom    5 type  2   force =    -0.00000000    0.00000000   -0.00000000
     The core correction contribution to forces
     atom    1 type  1   force =    -0.00000000   -0.00000000    0.00000000
     atom    2 type  1   force =     0.00000000    0.00000000   -0.00000000
     atom    3 type  1   force =     0.00000000    0.00000000   -0.00000000
     atom    4 type  1   force =    -0.00000000   -0.00000000   -0.00000000
     atom    5 type  2   force =     0.00000000    0.00000000    0.00000000
     The Hubbard contrib.    to forces
     atom    1 type  1   force =     0.00000000    0.00000000    0.00000000
     atom    2 type  1   force =     0.00000000    0.00000000    0.00000000
     atom    3 type  1   force =     0.00000000    0.00000000    0.00000000
     atom    4 type  1   force =     0.00000000    0.00000000    0.00000000
     atom    5 type  2   force =     0.00000000    0.00000000    0.00000000
     The SCF correction term to forces
     atom    1 type  1   force =     0.00000000    0.00000000   -0.00000000
     atom    2 type  1   force =     0.00000000   -0.00000000    0.00000000
     atom    3 type  1   force =     0.00000000   -0.00000000    0.00000000
     atom    4 type  1   force =     0.00000000   -0.00000000   -0.00000000
     atom    5 type  2   force =    -0.00000000   -0.00000000    0.00000000

     Total force =     0.000000     Total SCF correction =     0.000000


     Computing stress (Cartesian axis) and pressure

          total   stress  (Ry/bohr**3)                   (kbar)     P=      271.19
   0.00184353   0.00000000   0.00000000          271.19        0.00        0.00
   0.00000000   0.00184353   0.00000000            0.00      271.19        0.00
   0.00000000   0.00000000   0.00184353            0.00        0.00      271.19

     Energy error            =      2.2E-01 Ry
     Gradient error          =      0.0E+00 Ry/Bohr
     Cell gradient error     =      2.3E+02 kbar

     number of scf cycles    =   2
     number of bfgs steps    =   1

     enthalpy           old  =     -46.1588504709 Ry
     enthalpy           new  =     -46.3805366327 Ry

     CASE: enthalpy          _new < enthalpy          _old

     new trust radius        =       0.1215071166 bohr
ibrav =      1
 celldm(1) =      7.24999663
Input lattice vectors:
     1.11693274     0.00000000     0.00000000
     0.00000000     1.11693274     0.00000000
     0.00000000     0.00000000     1.11693274
New lattice vectors in INITIAL alat:
     1.11693274     0.00000000     0.00000000
     0.00000000     1.11693274     0.00000000
     0.00000000     0.00000000     1.11693274
New lattice vectors in NEW alat (for information only):
     1.00000000     0.00000000     0.00000000
     0.00000000     1.00000000     0.00000000
     0.00000000     0.00000000     1.00000000
Discrepancy in bohr =     0.000000    0.000000    0.000000
     new conv_thr            =            1.0E-10 Ry

     new unit-cell volume =    381.07759 a.u.^3 (    56.46987 Ang^3 )
     density =      3.50761 g/cm^3

CELL_PARAMETERS (alat=  6.49098765)
   1.116932742   0.000000000   0.000000000
   0.000000000   1.116932742   0.000000000
   0.000000000   0.000000000   1.116932742

ATOMIC_POSITIONS (crystal)
Si            0.0000000000        0.0000000000        0.5000000000
Si            0.5000000000        0.0000000000        0.0000000000
Si            0.0000000000        0.5000000000        0.0000000000
Si            0.5000000000        0.5000000000        0.5000000000
Li            0.0000000000        0.0000000000        0.0000000000



     Writing config-only to output data dir ./output/SiLi.save/
     NEW-OLD atomic charge density approx. for the potential
     extrapolated charge   17.19919, renormalised to   19.00000

     total cpu time spent up to now is       11.8 secs

     Self-consistent Calculation

     iteration #  1     ecut=    80.00 Ry     beta= 0.70
     Davidson diagonalization with overlap
     ethr =  1.00E-06,  avg # of iterations = 10.1

     total cpu time spent up to now is       12.5 secs

     total energy              =     -47.65412578 Ry
     estimated scf accuracy    <       0.03745776 Ry

     iteration #  2     ecut=    80.00 Ry     beta= 0.70
     Davidson diagonalization with overlap
     ethr =  1.97E-04,  avg # of iterations =  3.6

     total cpu time spent up to now is       12.8 secs

     total energy              =     -47.71111019 Ry
     estimated scf accuracy    <       0.14310860 Ry

     iteration #  3     ecut=    80.00 Ry     beta= 0.70
     Davidson diagonalization with overlap
     ethr =  1.97E-04,  avg # of iterations =  2.0

     total cpu time spent up to now is       13.1 secs

     total energy              =     -47.71650556 Ry
     estimated scf accuracy    <       0.02418220 Ry

     iteration #  4     ecut=    80.00 Ry     beta= 0.70
     Davidson diagonalization with overlap
     ethr =  1.27E-04,  avg # of iterations =  1.1

     total cpu time spent up to now is       13.3 secs

     total energy              =     -47.71269184 Ry
     estimated scf accuracy    <       0.01031027 Ry

     iteration #  5     ecut=    80.00 Ry     beta= 0.70
     Davidson diagonalization with overlap
     ethr =  5.43E-05,  avg # of iterations =  2.0

     total cpu time spent up to now is       13.6 secs

     total energy              =     -47.71429258 Ry
     estimated scf accuracy    <       0.00030829 Ry

     iteration #  6     ecut=    80.00 Ry     beta= 0.70
     Davidson diagonalization with overlap
     ethr =  1.62E-06,  avg # of iterations =  5.2

     total cpu time spent up to now is       14.0 secs

     total energy              =     -47.71445350 Ry
     estimated scf accuracy    <       0.00001125 Ry

     iteration #  7     ecut=    80.00 Ry     beta= 0.70
     Davidson diagonalization with overlap
     ethr =  5.92E-08,  avg # of iterations =  2.8

     total cpu time spent up to now is       14.3 secs

     total energy              =     -47.71444319 Ry
     estimated scf accuracy    <       0.00005146 Ry

     iteration #  8     ecut=    80.00 Ry     beta= 0.70
     Davidson diagonalization with overlap
     ethr =  5.92E-08,  avg # of iterations =  2.0

     total cpu time spent up to now is       14.6 secs

     total energy              =     -47.71444009 Ry
     estimated scf accuracy    <       0.00001620 Ry

     iteration #  9     ecut=    80.00 Ry     beta= 0.70
     Davidson diagonalization with overlap
     ethr =  5.92E-08,  avg # of iterations =  1.9

     total cpu time spent up to now is       14.8 secs

     total energy              =     -47.71444104 Ry
     estimated scf accuracy    <       0.00000167 Ry

     iteration # 10     ecut=    80.00 Ry     beta= 0.70
     Davidson diagonalization with overlap
     ethr =  8.81E-09,  avg # of iterations =  2.4

     total cpu time spent up to now is       15.1 secs

     total energy              =     -47.71444126 Ry
     estimated scf accuracy    <       0.00000008 Ry

     iteration # 11     ecut=    80.00 Ry     beta= 0.70
     Davidson diagonalization with overlap
     ethr =  4.03E-10,  avg # of iterations =  4.3

     total cpu time spent up to now is       15.4 secs

     total energy              =     -47.71444116 Ry
     estimated scf accuracy    <       0.00000067 Ry

     iteration # 12     ecut=    80.00 Ry     beta= 0.70
     Davidson diagonalization with overlap
     ethr =  4.03E-10,  avg # of iterations =  3.5

     total cpu time spent up to now is       15.7 secs

     total energy              =     -47.71444133 Ry
     estimated scf accuracy    <       0.00000002 Ry

     iteration # 13     ecut=    80.00 Ry     beta= 0.70
     Davidson diagonalization with overlap
     ethr =  9.28E-11,  avg # of iterations =  1.1

     total cpu time spent up to now is       16.0 secs

     total energy              =     -47.71444133 Ry
     estimated scf accuracy    <          4.3E-09 Ry

     iteration # 14     ecut=    80.00 Ry     beta= 0.70
     Davidson diagonalization with overlap
     ethr =  2.27E-11,  avg # of iterations =  2.2

     total cpu time spent up to now is       16.3 secs

     total energy              =     -47.71444133 Ry
     estimated scf accuracy    <          6.4E-10 Ry

     iteration # 15     ecut=    80.00 Ry     beta= 0.70
     Davidson diagonalization with overlap
     ethr =  3.37E-12,  avg # of iterations =  1.3

     total cpu time spent up to now is       16.5 secs

     total energy              =     -47.71444133 Ry
     estimated scf accuracy    <          2.4E-10 Ry

     iteration # 16     ecut=    80.00 Ry     beta= 0.70
     Davidson diagonalization with overlap
     ethr =  1.27E-12,  avg # of iterations =  2.0

     total cpu time spent up to now is       16.8 secs

     End of self-consistent calculation

          k = 0.0000 0.0000 0.0000 (  3287 PWs)   bands (ev):

   -34.8317  -2.4785   5.6446   5.6446   5.6446   7.2063   7.2063   8.4665
    13.7518  13.7518  13.7518  15.1314  15.1314  15.8352

          k = 0.0000 0.0000 0.1492 (  3303 PWs)   bands (ev):

   -34.8311  -2.2314   3.6989   5.8904   5.8904   7.4606   8.1973   9.8804
    12.1164  12.1164  13.3060  13.6299  14.7462  14.7462

          k = 0.0000 0.0000 0.2984 (  3306 PWs)   bands (ev):

   -34.8295  -1.4985   1.5493   6.6030   6.6030   8.1922   8.4551   9.9502
     9.9502  11.5747  11.8144  13.9689  15.3781  15.3781

          k = 0.0000 0.0000-0.4477 (  3362 PWs)   bands (ev):

   -34.8292  -0.5514   0.1195   7.3655   7.3655   8.5759   8.6869   8.6869
     8.9590  10.3378  11.6735  16.1287  16.1287  17.2294

          k = 0.0000 0.1492 0.1492 (  3279 PWs)   bands (ev):

   -34.8301  -1.9838   3.6809   4.2486   6.1356   7.9832   9.5238  10.1489
    10.8926  12.0361  12.8913  13.0913  14.1618  15.1366

          k = 0.0000 0.1492 0.2984 (  3306 PWs)   bands (ev):

   -34.8288  -1.2492   1.7696   4.7396   6.8452   7.4014   9.1531  10.1870
    10.6181  12.0727  13.2503  13.6178  13.6388  15.2564

          k = 0.0000 0.1492-0.4477 (  3328 PWs)   bands (ev):

   -34.8282  -0.2838   0.3323   5.7563   6.0791   7.5984   8.9436   9.6522
    10.2645  12.3855  12.5780  14.0765  15.0701  15.3773

          k = 0.0000 0.2984 0.2984 (  3289 PWs)   bands (ev):

   -34.8272  -0.5091   2.1155   2.9790   5.4501   7.5408   9.7286  10.6225
    11.3536  11.9205  12.4115  14.1930  14.5424  14.5747

          k = 0.0000 0.2984-0.4477 (  3314 PWs)   bands (ev):

   -34.8266   0.5116   0.9459   3.7577   3.8930   8.2501   9.7114  10.4555
    11.1022  11.9362  12.8043  13.2616  13.5412  16.1172

          k = 0.0000-0.4477-0.4477 (  3276 PWs)   bands (ev):

   -34.8256   1.5843   1.5843   2.1690   2.8230   8.8423  10.8393  10.8393
    11.1704  11.4691  11.4691  12.0684  12.9113  18.4002

          k = 0.1492 0.1492 0.1492 (  3278 PWs)   bands (ev):

   -34.8294  -1.7359   3.9331   3.9331   4.8208   9.1710  10.3255  10.3255
    10.3931  10.3931  11.9285  14.8632  14.8632  15.8459

          k = 0.1492 0.1492 0.2984 (  3302 PWs)   bands (ev):

   -34.8281  -0.9998   1.9946   4.6628   5.2671   7.9060   8.0867  10.6940
    11.0886  11.8963  13.5391  13.9567  14.3051  15.0368

          k = 0.1492 0.1492-0.4477 (  3316 PWs)   bands (ev):

   -34.8274  -0.0169   0.5475   5.4393   6.0111   6.7857   6.8017  11.4588
    11.7962  12.1719  12.6540  13.2186  13.7948  16.6410

          k = 0.1492 0.2984 0.2984 (  3305 PWs)   bands (ev):

   -34.8266  -0.2597   2.3696   3.1401   5.2209   6.4363   8.6771   8.8400
    11.6486  12.3977  14.0529  14.6938  14.8586  15.8933

          k = 0.1492 0.2984-0.4477 (  3294 PWs)   bands (ev):

   -34.8258   0.7758   1.1698   3.9766   4.0032   7.1022   7.2501   9.6931
    10.3621  13.2797  13.3502  15.1482  16.3127  16.3546

          k = 0.1492-0.4477-0.4477 (  3304 PWs)   bands (ev):

   -34.8251   1.8389   1.8389   2.4357   2.9267   8.0068   8.3328   8.3328
     8.7612  14.2379  14.4038  14.4038  14.8893  18.6514

          k = 0.2984 0.2984 0.2984 (  3296 PWs)   bands (ev):

   -34.8251   0.4799   3.1036   3.1036   4.1419   6.5735   6.5735   7.1126
     9.6252  15.3766  15.3766  15.6633  17.1257  17.1257

          k = 0.2984 0.2984-0.4477 (  3312 PWs)   bands (ev):

   -34.8244   1.5580   1.8167   3.8785   4.4240   5.2843   5.9494   7.8619
     8.0589  15.9216  16.4688  16.6165  17.5590  18.2548

          k = 0.2984-0.4477-0.4477 (  3300 PWs)   bands (ev):

   -34.8236   2.5736   2.5736   3.1809   3.2315   6.0597   6.0597   6.4305
     6.8345  16.8647  17.8248  17.8248  18.3073  19.4433

          k =-0.4477-0.4477-0.4477 (  3328 PWs)   bands (ev):

   -34.8230   3.3462   3.3462   3.3462   4.3750   4.7711   4.7711   4.7711
     6.3266  19.4374  19.4374  20.0163  20.0163  20.0163

     the Fermi energy is    12.1076 ev

!    total energy              =     -47.71444133 Ry
     estimated scf accuracy    <          1.7E-12 Ry
     smearing contrib. (-TS)   =      -0.00064237 Ry
     internal energy E=F+TS    =     -47.71379896 Ry

     The total energy is F=E-TS. E is the sum of the following terms:
     one-electron contribution =      11.84835877 Ry
     hartree contribution      =       4.55075387 Ry
     xc contribution           =     -16.51007029 Ry
     ewald contribution        =     -47.60284131 Ry

     convergence has been achieved in  16 iterations

     Forces acting on atoms (cartesian axes, Ry/au):

     atom    1 type  1   force =     0.00000000    0.00000000    0.00000000
     atom    2 type  1   force =     0.00000000    0.00000000    0.00000000
     atom    3 type  1   force =     0.00000000    0.00000000    0.00000000
     atom    4 type  1   force =     0.00000000    0.00000000    0.00000000
     atom    5 type  2   force =     0.00000000    0.00000000    0.00000000
     The non-local contrib.  to forces
     atom    1 type  1   force =     0.00000000    0.00000000    0.00000000
     atom    2 type  1   force =     0.00000000    0.00000000    0.00000000
     atom    3 type  1   force =     0.00000000    0.00000000    0.00000000
     atom    4 type  1   force =     0.00000000    0.00000000    0.00000000
     atom    5 type  2   force =     0.00000000    0.00000000    0.00000000
     The ionic contribution  to forces
     atom    1 type  1   force =    -0.00000000   -0.00000000    0.00000000
     atom    2 type  1   force =     0.00000000   -0.00000000   -0.00000000
     atom    3 type  1   force =    -0.00000000    0.00000000   -0.00000000
     atom    4 type  1   force =     0.00000000    0.00000000    0.00000000
     atom    5 type  2   force =    -0.00000000   -0.00000000   -0.00000000
     The local contribution  to forces
     atom    1 type  1   force =    -0.00000000    0.00000000    0.00000000
     atom    2 type  1   force =     0.00000000    0.00000000   -0.00000000
     atom    3 type  1   force =     0.00000000    0.00000000   -0.00000000
     atom    4 type  1   force =     0.00000000    0.00000000   -0.00000000
     atom    5 type  2   force =     0.00000000    0.00000000   -0.00000000
     The core correction contribution to forces
     atom    1 type  1   force =    -0.00000000    0.00000000    0.00000000
     atom    2 type  1   force =     0.00000000   -0.00000000    0.00000000
     atom    3 type  1   force =     0.00000000    0.00000000    0.00000000
     atom    4 type  1   force =    -0.00000000   -0.00000000   -0.00000000
     atom    5 type  2   force =     0.00000000    0.00000000    0.00000000
     The Hubbard contrib.    to forces
     atom    1 type  1   force =     0.00000000    0.00000000    0.00000000
     atom    2 type  1   force =     0.00000000    0.00000000    0.00000000
     atom    3 type  1   force =     0.00000000    0.00000000    0.00000000
     atom    4 type  1   force =     0.00000000    0.00000000    0.00000000
     atom    5 type  2   force =     0.00000000    0.00000000    0.00000000
     The SCF correction term to forces
     atom    1 type  1   force =    -0.00000000   -0.00000000   -0.00000000
     atom    2 type  1   force =    -0.00000000   -0.00000000   -0.00000000
     atom    3 type  1   force =     0.00000000    0.00000000   -0.00000000
     atom    4 type  1   force =     0.00000000   -0.00000000    0.00000000
     atom    5 type  2   force =    -0.00000000   -0.00000000    0.00000000

     Total force =     0.000000     Total SCF correction =     0.000000


     Computing stress (Cartesian axis) and pressure

          total   stress  (Ry/bohr**3)                   (kbar)     P=      424.14
   0.00288322   0.00000000   0.00000000          424.14        0.00        0.00
   0.00000000   0.00288322   0.00000000            0.00      424.14        0.00
   0.00000000   0.00000000   0.00288322            0.00        0.00      424.14

     Energy error            =      3.9E-02 Ry
     Gradient error          =      0.0E+00 Ry/Bohr
     Cell gradient error     =      7.6E+01 kbar

     number of scf cycles    =   3
     number of bfgs steps    =   2

     enthalpy           old  =     -46.3805366327 Ry
     enthalpy           new  =     -46.4191849092 Ry

     CASE: enthalpy          _new < enthalpy          _old

     new trust radius        =       0.0543086458 bohr
ibrav =      1
 celldm(1) =      7.14914799
Input lattice vectors:
     1.10139602     0.00000000     0.00000000
     0.00000000     1.10139602     0.00000000
     0.00000000     0.00000000     1.10139602
New lattice vectors in INITIAL alat:
     1.10139602     0.00000000     0.00000000
     0.00000000     1.10139602     0.00000000
     0.00000000     0.00000000     1.10139602
New lattice vectors in NEW alat (for information only):
     1.00000000     0.00000000     0.00000000
     0.00000000     1.00000000     0.00000000
     0.00000000     0.00000000     1.00000000
Discrepancy in bohr =     0.000000    0.000000    0.000000
     new conv_thr            =            1.0E-10 Ry

     new unit-cell volume =    365.39522 a.u.^3 (    54.14599 Ang^3 )
     density =      3.65815 g/cm^3

CELL_PARAMETERS (alat=  6.49098765)
   1.101396024   0.000000000   0.000000000
   0.000000000   1.101396024   0.000000000
   0.000000000   0.000000000   1.101396024

ATOMIC_POSITIONS (crystal)
Si            0.0000000000        0.0000000000        0.5000000000
Si            0.5000000000        0.0000000000        0.0000000000
Si            0.0000000000        0.5000000000        0.0000000000
Si            0.5000000000        0.5000000000        0.5000000000
Li            0.0000000000        0.0000000000        0.0000000000



     Writing config-only to output data dir ./output/SiLi.save/
     NEW-OLD atomic charge density approx. for the potential
     extrapolated charge   18.18484, renormalised to   19.00000

     total cpu time spent up to now is       17.9 secs

     Self-consistent Calculation

     iteration #  1     ecut=    80.00 Ry     beta= 0.70
     Davidson diagonalization with overlap
     ethr =  1.00E-06,  avg # of iterations =  8.0

     total cpu time spent up to now is       18.5 secs

     total energy              =     -47.65292929 Ry
     estimated scf accuracy    <       0.00713981 Ry

     iteration #  2     ecut=    80.00 Ry     beta= 0.70
     Davidson diagonalization with overlap
     ethr =  3.76E-05,  avg # of iterations =  3.4

     total cpu time spent up to now is       18.8 secs

     total energy              =     -47.66409880 Ry
     estimated scf accuracy    <       0.02848748 Ry

     iteration #  3     ecut=    80.00 Ry     beta= 0.70
     Davidson diagonalization with overlap
     ethr =  3.76E-05,  avg # of iterations =  2.0

     total cpu time spent up to now is       19.1 secs

     total energy              =     -47.66521648 Ry
     estimated scf accuracy    <       0.00486960 Ry

     iteration #  4     ecut=    80.00 Ry     beta= 0.70
     Davidson diagonalization with overlap
     ethr =  2.56E-05,  avg # of iterations =  1.1

     total cpu time spent up to now is       19.3 secs

     total energy              =     -47.66444420 Ry
     estimated scf accuracy    <       0.00221542 Ry

     iteration #  5     ecut=    80.00 Ry     beta= 0.70
     Davidson diagonalization with overlap
     ethr =  1.17E-05,  avg # of iterations =  1.8

     total cpu time spent up to now is       19.6 secs

     total energy              =     -47.66471330 Ry
     estimated scf accuracy    <       0.00013317 Ry

     iteration #  6     ecut=    80.00 Ry     beta= 0.70
     Davidson diagonalization with overlap
     ethr =  7.01E-07,  avg # of iterations =  3.4

     total cpu time spent up to now is       19.8 secs

     total energy              =     -47.66475231 Ry
     estimated scf accuracy    <       0.00002067 Ry

     iteration #  7     ecut=    80.00 Ry     beta= 0.70
     Davidson diagonalization with overlap
     ethr =  1.09E-07,  avg # of iterations =  1.8

     total cpu time spent up to now is       20.1 secs

     total energy              =     -47.66474277 Ry
     estimated scf accuracy    <       0.00003831 Ry

     iteration #  8     ecut=    80.00 Ry     beta= 0.70
     Davidson diagonalization with overlap
     ethr =  1.09E-07,  avg # of iterations =  1.6

     total cpu time spent up to now is       20.3 secs

     total energy              =     -47.66473914 Ry
     estimated scf accuracy    <       0.00001312 Ry

     iteration #  9     ecut=    80.00 Ry     beta= 0.70
     Davidson diagonalization with overlap
     ethr =  6.90E-08,  avg # of iterations =  2.0

     total cpu time spent up to now is       20.6 secs

     total energy              =     -47.66474097 Ry
     estimated scf accuracy    <       0.00000043 Ry

     iteration # 10     ecut=    80.00 Ry     beta= 0.70
     Davidson diagonalization with overlap
     ethr =  2.26E-09,  avg # of iterations =  4.0

     total cpu time spent up to now is       20.9 secs

     total energy              =     -47.66474125 Ry
     estimated scf accuracy    <       0.00000005 Ry

     iteration # 11     ecut=    80.00 Ry     beta= 0.70
     Davidson diagonalization with overlap
     ethr =  2.64E-10,  avg # of iterations =  1.8

     total cpu time spent up to now is       21.1 secs

     total energy              =     -47.66474122 Ry
     estimated scf accuracy    <       0.00000007 Ry

     iteration # 12     ecut=    80.00 Ry     beta= 0.70
     Davidson diagonalization with overlap
     ethr =  2.64E-10,  avg # of iterations =  2.0

     total cpu time spent up to now is       21.3 secs

     total energy              =     -47.66474123 Ry
     estimated scf accuracy    <          1.6E-09 Ry

     iteration # 13     ecut=    80.00 Ry     beta= 0.70
     Davidson diagonalization with overlap
     ethr =  8.28E-12,  avg # of iterations =  2.9

     total cpu time spent up to now is       21.6 secs

     total energy              =     -47.66474123 Ry
     estimated scf accuracy    <          1.4E-09 Ry

     iteration # 14     ecut=    80.00 Ry     beta= 0.70
     Davidson diagonalization with overlap
     ethr =  7.30E-12,  avg # of iterations =  2.0

     total cpu time spent up to now is       21.8 secs

     End of self-consistent calculation

          k = 0.0000 0.0000 0.0000 (  3287 PWs)   bands (ev):

   -34.4052  -2.2180   6.0345   6.0345   6.0345   7.8055   7.8055   9.2304
    14.4453  14.4453  14.4453  15.8793  15.8793  16.3705

          k = 0.0000 0.0000 0.1513 (  3303 PWs)   bands (ev):

   -34.4044  -1.9654   4.1034   6.2868   6.2868   8.0730   8.9030  10.5259
    12.6911  12.6911  14.0091  14.3346  15.4654  15.4654

          k = 0.0000 0.0000 0.3026 (  3306 PWs)   bands (ev):

   -34.4025  -1.2178   1.9154   7.0185   7.0185   8.8540   9.1971  10.4537
    10.4537  12.1947  12.4181  14.7559  16.1188  16.1188

          k = 0.0000 0.0000-0.4540 (  3362 PWs)   bands (ev):

   -34.4019  -0.2712   0.4765   7.8035   7.8035   9.1523   9.1523   9.3269
     9.7603  10.8057  12.2853  16.8870  16.8870  18.0236

          k = 0.0000 0.1513 0.1513 (  3279 PWs)   bands (ev):

   -34.4034  -1.7122   4.0775   4.6791   6.5384   8.6655  10.0879  10.7657
    11.5507  12.6107  13.4760  13.7835  14.8712  15.8765

          k = 0.0000 0.1513 0.3026 (  3306 PWs)   bands (ev):

   -34.4016  -0.9622   2.1391   5.1829   7.2671   7.9827   9.7268  10.6971
    11.3548  12.6507  13.8517  14.2828  14.4318  15.9772

          k = 0.0000 0.1513-0.4540 (  3328 PWs)   bands (ev):

   -34.4008   0.0043   0.6919   6.2445   6.5613   8.0427   9.4159  10.2788
    11.0085  13.0096  13.1734  14.7042  15.7210  16.1861

          k = 0.0000 0.3026 0.3026 (  3289 PWs)   bands (ev):

   -34.3997  -0.2044   2.4775   3.4052   5.9369   7.9818  10.3585  11.1452
    11.8933  12.5716  13.2034  14.8139  15.2631  15.2952

          k = 0.0000 0.3026-0.4540 (  3314 PWs)   bands (ev):

   -34.3989   0.8234   1.3095   4.1638   4.3630   8.7124  10.2045  11.0935
    11.7916  12.4949  13.3834  14.0166  14.2689  16.8408

          k = 0.0000-0.4540-0.4540 (  3276 PWs)   bands (ev):

   -34.3978   1.9332   1.9332   2.5216   3.3000   9.3221  11.3648  11.3648
    11.7014  12.1134  12.1134  12.7781  13.7357  19.2165

          k = 0.1513 0.1513 0.1513 (  3278 PWs)   bands (ev):

   -34.4024  -1.4585   4.3387   4.3387   5.2808   9.7943  10.8338  10.8338
    11.0654  11.0654  12.5700  15.5855  15.5855  16.6123

          k = 0.1513 0.1513 0.3026 (  3302 PWs)   bands (ev):

   -34.4007  -0.7064   2.3687   5.0988   5.7445   8.4376   8.5597  11.2564
    11.7623  12.5655  14.2249  14.6244  14.9790  15.7965

          k = 0.1513 0.1513-0.4540 (  3316 PWs)   bands (ev):

   -34.3999   0.2791   0.9105   5.9379   6.5462   7.1987   7.2396  12.0295
    12.5569  12.8617  13.2913  13.7897  14.4705  17.4128

          k = 0.1513 0.3026 0.3026 (  3305 PWs)   bands (ev):

   -34.3989   0.0518   2.7411   3.5671   5.7248   6.8632   9.2011   9.3491
    12.2464  13.0875  14.8149  15.3448  15.6671  16.6064

          k = 0.1513 0.3026-0.4540 (  3294 PWs)   bands (ev):

   -34.3979   1.0959   1.5397   4.4220   4.4483   7.5787   7.7162  10.2294
    10.9241  14.0301  14.0405  15.8487  17.0361  17.1795

          k = 0.1513-0.4540-0.4540 (  3304 PWs)   bands (ev):

   -34.3971   2.1973   2.1973   2.7965   3.4009   8.5162   8.8288   8.8288
     9.2844  15.0474  15.0881  15.0881  15.6240  19.4753

          k = 0.3026 0.3026 0.3026 (  3296 PWs)   bands (ev):

   -34.3971   0.8114   3.5077   3.5077   4.6215   7.0091   7.0091   7.6305
    10.1675  16.1557  16.1557  16.4253  17.9094  17.9094

          k = 0.3026 0.3026-0.4540 (  3312 PWs)   bands (ev):

   -34.3962   1.9037   2.2036   4.3506   4.9116   5.6379   6.3982   8.3751
     8.5585  16.7559  17.2650  17.3587  18.2932  19.0801

          k = 0.3026-0.4540-0.4540 (  3300 PWs)   bands (ev):

   -34.3953   2.9650   2.9650   3.6182   3.6474   6.4818   6.4818   6.8887
     7.3607  17.6975  18.5990  18.5990  19.1641  20.3037

          k =-0.4540-0.4540-0.4540 (  3328 PWs)   bands (ev):

   -34.3945   3.8063   3.8063   3.8063   4.8667   5.1105   5.1105   5.1105
     6.8590  20.4209  20.4209  20.7151  20.7151  20.7151

     the Fermi energy is    12.7341 ev

!    total energy              =     -47.66474123 Ry
     estimated scf accuracy    <          2.4E-12 Ry
     smearing contrib. (-TS)   =      -0.00082941 Ry
     internal energy E=F+TS    =     -47.66391183 Ry

     The total energy is F=E-TS. E is the sum of the following terms:
     one-electron contribution =      12.72452914 Ry
     hartree contribution      =       4.53357417 Ry
     xc contribution           =     -16.64766973 Ry
     ewald contribution        =     -48.27434540 Ry

     convergence has been achieved in  14 iterations

     Forces acting on atoms (cartesian axes, Ry/au):

     atom    1 type  1   force =     0.00000000    0.00000000    0.00000000
     atom    2 type  1   force =     0.00000000    0.00000000    0.00000000
     atom    3 type  1   force =     0.00000000    0.00000000    0.00000000
     atom    4 type  1   force =     0.00000000    0.00000000    0.00000000
     atom    5 type  2   force =     0.00000000    0.00000000    0.00000000
     The non-local contrib.  to forces
     atom    1 type  1   force =     0.00000000    0.00000000    0.00000000
     atom    2 type  1   force =     0.00000000    0.00000000    0.00000000
     atom    3 type  1   force =     0.00000000    0.00000000    0.00000000
     atom    4 type  1   force =     0.00000000    0.00000000    0.00000000
     atom    5 type  2   force =     0.00000000    0.00000000    0.00000000
     The ionic contribution  to forces
     atom    1 type  1   force =    -0.00000000   -0.00000000    0.00000000
     atom    2 type  1   force =     0.00000000   -0.00000000   -0.00000000
     atom    3 type  1   force =    -0.00000000    0.00000000   -0.00000000
     atom    4 type  1   force =     0.00000000    0.00000000    0.00000000
     atom    5 type  2   force =    -0.00000000   -0.00000000   -0.00000000
     The local contribution  to forces
     atom    1 type  1   force =    -0.00000000    0.00000000    0.00000000
     atom    2 type  1   force =     0.00000000    0.00000000   -0.00000000
     atom    3 type  1   force =    -0.00000000    0.00000000   -0.00000000
     atom    4 type  1   force =     0.00000000    0.00000000    0.00000000
     atom    5 type  2   force =    -0.00000000   -0.00000000   -0.00000000
     The core correction contribution to forces
     atom    1 type  1   force =    -0.00000000    0.00000000    0.00000000
     atom    2 type  1   force =     0.00000000    0.00000000   -0.00000000
     atom    3 type  1   force =     0.00000000    0.00000000   -0.00000000
     atom    4 type  1   force =    -0.00000000   -0.00000000   -0.00000000
     atom    5 type  2   force =     0.00000000    0.00000000    0.00000000
     The Hubbard contrib.    to forces
     atom    1 type  1   force =     0.00000000    0.00000000    0.00000000
     atom    2 type  1   force =     0.00000000    0.00000000    0.00000000
     atom    3 type  1   force =     0.00000000    0.00000000    0.00000000
     atom    4 type  1   force =     0.00000000    0.00000000    0.00000000
     atom    5 type  2   force =     0.00000000    0.00000000    0.00000000
     The SCF correction term to forces
     atom    1 type  1   force =    -0.00000000   -0.00000000    0.00000000
     atom    2 type  1   force =     0.00000000   -0.00000000    0.00000000
     atom    3 type  1   force =    -0.00000000    0.00000000    0.00000000
     atom    4 type  1   force =     0.00000000    0.00000000   -0.00000000
     atom    5 type  2   force =     0.00000000    0.00000000   -0.00000000

     Total force =     0.000000     Total SCF correction =     0.000000


     Computing stress (Cartesian axis) and pressure

          total   stress  (Ry/bohr**3)                   (kbar)     P=      510.35
   0.00346928   0.00000000   0.00000000          510.35        0.00        0.00
   0.00000000   0.00346928   0.00000000            0.00      510.35        0.00
   0.00000000   0.00000000   0.00346928            0.00        0.00      510.35

     Energy error            =      3.6E-03 Ry
     Gradient error          =      0.0E+00 Ry/Bohr
     Cell gradient error     =      1.0E+01 kbar

     number of scf cycles    =   4
     number of bfgs steps    =   3

     enthalpy           old  =     -46.4191849092 Ry
     enthalpy           new  =     -46.4227881220 Ry

     CASE: enthalpy          _new < enthalpy          _old

     new trust radius        =       0.0063157011 bohr
ibrav =      1
 celldm(1) =      7.16095838
Input lattice vectors:
     1.10321553     0.00000000     0.00000000
     0.00000000     1.10321553     0.00000000
     0.00000000     0.00000000     1.10321553
New lattice vectors in INITIAL alat:
     1.10321553     0.00000000     0.00000000
     0.00000000     1.10321553     0.00000000
     0.00000000     0.00000000     1.10321553
New lattice vectors in NEW alat (for information only):
     1.00000000     0.00000000     0.00000000
     0.00000000     1.00000000     0.00000000
     0.00000000     0.00000000     1.00000000
Discrepancy in bohr =     0.000000    0.000000    0.000000
     new conv_thr            =            1.0E-10 Ry

     new unit-cell volume =    367.20911 a.u.^3 (    54.41478 Ang^3 )
     density =      3.64008 g/cm^3

CELL_PARAMETERS (alat=  6.49098765)
   1.103215530   0.000000000   0.000000000
   0.000000000   1.103215530   0.000000000
   0.000000000   0.000000000   1.103215530

ATOMIC_POSITIONS (crystal)
Si            0.0000000000        0.0000000000        0.5000000000
Si            0.5000000000        0.0000000000        0.0000000000
Si            0.0000000000        0.5000000000        0.0000000000
Si            0.5000000000        0.5000000000        0.5000000000
Li            0.0000000000        0.0000000000        0.0000000000



     Writing config-only to output data dir ./output/SiLi.save/
     NEW-OLD atomic charge density approx. for the potential
     extrapolated charge   19.09382, renormalised to   19.00000

     total cpu time spent up to now is       23.0 secs

     Self-consistent Calculation

     iteration #  1     ecut=    80.00 Ry     beta= 0.70
     Davidson diagonalization with overlap
     ethr =  1.00E-06,  avg # of iterations =  3.5

     total cpu time spent up to now is       23.3 secs

     total energy              =     -47.67082704 Ry
     estimated scf accuracy    <       0.00008155 Ry

     iteration #  2     ecut=    80.00 Ry     beta= 0.70
     Davidson diagonalization with overlap
     ethr =  4.29E-07,  avg # of iterations =  3.5

     total cpu time spent up to now is       23.6 secs

     total energy              =     -47.67096293 Ry
     estimated scf accuracy    <       0.00032853 Ry

     iteration #  3     ecut=    80.00 Ry     beta= 0.70
     Davidson diagonalization with overlap
     ethr =  4.29E-07,  avg # of iterations =  2.0

     total cpu time spent up to now is       23.8 secs

     total energy              =     -47.67097409 Ry
     estimated scf accuracy    <       0.00005933 Ry

     iteration #  4     ecut=    80.00 Ry     beta= 0.70
     Davidson diagonalization with overlap
     ethr =  3.12E-07,  avg # of iterations =  1.1

     total cpu time spent up to now is       24.0 secs

     total energy              =     -47.67096583 Ry
     estimated scf accuracy    <       0.00002672 Ry

     iteration #  5     ecut=    80.00 Ry     beta= 0.70
     Davidson diagonalization with overlap
     ethr =  1.41E-07,  avg # of iterations =  1.8

     total cpu time spent up to now is       24.2 secs

     total energy              =     -47.67096793 Ry
     estimated scf accuracy    <       0.00000303 Ry

     iteration #  6     ecut=    80.00 Ry     beta= 0.70
     Davidson diagonalization with overlap
     ethr =  1.59E-08,  avg # of iterations =  3.0

     total cpu time spent up to now is       24.4 secs

     total energy              =     -47.67096858 Ry
     estimated scf accuracy    <       0.00000045 Ry

     iteration #  7     ecut=    80.00 Ry     beta= 0.70
     Davidson diagonalization with overlap
     ethr =  2.38E-09,  avg # of iterations =  1.9

     total cpu time spent up to now is       24.6 secs

     total energy              =     -47.67096844 Ry
     estimated scf accuracy    <       0.00000052 Ry

     iteration #  8     ecut=    80.00 Ry     beta= 0.70
     Davidson diagonalization with overlap
     ethr =  2.38E-09,  avg # of iterations =  1.6

     total cpu time spent up to now is       24.8 secs

     total energy              =     -47.67096842 Ry
     estimated scf accuracy    <       0.00000015 Ry

     iteration #  9     ecut=    80.00 Ry     beta= 0.70
     Davidson diagonalization with overlap
     ethr =  7.78E-10,  avg # of iterations =  2.0

     total cpu time spent up to now is       25.0 secs

     total energy              =     -47.67096844 Ry
     estimated scf accuracy    <          9.2E-09 Ry

     iteration # 10     ecut=    80.00 Ry     beta= 0.70
     Davidson diagonalization with overlap
     ethr =  4.86E-11,  avg # of iterations =  3.3

     total cpu time spent up to now is       25.3 secs

     total energy              =     -47.67096844 Ry
     estimated scf accuracy    <          4.8E-09 Ry

     iteration # 11     ecut=    80.00 Ry     beta= 0.70
     Davidson diagonalization with overlap
     ethr =  2.52E-11,  avg # of iterations =  1.0

     total cpu time spent up to now is       25.4 secs

     total energy              =     -47.67096845 Ry
     estimated scf accuracy    <          7.0E-09 Ry

     iteration # 12     ecut=    80.00 Ry     beta= 0.70
     Davidson diagonalization with overlap
     ethr =  2.52E-11,  avg # of iterations =  1.0

     total cpu time spent up to now is       25.6 secs

     total energy              =     -47.67096845 Ry
     estimated scf accuracy    <       0.00000001 Ry

     iteration # 13     ecut=    80.00 Ry     beta= 0.70
     Davidson diagonalization with overlap
     ethr =  2.52E-11,  avg # of iterations =  1.0

     total cpu time spent up to now is       25.8 secs

     total energy              =     -47.67096844 Ry
     estimated scf accuracy    <       0.00000001 Ry

     iteration # 14     ecut=    80.00 Ry     beta= 0.70
     Davidson diagonalization with overlap
     ethr =  2.52E-11,  avg # of iterations =  1.6

     total cpu time spent up to now is       26.0 secs

     total energy              =     -47.67096844 Ry
     estimated scf accuracy    <          2.5E-09 Ry

     iteration # 15     ecut=    80.00 Ry     beta= 0.70
     Davidson diagonalization with overlap
     ethr =  1.31E-11,  avg # of iterations =  1.0

     total cpu time spent up to now is       26.2 secs

     total energy              =     -47.67096844 Ry
     estimated scf accuracy    <          1.8E-09 Ry

     iteration # 16     ecut=    80.00 Ry     beta= 0.70
     Davidson diagonalization with overlap
     ethr =  9.28E-12,  avg # of iterations =  1.0

     total cpu time spent up to now is       26.4 secs

     total energy              =     -47.67096844 Ry
     estimated scf accuracy    <          8.7E-10 Ry

     iteration # 17     ecut=    80.00 Ry     beta= 0.70
     Davidson diagonalization with overlap
     ethr =  4.60E-12,  avg # of iterations =  1.7

     total cpu time spent up to now is       26.6 secs

     total energy              =     -47.67096844 Ry
     estimated scf accuracy    <          1.2E-10 Ry

     iteration # 18     ecut=    80.00 Ry     beta= 0.70
     Davidson diagonalization with overlap
     ethr =  6.37E-13,  avg # of iterations =  2.8

     total cpu time spent up to now is       26.8 secs

     End of self-consistent calculation

          k = 0.0000 0.0000 0.0000 (  3287 PWs)   bands (ev):

   -34.4554  -2.2493   5.9878   5.9878   5.9878   7.7345   7.7345   9.1388
    14.3623  14.3623  14.3623  15.7899  15.7899  16.3066

          k = 0.0000 0.0000 0.1511 (  3303 PWs)   bands (ev):

   -34.4546  -1.9974   4.0552   6.2394   6.2394   8.0004   8.8190  10.4487
    12.6225  12.6225  13.9247  14.2500  15.3795  15.3795

          k = 0.0000 0.0000 0.3021 (  3306 PWs)   bands (ev):

   -34.4528  -1.2515   1.8717   6.9688   6.9688   8.7759   9.1083  10.3935
    10.3935  12.1198  12.3460  14.6620  16.0303  16.0303

          k = 0.0000 0.0000-0.4532 (  3362 PWs)   bands (ev):

   -34.4522  -0.3048   0.4337   7.7512   7.7512   9.0966   9.0966   9.2371
     9.6647  10.7499  12.2121  16.7965  16.7965  17.9286

          k = 0.0000 0.1511 0.1511 (  3279 PWs)   bands (ev):

   -34.4536  -1.7448   4.0303   4.6277   6.4902   8.5844  10.0210  10.6926
    11.4713  12.5421  13.4063  13.7003  14.7862  15.7880

          k = 0.0000 0.1511 0.3021 (  3306 PWs)   bands (ev):

   -34.4519  -0.9966   2.0950   5.1301   7.2167   7.9141   9.6577  10.6361
    11.2666  12.5816  13.7801  14.2044  14.3358  15.8909

          k = 0.0000 0.1511-0.4532 (  3328 PWs)   bands (ev):

   -34.4511  -0.0303   0.6489   6.1865   6.5040   7.9897   9.3593  10.2038
    10.9194  12.9348  13.1019  14.6295  15.6433  16.0898

          k = 0.0000 0.3021 0.3021 (  3289 PWs)   bands (ev):

   -34.4501  -0.2409   2.4344   3.3543   5.8790   7.9291  10.2831  11.0827
    11.8289  12.4942  13.1087  14.7398  15.1811  15.2050

          k = 0.0000 0.3021-0.4532 (  3314 PWs)   bands (ev):

   -34.4493   0.7861   1.2661   4.1153   4.3069   8.6573  10.1454  11.0172
    11.7095  12.4283  13.3141  13.9263  14.1821  16.7542

          k = 0.0000-0.4532-0.4532 (  3276 PWs)   bands (ev):

   -34.4482   1.8916   1.8916   2.4793   3.2430   9.2650  11.3021  11.3021
    11.6377  12.0365  12.0365  12.6933  13.6372  19.1192

          k = 0.1511 0.1511 0.1511 (  3278 PWs)   bands (ev):

   -34.4527  -1.4918   4.2905   4.2905   5.2258   9.7199  10.7740  10.7740
    10.9845  10.9845  12.4928  15.4991  15.4991  16.5208

          k = 0.1511 0.1511 0.3021 (  3302 PWs)   bands (ev):

   -34.4510  -0.7416   2.3241   5.0471   5.6875   8.3741   8.5032  11.1893
    11.6820  12.4853  14.1432  14.5447  14.8982  15.7055

          k = 0.1511 0.1511-0.4532 (  3316 PWs)   bands (ev):

   -34.4502   0.2436   0.8671   5.8787   6.4825   7.1511   7.1853  11.9615
    12.4658  12.7792  13.2150  13.7216  14.3899  17.3208

          k = 0.1511 0.3021 0.3021 (  3305 PWs)   bands (ev):

   -34.4493   0.0146   2.6969   3.5161   5.6648   6.8120   9.1385   9.2883
    12.1751  13.0052  14.7237  15.2676  15.5702  16.5212

          k = 0.1511 0.3021-0.4532 (  3294 PWs)   bands (ev):

   -34.4483   1.0576   1.4956   4.3721   4.3920   7.5218   7.6603  10.1655
    10.8569  13.9489  13.9497  15.7650  16.9502  17.0811

          k = 0.1511-0.4532-0.4532 (  3304 PWs)   bands (ev):

   -34.4475   2.1546   2.1546   2.7532   3.3443   8.4555   8.7695   8.7695
     9.2217  14.9507  15.0066  15.0066  15.5361  19.3771

          k = 0.3021 0.3021 0.3021 (  3296 PWs)   bands (ev):

   -34.4475   0.7718   3.4596   3.4596   4.5640   6.9569   6.9569   7.5685
    10.1027  16.0630  16.0630  16.3343  17.8159  17.8159

          k = 0.3021 0.3021-0.4532 (  3312 PWs)   bands (ev):

   -34.4466   1.8624   2.1575   4.2945   4.8533   5.5955   6.3444   8.3138
     8.4986  16.6564  17.1700  17.2704  18.2059  18.9818

          k = 0.3021-0.4532-0.4532 (  3300 PWs)   bands (ev):

   -34.4457   2.9185   2.9185   3.5719   3.5918   6.4312   6.4312   6.8336
     7.2977  17.5984  18.5071  18.5071  19.0618  20.2013

          k =-0.4532-0.4532-0.4532 (  3328 PWs)   bands (ev):

   -34.4449   3.7516   3.7516   3.7516   4.8077   5.0698   5.0698   5.0698
     6.7952  20.3034  20.3034  20.6318  20.6318  20.6318

     the Fermi energy is    12.6588 ev

!    total energy              =     -47.67096844 Ry
     estimated scf accuracy    <          2.2E-11 Ry
     smearing contrib. (-TS)   =      -0.00081465 Ry
     internal energy E=F+TS    =     -47.67015379 Ry

     The total energy is F=E-TS. E is the sum of the following terms:
     one-electron contribution =      12.62031235 Ry
     hartree contribution      =       4.53551827 Ry
     xc contribution           =     -16.63125672 Ry
     ewald contribution        =     -48.19472769 Ry

     convergence has been achieved in  18 iterations

     Forces acting on atoms (cartesian axes, Ry/au):

     atom    1 type  1   force =     0.00000000    0.00000000    0.00000000
     atom    2 type  1   force =     0.00000000    0.00000000    0.00000000
     atom    3 type  1   force =     0.00000000    0.00000000    0.00000000
     atom    4 type  1   force =     0.00000000    0.00000000    0.00000000
     atom    5 type  2   force =     0.00000000    0.00000000    0.00000000
     The non-local contrib.  to forces
     atom    1 type  1   force =     0.00000000    0.00000000    0.00000000
     atom    2 type  1   force =     0.00000000    0.00000000    0.00000000
     atom    3 type  1   force =     0.00000000    0.00000000    0.00000000
     atom    4 type  1   force =     0.00000000    0.00000000    0.00000000
     atom    5 type  2   force =     0.00000000    0.00000000    0.00000000
     The ionic contribution  to forces
     atom    1 type  1   force =    -0.00000000   -0.00000000    0.00000000
     atom    2 type  1   force =     0.00000000   -0.00000000   -0.00000000
     atom    3 type  1   force =    -0.00000000    0.00000000   -0.00000000
     atom    4 type  1   force =     0.00000000    0.00000000    0.00000000
     atom    5 type  2   force =    -0.00000000   -0.00000000   -0.00000000
     The local contribution  to forces
     atom    1 type  1   force =    -0.00000000    0.00000000    0.00000000
     atom    2 type  1   force =     0.00000000    0.00000000   -0.00000000
     atom    3 type  1   force =     0.00000000    0.00000000   -0.00000000
     atom    4 type  1   force =     0.00000000   -0.00000000    0.00000000
     atom    5 type  2   force =    -0.00000000    0.00000000   -0.00000000
     The core correction contribution to forces
     atom    1 type  1   force =    -0.00000000   -0.00000000    0.00000000
     atom    2 type  1   force =     0.00000000    0.00000000    0.00000000
     atom    3 type  1   force =    -0.00000000    0.00000000    0.00000000
     atom    4 type  1   force =    -0.00000000   -0.00000000   -0.00000000
     atom    5 type  2   force =     0.00000000    0.00000000    0.00000000
     The Hubbard contrib.    to forces
     atom    1 type  1   force =     0.00000000    0.00000000    0.00000000
     atom    2 type  1   force =     0.00000000    0.00000000    0.00000000
     atom    3 type  1   force =     0.00000000    0.00000000    0.00000000
     atom    4 type  1   force =     0.00000000    0.00000000    0.00000000
     atom    5 type  2   force =     0.00000000    0.00000000    0.00000000
     The SCF correction term to forces
     atom    1 type  1   force =     0.00000000   -0.00000000   -0.00000000
     atom    2 type  1   force =     0.00000000   -0.00000000    0.00000000
     atom    3 type  1   force =     0.00000000   -0.00000000    0.00000000
     atom    4 type  1   force =     0.00000000    0.00000000   -0.00000000
     atom    5 type  2   force =     0.00000000   -0.00000000    0.00000000

     Total force =     0.000000     Total SCF correction =     0.000000


     Computing stress (Cartesian axis) and pressure

          total   stress  (Ry/bohr**3)                   (kbar)     P=      499.72
   0.00339706   0.00000000   0.00000000          499.72        0.00        0.00
   0.00000000   0.00339706   0.00000000            0.00      499.72        0.00
   0.00000000   0.00000000   0.00339706            0.00        0.00      499.72

     Energy error            =      6.2E-05 Ry
     Gradient error          =      0.0E+00 Ry/Bohr
     Cell gradient error     =      2.8E-01 kbar
ibrav =      1
 celldm(1) =      7.16095838
Input lattice vectors:
     1.10321553     0.00000000     0.00000000
     0.00000000     1.10321553     0.00000000
     0.00000000     0.00000000     1.10321553
New lattice vectors in INITIAL alat:
     1.10321553     0.00000000     0.00000000
     0.00000000     1.10321553     0.00000000
     0.00000000     0.00000000     1.10321553
New lattice vectors in NEW alat (for information only):
     1.00000000     0.00000000     0.00000000
     0.00000000     1.00000000     0.00000000
     0.00000000     0.00000000     1.00000000
Discrepancy in bohr =     0.000000    0.000000    0.000000

     bfgs converged in   5 scf cycles and   4 bfgs steps
     (criteria: energy <  1.0E-04 Ry, force <  1.0E-03 Ry/Bohr, cell <  1.0E+00 kbar)

     End of BFGS Geometry Optimization

     Final enthalpy           =     -46.4228500367 Ry

     File ./output/SiLi.bfgs deleted, as requested
Begin final coordinates
     new unit-cell volume =    367.20911 a.u.^3 (    54.41478 Ang^3 )
     density =      3.64008 g/cm^3

CELL_PARAMETERS (alat=  6.49098765)
   1.103215530   0.000000000   0.000000000
   0.000000000   1.103215530   0.000000000
   0.000000000   0.000000000   1.103215530

ATOMIC_POSITIONS (crystal)
Si            0.0000000000        0.0000000000        0.5000000000
Si            0.5000000000        0.0000000000        0.0000000000
Si            0.0000000000        0.5000000000        0.0000000000
Si            0.5000000000        0.5000000000        0.5000000000
Li            0.0000000000        0.0000000000        0.0000000000
End final coordinates



     Writing config-only to output data dir ./output/SiLi.save/

     Final scf calculation at the relaxed structure.
     The G-vectors are recalculated for the final unit cell
     Results may differ from those at the preceding step.

     Parallelization info
     --------------------
     sticks:   dense  smooth     PW     G-vecs:    dense   smooth      PW
     Min         163     163     48                 4437     4437     711
     Max         164     164     49                 4442     4442     712
     Sum        1305    1305    385                35513    35513    5695

     Using Slab Decomposition



     bravais-lattice index     =            1
     lattice parameter (alat)  =       6.4910  a.u.
     unit-cell volume          =     367.2091 (a.u.)^3
     number of atoms/cell      =            5
     number of atomic types    =            2
     number of electrons       =        19.00
     number of Kohn-Sham states=           14
     kinetic-energy cutoff     =      80.0000  Ry
     charge density cutoff     =     320.0000  Ry
     scf convergence threshold =      1.0E-10
     mixing beta               =       0.7000
     number of iterations used =            8  plain     mixing
     press convergence thresh. =      1.0E+00
     Exchange-correlation= PBE
                           (   1   4   3   4   0   0   0)

     celldm(1)=   6.490988  celldm(2)=   0.000000  celldm(3)=   0.000000
     celldm(4)=   0.000000  celldm(5)=   0.000000  celldm(6)=   0.000000

     crystal axes: (cart. coord. in units of alat)
               a(1) = (   1.103216   0.000000   0.000000 )  
               a(2) = (   0.000000   1.103216   0.000000 )  
               a(3) = (   0.000000   0.000000   1.103216 )  

     reciprocal axes: (cart. coord. in units 2 pi/alat)
               b(1) = (  0.906441  0.000000  0.000000 )  
               b(2) = (  0.000000  0.906441  0.000000 )  
               b(3) = (  0.000000  0.000000  0.906441 )  


     PseudoPot. # 1 for Si read from file:
     ../pseudo/Si_ONCV_PBE_sr.upf
     MD5 check sum: e543d271109d17c80368dfa7c482276d
     Pseudo is Norm-conserving + core correction, Zval =  4.0
     Generated using ONCVPSP code by D. R. Hamann
     Using radial grid of 1510 points,  6 beta functions with: 
                l(1) =   0
                l(2) =   0
                l(3) =   1
                l(4) =   1
                l(5) =   2
                l(6) =   2

     PseudoPot. # 2 for Li read from file:
     ../pseudo/Li_ONCV_PBE_sr.upf
     MD5 check sum: 50ff420e78310ffa21704f3361e624a4
     Pseudo is Norm-conserving, Zval =  3.0
     Generated using ONCVPSP code by D. R. Hamann
     Using radial grid of 1944 points,  4 beta functions with: 
                l(1) =   0
                l(2) =   0
                l(3) =   1
                l(4) =   1

     atomic species   valence    mass     pseudopotential
        Si             4.00    28.08550     Si( 1.00)
        Li             3.00     6.94100     Li( 1.00)

     48 Sym. Ops., with inversion, found



   Cartesian axes

     site n.     atom                  positions (alat units)
         1           Si  tau(   1) = (   0.0000000   0.0000000   0.5516078  )
         2           Si  tau(   2) = (   0.5516078   0.0000000   0.0000000  )
         3           Si  tau(   3) = (   0.0000000   0.5516078   0.0000000  )
         4           Si  tau(   4) = (   0.5516078   0.5516078   0.5516078  )
         5           Li  tau(   5) = (   0.0000000   0.0000000   0.0000000  )

     number of k points=    20  Marzari-Vanderbilt smearing, width (Ry)=  0.0200
                       cart. coord. in units 2pi/alat
        k(    1) = (   0.0000000   0.0000000   0.0000000), wk =   0.0092593
        k(    2) = (   0.0000000   0.0000000   0.1510735), wk =   0.0555556
        k(    3) = (   0.0000000   0.0000000   0.3021471), wk =   0.0555556
        k(    4) = (   0.0000000   0.0000000  -0.4532206), wk =   0.0277778
        k(    5) = (   0.0000000   0.1510735   0.1510735), wk =   0.1111111
        k(    6) = (   0.0000000   0.1510735   0.3021471), wk =   0.2222222
        k(    7) = (   0.0000000   0.1510735  -0.4532206), wk =   0.1111111
        k(    8) = (   0.0000000   0.3021471   0.3021471), wk =   0.1111111
        k(    9) = (   0.0000000   0.3021471  -0.4532206), wk =   0.1111111
        k(   10) = (   0.0000000  -0.4532206  -0.4532206), wk =   0.0277778
        k(   11) = (   0.1510735   0.1510735   0.1510735), wk =   0.0740741
        k(   12) = (   0.1510735   0.1510735   0.3021471), wk =   0.2222222
        k(   13) = (   0.1510735   0.1510735  -0.4532206), wk =   0.1111111
        k(   14) = (   0.1510735   0.3021471   0.3021471), wk =   0.2222222
        k(   15) = (   0.1510735   0.3021471  -0.4532206), wk =   0.2222222
        k(   16) = (   0.1510735  -0.4532206  -0.4532206), wk =   0.0555556
        k(   17) = (   0.3021471   0.3021471   0.3021471), wk =   0.0740741
        k(   18) = (   0.3021471   0.3021471  -0.4532206), wk =   0.1111111
        k(   19) = (   0.3021471  -0.4532206  -0.4532206), wk =   0.0555556
        k(   20) = (  -0.4532206  -0.4532206  -0.4532206), wk =   0.0092593

     Dense  grid:    35513 G-vectors     FFT dimensions: (  45,  45,  45)

     Estimated max dynamical RAM per process >      18.04 MB

     Estimated total dynamical RAM >     144.35 MB

     Initial potential from superposition of free atoms

     starting charge      18.9930, renormalised to      19.0000
     Starting wfcs are   18 randomized atomic wfcs

     total cpu time spent up to now is       28.2 secs

     Self-consistent Calculation

     iteration #  1     ecut=    80.00 Ry     beta= 0.70
     Davidson diagonalization with overlap
     c_bands:  1 eigenvalues not converged
     c_bands:  1 eigenvalues not converged
     c_bands:  1 eigenvalues not converged
     c_bands:  1 eigenvalues not converged
     c_bands:  1 eigenvalues not converged
     c_bands:  3 eigenvalues not converged
     ethr =  1.00E-06,  avg # of iterations = 16.2

     total cpu time spent up to now is       29.5 secs

     total energy              =     -47.56432429 Ry
     estimated scf accuracy    <       0.27521359 Ry

     iteration #  2     ecut=    80.00 Ry     beta= 0.70
     Davidson diagonalization with overlap
     ethr =  1.45E-03,  avg # of iterations =  2.4

     total cpu time spent up to now is       29.9 secs

     total energy              =     -47.63674371 Ry
     estimated scf accuracy    <       0.17169453 Ry

     iteration #  3     ecut=    80.00 Ry     beta= 0.70
     Davidson diagonalization with overlap
     ethr =  9.04E-04,  avg # of iterations =  2.0

     total cpu time spent up to now is       30.3 secs

     total energy              =     -47.67065598 Ry
     estimated scf accuracy    <       0.00087235 Ry

     iteration #  4     ecut=    80.00 Ry     beta= 0.70
     Davidson diagonalization with overlap
     ethr =  4.59E-06,  avg # of iterations =  3.9

     total cpu time spent up to now is       30.7 secs

     total energy              =     -47.67125307 Ry
     estimated scf accuracy    <       0.00013870 Ry

     iteration #  5     ecut=    80.00 Ry     beta= 0.70
     Davidson diagonalization with overlap
     ethr =  7.30E-07,  avg # of iterations =  2.2

     total cpu time spent up to now is       31.1 secs

     total energy              =     -47.67127870 Ry
     estimated scf accuracy    <       0.00000134 Ry

     iteration #  6     ecut=    80.00 Ry     beta= 0.70
     Davidson diagonalization with overlap
     ethr =  7.08E-09,  avg # of iterations =  4.2

     total cpu time spent up to now is       31.5 secs

     total energy              =     -47.67128013 Ry
     estimated scf accuracy    <       0.00000003 Ry

     iteration #  7     ecut=    80.00 Ry     beta= 0.70
     Davidson diagonalization with overlap
     ethr =  1.81E-10,  avg # of iterations =  4.3

     total cpu time spent up to now is       31.9 secs

     total energy              =     -47.67128014 Ry
     estimated scf accuracy    <          3.5E-09 Ry

     iteration #  8     ecut=    80.00 Ry     beta= 0.70
     Davidson diagonalization with overlap
     ethr =  1.83E-11,  avg # of iterations =  2.3

     total cpu time spent up to now is       32.3 secs

     total energy              =     -47.67128014 Ry
     estimated scf accuracy    <          1.1E-10 Ry

     iteration #  9     ecut=    80.00 Ry     beta= 0.70
     Davidson diagonalization with overlap
     ethr =  5.67E-13,  avg # of iterations =  3.8

     total cpu time spent up to now is       32.7 secs

     End of self-consistent calculation

          k = 0.0000 0.0000 0.0000 (  4385 PWs)   bands (ev):

   -34.4514  -2.2494   5.9878   5.9878   5.9878   7.7345   7.7345   9.1384
    14.3623  14.3623  14.3623  15.7899  15.7899  15.7899

          k = 0.0000 0.0000 0.1511 (  4437 PWs)   bands (ev):

   -34.4505  -1.9975   4.0551   6.2393   6.2393   8.0004   8.8188  10.4486
    12.6226  12.6226  13.9246  14.2499  15.3795  15.3795

          k = 0.0000 0.0000 0.3021 (  4452 PWs)   bands (ev):

   -34.4487  -1.2516   1.8716   6.9688   6.9688   8.7759   9.1083  10.3935
    10.3935  12.1197  12.3458  14.6618  16.0303  16.0303

          k = 0.0000 0.0000-0.4532 (  4436 PWs)   bands (ev):

   -34.4478  -0.3048   0.4336   7.7513   7.7513   9.0965   9.0965   9.2371
     9.6646  10.7498  12.2118  16.7965  16.7965  17.9287

          k = 0.0000 0.1511 0.1511 (  4433 PWs)   bands (ev):

   -34.4496  -1.7449   4.0303   4.6276   6.4902   8.5843  10.0211  10.6926
    11.4711  12.5421  13.4063  13.7003  14.7860  15.7880

          k = 0.0000 0.1511 0.3021 (  4439 PWs)   bands (ev):

   -34.4478  -0.9967   2.0949   5.1300   7.2167   7.9141   9.6575  10.6361
    11.2666  12.5815  13.7800  14.2044  14.3358  15.8907

          k = 0.0000 0.1511-0.4532 (  4422 PWs)   bands (ev):

   -34.4469  -0.0303   0.6487   6.1865   6.5040   7.9897   9.3593  10.2038
    10.9193  12.9347  13.1019  14.6295  15.6433  16.0896

          k = 0.0000 0.3021 0.3021 (  4438 PWs)   bands (ev):

   -34.4460  -0.2410   2.4344   3.3541   5.8789   7.9291  10.2829  11.0827
    11.8289  12.4943  13.1086  14.7398  15.1811  15.2049

          k = 0.0000 0.3021-0.4532 (  4426 PWs)   bands (ev):

   -34.4451   0.7861   1.2660   4.1152   4.3067   8.6573  10.1454  11.0172
    11.7093  12.4283  13.3141  13.9263  14.1821  16.6251

          k = 0.0000-0.4532-0.4532 (  4468 PWs)   bands (ev):

   -34.4442   1.8916   1.8916   2.4793   3.2426   9.2651  11.3020  11.3020
    11.6376  12.0365  12.0365  12.6932  13.6367  19.1736

          k = 0.1511 0.1511 0.1511 (  4428 PWs)   bands (ev):

   -34.4487  -1.4919   4.2905   4.2905   5.2256   9.7200  10.7740  10.7740
    10.9844  10.9844  12.4925  15.4992  15.4992  16.5207

          k = 0.1511 0.1511 0.3021 (  4433 PWs)   bands (ev):

   -34.4469  -0.7417   2.3240   5.0470   5.6874   8.3741   8.5032  11.1893
    11.6819  12.4852  14.1432  14.5447  14.8982  15.7053

          k = 0.1511 0.1511-0.4532 (  4430 PWs)   bands (ev):

   -34.4460   0.2436   0.8670   5.8788   6.4824   7.1511   7.1851  11.9616
    12.4658  12.7792  13.2150  13.7215  14.3897  17.3208

          k = 0.1511 0.3021 0.3021 (  4422 PWs)   bands (ev):

   -34.4451   0.0145   2.6968   3.5159   5.6648   6.8118   9.1385   9.2883
    12.1751  13.0050  14.7237  15.2676  15.5702  16.5210

          k = 0.1511 0.3021-0.4532 (  4434 PWs)   bands (ev):

   -34.4442   1.0576   1.4955   4.3720   4.3919   7.5217   7.6603  10.1654
    10.8569  13.9489  13.9496  15.7650  16.9501  17.0809

          k = 0.1511-0.4532-0.4532 (  4480 PWs)   bands (ev):

   -34.4433   2.1546   2.1546   2.7532   3.3440   8.4554   8.7695   8.7695
     9.2216  14.9506  15.0065  15.0065  15.5361  19.3753

          k = 0.3021 0.3021 0.3021 (  4434 PWs)   bands (ev):

   -34.4433   0.7717   3.4596   3.4596   4.5638   6.9569   6.9569   7.5683
    10.1027  16.0630  16.0630  16.3342  17.8159  17.8159

          k = 0.3021 0.3021-0.4532 (  4458 PWs)   bands (ev):

   -34.4424   1.8624   2.1574   4.2945   4.8533   5.5954   6.3441   8.3136
     8.4986  16.6565  17.1700  17.2704  18.2059  18.9818

          k = 0.3021-0.4532-0.4532 (  4452 PWs)   bands (ev):

   -34.4415   2.9185   2.9185   3.5719   3.5917   6.4312   6.4312   6.8335
     7.2973  17.5984  18.5071  18.5071  19.0617  19.9048

          k =-0.4532-0.4532-0.4532 (  4416 PWs)   bands (ev):

   -34.4406   3.7516   3.7516   3.7516   4.8076   5.0697   5.0697   5.0697
     6.7947  20.3034  20.3034  20.6320  20.6320  20.6320

     the Fermi energy is    12.6587 ev

!    total energy              =     -47.67128014 Ry
     estimated scf accuracy    <          3.6E-11 Ry
     smearing contrib. (-TS)   =      -0.00081410 Ry
     internal energy E=F+TS    =     -47.67046604 Ry

     The total energy is F=E-TS. E is the sum of the following terms:
     one-electron contribution =      12.61939103 Ry
     hartree contribution      =       4.53641404 Ry
     xc contribution           =     -16.63154342 Ry
     ewald contribution        =     -48.19472769 Ry

     convergence has been achieved in   9 iterations

     Forces acting on atoms (cartesian axes, Ry/au):

     atom    1 type  1   force =     0.00000000    0.00000000    0.00000000
     atom    2 type  1   force =     0.00000000    0.00000000    0.00000000
     atom    3 type  1   force =     0.00000000    0.00000000    0.00000000
     atom    4 type  1   force =     0.00000000    0.00000000    0.00000000
     atom    5 type  2   force =     0.00000000    0.00000000    0.00000000
     The non-local contrib.  to forces
     atom    1 type  1   force =     0.00000000    0.00000000    0.00000000
     atom    2 type  1   force =     0.00000000    0.00000000    0.00000000
     atom    3 type  1   force =     0.00000000    0.00000000    0.00000000
     atom    4 type  1   force =     0.00000000    0.00000000    0.00000000
     atom    5 type  2   force =     0.00000000    0.00000000    0.00000000
     The ionic contribution  to forces
     atom    1 type  1   force =    -0.00000000   -0.00000000    0.00000000
     atom    2 type  1   force =     0.00000000   -0.00000000   -0.00000000
     atom    3 type  1   force =    -0.00000000    0.00000000   -0.00000000
     atom    4 type  1   force =     0.00000000   -0.00000000    0.00000000
     atom    5 type  2   force =    -0.00000000   -0.00000000   -0.00000000
     The local contribution  to forces
     atom    1 type  1   force =     0.00000000    0.00000000   -0.00000000
     atom    2 type  1   force =    -0.00000000    0.00000000   -0.00000000
     atom    3 type  1   force =     0.00000000   -0.00000000   -0.00000000
     atom    4 type  1   force =    -0.00000000   -0.00000000    0.00000000
     atom    5 type  2   force =     0.00000000    0.00000000    0.00000000
     The core correction contribution to forces
     atom    1 type  1   force =     0.00000000   -0.00000000    0.00000000
     atom    2 type  1   force =     0.00000000    0.00000000    0.00000000
     atom    3 type  1   force =     0.00000000    0.00000000    0.00000000
     atom    4 type  1   force =    -0.00000000    0.00000000   -0.00000000
     atom    5 type  2   force =     0.00000000    0.00000000    0.00000000
     The Hubbard contrib.    to forces
     atom    1 type  1   force =     0.00000000    0.00000000    0.00000000
     atom    2 type  1   force =     0.00000000    0.00000000    0.00000000
     atom    3 type  1   force =     0.00000000    0.00000000    0.00000000
     atom    4 type  1   force =     0.00000000    0.00000000    0.00000000
     atom    5 type  2   force =     0.00000000    0.00000000    0.00000000
     The SCF correction term to forces
     atom    1 type  1   force =     0.00000000   -0.00000000   -0.00000000
     atom    2 type  1   force =     0.00000000    0.00000000    0.00000000
     atom    3 type  1   force =    -0.00000000   -0.00000000    0.00000000
     atom    4 type  1   force =     0.00000000    0.00000000    0.00000000
     atom    5 type  2   force =     0.00000000    0.00000000   -0.00000000

     Total force =     0.000000     Total SCF correction =     0.000000


     Computing stress (Cartesian axis) and pressure

          total   stress  (Ry/bohr**3)                   (kbar)     P=      501.07
   0.00340621   0.00000000   0.00000000          501.07        0.00        0.00
   0.00000000   0.00340621   0.00000000            0.00      501.07        0.00
   0.00000000   0.00000000   0.00340621            0.00        0.00      501.07


     Writing all to output data dir ./output/SiLi.save/

     init_run     :      1.07s CPU      1.49s WALL (       2 calls)
     electrons    :     20.12s CPU     25.46s WALL (       6 calls)
     update_pot   :      1.14s CPU      1.21s WALL (       4 calls)
     forces       :      1.07s CPU      1.16s WALL (       6 calls)
     stress       :      3.79s CPU      4.03s WALL (       6 calls)

     Called by init_run:
     wfcinit      :      0.24s CPU      0.25s WALL (       2 calls)
     potinit      :      0.29s CPU      0.56s WALL (       2 calls)
     hinit0       :      0.50s CPU      0.59s WALL (       2 calls)

     Called by electrons:
     c_bands      :     17.31s CPU     21.37s WALL (      81 calls)
     sum_band     :      2.17s CPU      2.36s WALL (      81 calls)
     v_of_rho     :      0.62s CPU      1.69s WALL (      87 calls)
     mix_rho      :      0.05s CPU      0.10s WALL (      81 calls)

     Called by c_bands:
     init_us_2    :      0.46s CPU      0.52s WALL (    3520 calls)
     init_us_2:cp :      0.45s CPU      0.52s WALL (    3520 calls)
     cegterg      :     15.67s CPU     16.33s WALL (    1620 calls)

     Called by *egterg:
     cdiaghg      :      1.33s CPU      1.38s WALL (    6347 calls)
     h_psi        :     12.80s CPU     13.34s WALL (    6467 calls)
     g_psi        :      0.07s CPU      0.07s WALL (    4807 calls)

     Called by h_psi:
     h_psi:calbec :      1.19s CPU      1.24s WALL (    6467 calls)
     vloc_psi     :     10.62s CPU     11.07s WALL (    6467 calls)
     add_vuspsi   :      0.93s CPU      0.96s WALL (    6467 calls)

     General routines
     calbec       :      1.35s CPU      1.40s WALL (    7067 calls)
     fft          :      0.76s CPU      2.11s WALL (    1018 calls)
     ffts         :      0.02s CPU      0.06s WALL (      81 calls)
     fftw         :     10.87s CPU     11.30s WALL (  151594 calls)

     Parallel routines

     PWSCF        :     27.42s CPU     33.89s WALL


   This run was terminated on:  20:18:11  29Dec2024            

=------------------------------------------------------------------------------=
   JOB DONE.
=------------------------------------------------------------------------------=
