
     Program PWSCF v.7.2 starts on 29Dec2024 at 20:41:50 

     This program is part of the open-source Quantum ESPRESSO suite
     for quantum simulation of materials; please cite
         "P. Giannozzi et al., J. Phys.:Condens. Matter 21 395502 (2009);
         "P. Giannozzi et al., J. Phys.:Condens. Matter 29 465901 (2017);
         "P. Giannozzi et al., J. Chem. Phys. 152 154105 (2020);
          URL http://www.quantum-espresso.org", 
     in publications or presentations arising from this work. More details at
     http://www.quantum-espresso.org/quote

     Parallel version (MPI & OpenMP), running on       8 processor cores
     Number of MPI processes:                 8
     Threads/MPI process:                     1

     MPI processes distributed on     1 nodes
     481931 MiB available memory on the printing compute node when the environment starts

     Waiting for input...
     Reading input from standard input

     Current dimensions of program PWSCF are:
     Max number of different atomic species (ntypx) = 10
     Max number of k-points (npk) =  40000
     Max angular momentum in pseudopotentials (lmaxx) =  4

     R & G space division:  proc/nbgrp/npool/nimage =       8
     Subspace diagonalization in iterative solution of the eigenvalue problem:
     a serial algorithm will be used


     Parallelization info
     --------------------
     sticks:   dense  smooth     PW     G-vecs:    dense   smooth      PW
     Min         212     212     64                 5611     5611     951
     Max         213     213     65                 5613     5613     954
     Sum        1703    1703    515                44899    44899    7617

     Using Slab Decomposition



     bravais-lattice index     =            7
     lattice parameter (alat)  =       7.7933  a.u.
     unit-cell volume          =     464.4855 (a.u.)^3
     number of atoms/cell      =            5
     number of atomic types    =            2
     number of electrons       =        19.00
     number of Kohn-Sham states=           14
     kinetic-energy cutoff     =      80.0000  Ry
     charge density cutoff     =     320.0000  Ry
     scf convergence threshold =      1.0E-08
     mixing beta               =       0.7000
     number of iterations used =            8  plain     mixing
     energy convergence thresh.=      1.0E-04
     force convergence thresh. =      1.0E-03
     press convergence thresh. =      1.0E+00
     Exchange-correlation= PBE
                           (   1   4   3   4   0   0   0)
     nstep                     =           50


     celldm(1)=   7.793302  celldm(2)=   0.000000  celldm(3)=   1.962627
     celldm(4)=   0.000000  celldm(5)=   0.000000  celldm(6)=   0.000000

     crystal axes: (cart. coord. in units of alat)
               a(1) = (   0.500000  -0.500000   0.981313 )  
               a(2) = (   0.500000   0.500000   0.981313 )  
               a(3) = (  -0.500000  -0.500000   0.981313 )  

     reciprocal axes: (cart. coord. in units 2 pi/alat)
               b(1) = (  1.000000 -1.000000  0.000000 )  
               b(2) = (  0.000000  1.000000  0.509521 )  
               b(3) = ( -1.000000  0.000000  0.509521 )  


     PseudoPot. # 1 for Si read from file:
     ../pseudo/Si_ONCV_PBE_sr.upf
     MD5 check sum: e543d271109d17c80368dfa7c482276d
     Pseudo is Norm-conserving + core correction, Zval =  4.0
     Generated using ONCVPSP code by D. R. Hamann
     Using radial grid of 1510 points,  6 beta functions with: 
                l(1) =   0
                l(2) =   0
                l(3) =   1
                l(4) =   1
                l(5) =   2
                l(6) =   2

     PseudoPot. # 2 for Li read from file:
     ../pseudo/Li_ONCV_PBE_sr.upf
     MD5 check sum: 50ff420e78310ffa21704f3361e624a4
     Pseudo is Norm-conserving, Zval =  3.0
     Generated using ONCVPSP code by D. R. Hamann
     Using radial grid of 1944 points,  4 beta functions with: 
                l(1) =   0
                l(2) =   0
                l(3) =   1
                l(4) =   1

     atomic species   valence    mass     pseudopotential
        Si             4.00    28.08550     Si( 1.00)
        Li             3.00     6.94100     Li( 1.00)

     16 Sym. Ops., with inversion, found



   Cartesian axes

     site n.     atom                  positions (alat units)
         1           Si  tau(   1) = (   0.0000000   0.0000000   0.4777102  )
         2           Si  tau(   2) = (   0.0000000   0.0000000   1.4849165  )
         3           Si  tau(   3) = (   0.0000000   0.5000000   0.0000000  )
         4           Si  tau(   4) = (   0.5000000   0.0000000   0.0000000  )
         5           Li  tau(   5) = (   0.0000000   0.0000000   0.9813133  )

     number of k points=    65  Marzari-Vanderbilt smearing, width (Ry)=  0.0200
                       cart. coord. in units 2pi/alat
        k(    1) = (   0.0000000   0.0000000   0.0000000), wk =   0.0136054
        k(    2) = (  -0.3333333   0.0000000   0.1698404), wk =   0.0272109
        k(    3) = (   0.0000000   0.1428571   0.0727888), wk =   0.0544218
        k(    4) = (  -0.3333333   0.1428571   0.2426292), wk =   0.0272109
        k(    5) = (   0.3333333   0.1428571  -0.0970517), wk =   0.0272109
        k(    6) = (   0.0000000   0.2857143   0.1455775), wk =   0.0544218
        k(    7) = (  -0.3333333   0.2857143   0.3154179), wk =   0.0272109
        k(    8) = (   0.3333333   0.2857143  -0.0242629), wk =   0.0272109
        k(    9) = (   0.0000000   0.4285714   0.2183663), wk =   0.0544218
        k(   10) = (  -0.3333333   0.4285714   0.3882067), wk =   0.0272109
        k(   11) = (   0.3333333   0.4285714   0.0485258), wk =   0.0272109
        k(   12) = (   0.1428571  -0.1428571   0.0000000), wk =   0.0272109
        k(   13) = (  -0.1904762  -0.1428571   0.1698404), wk =   0.0272109
        k(   14) = (   0.4761905  -0.1428571  -0.1698404), wk =   0.0272109
        k(   15) = (  -0.1904762   0.0000000   0.2426292), wk =   0.0272109
        k(   16) = (   0.4761905   0.0000000  -0.0970517), wk =   0.0272109
        k(   17) = (   0.1428571   0.1428571   0.1455775), wk =   0.0272109
        k(   18) = (  -0.1904762   0.1428571   0.3154179), wk =   0.0272109
        k(   19) = (   0.4761905   0.1428571  -0.0242629), wk =   0.0272109
        k(   20) = (   0.1428571   0.2857143   0.2183663), wk =   0.0544218
        k(   21) = (  -0.1904762   0.2857143   0.3882067), wk =   0.0272109
        k(   22) = (   0.4761905   0.2857143   0.0485258), wk =   0.0272109
        k(   23) = (   0.1428571  -0.5714286  -0.2183663), wk =   0.0544218
        k(   24) = (  -0.1904762  -0.5714286  -0.0485258), wk =   0.0272109
        k(   25) = (   0.4761905  -0.5714286  -0.3882067), wk =   0.0272109
        k(   26) = (   0.1428571  -0.4285714  -0.1455775), wk =   0.0544218
        k(   27) = (  -0.1904762  -0.4285714   0.0242629), wk =   0.0272109
        k(   28) = (   0.4761905  -0.4285714  -0.3154179), wk =   0.0272109
        k(   29) = (   0.1428571  -0.2857143  -0.0727888), wk =   0.0544218
        k(   30) = (  -0.1904762  -0.2857143   0.0970517), wk =   0.0272109
        k(   31) = (   0.4761905  -0.2857143  -0.2426292), wk =   0.0272109
        k(   32) = (   0.2857143  -0.2857143   0.0000000), wk =   0.0272109
        k(   33) = (  -0.0476190  -0.2857143   0.1698404), wk =   0.0272109
        k(   34) = (   0.6190476  -0.2857143  -0.1698404), wk =   0.0272109
        k(   35) = (  -0.0476190  -0.1428571   0.2426292), wk =   0.0272109
        k(   36) = (   0.6190476  -0.1428571  -0.0970517), wk =   0.0272109
        k(   37) = (  -0.0476190   0.0000000   0.3154179), wk =   0.0272109
        k(   38) = (   0.6190476   0.0000000  -0.0242629), wk =   0.0272109
        k(   39) = (  -0.0476190   0.1428571   0.3882067), wk =   0.0272109
        k(   40) = (   0.6190476   0.1428571   0.0485258), wk =   0.0272109
        k(   41) = (   0.2857143  -0.7142857  -0.2183663), wk =   0.0272109
        k(   42) = (  -0.0476190  -0.7142857  -0.0485258), wk =   0.0272109
        k(   43) = (   0.6190476  -0.7142857  -0.3882067), wk =   0.0272109
        k(   44) = (   0.2857143  -0.5714286  -0.1455775), wk =   0.0544218
        k(   45) = (  -0.0476190  -0.5714286   0.0242629), wk =   0.0272109
        k(   46) = (   0.6190476  -0.5714286  -0.3154179), wk =   0.0272109
        k(   47) = (   0.2857143  -0.4285714  -0.0727888), wk =   0.0544218
        k(   48) = (  -0.0476190  -0.4285714   0.0970517), wk =   0.0272109
        k(   49) = (   0.6190476  -0.4285714  -0.2426292), wk =   0.0272109
        k(   50) = (   0.4285714  -0.4285714   0.0000000), wk =   0.0272109
        k(   51) = (   0.0952381  -0.4285714   0.1698404), wk =   0.0272109
        k(   52) = (   0.7619048  -0.4285714  -0.1698404), wk =   0.0272109
        k(   53) = (   0.0952381  -0.2857143   0.2426292), wk =   0.0272109
        k(   54) = (   0.7619048  -0.2857143  -0.0970517), wk =   0.0272109
        k(   55) = (   0.0952381  -0.1428571   0.3154179), wk =   0.0272109
        k(   56) = (   0.7619048  -0.1428571  -0.0242629), wk =   0.0272109
        k(   57) = (   0.0952381   0.0000000   0.3882067), wk =   0.0272109
        k(   58) = (   0.7619048   0.0000000   0.0485258), wk =   0.0272109
        k(   59) = (   0.0952381  -0.8571429  -0.0485258), wk =   0.0272109
        k(   60) = (   0.7619048  -0.8571429  -0.3882067), wk =   0.0272109
        k(   61) = (   0.0952381  -0.7142857   0.0242629), wk =   0.0272109
        k(   62) = (   0.7619048  -0.7142857  -0.3154179), wk =   0.0272109
        k(   63) = (   0.4285714  -0.5714286  -0.0727888), wk =   0.0272109
        k(   64) = (   0.0952381  -0.5714286   0.0970517), wk =   0.0272109
        k(   65) = (   0.7619048  -0.5714286  -0.2426292), wk =   0.0272109

     Dense  grid:    44899 G-vectors     FFT dimensions: (  54,  54,  54)

     Estimated max dynamical RAM per process >      26.79 MB

     Estimated total dynamical RAM >     214.30 MB

     Initial potential from superposition of free atoms

     starting charge      18.9930, renormalised to      19.0000
     Starting wfcs are   18 randomized atomic wfcs

     total cpu time spent up to now is        1.6 secs

     Self-consistent Calculation

     iteration #  1     ecut=    80.00 Ry     beta= 0.70
     Davidson diagonalization with overlap
     ethr =  1.00E-02,  avg # of iterations =  3.0

     Threshold (ethr) on eigenvalues was too large:
     Diagonalizing with lowered threshold

     Davidson diagonalization with overlap
     ethr =  9.97E-04,  avg # of iterations =  1.9

     total cpu time spent up to now is        5.0 secs

     total energy              =     -47.80816329 Ry
     estimated scf accuracy    <       0.20527608 Ry

     iteration #  2     ecut=    80.00 Ry     beta= 0.70
     Davidson diagonalization with overlap
     ethr =  1.08E-03,  avg # of iterations =  2.1

     total cpu time spent up to now is        6.6 secs

     total energy              =     -47.86444378 Ry
     estimated scf accuracy    <       0.09548378 Ry

     iteration #  3     ecut=    80.00 Ry     beta= 0.70
     Davidson diagonalization with overlap
     ethr =  5.03E-04,  avg # of iterations =  2.0

     total cpu time spent up to now is        8.1 secs

     total energy              =     -47.88277859 Ry
     estimated scf accuracy    <       0.00158505 Ry

     iteration #  4     ecut=    80.00 Ry     beta= 0.70
     Davidson diagonalization with overlap
     ethr =  8.34E-06,  avg # of iterations =  6.8

     total cpu time spent up to now is       10.3 secs

     total energy              =     -47.88357959 Ry
     estimated scf accuracy    <       0.00012442 Ry

     iteration #  5     ecut=    80.00 Ry     beta= 0.70
     Davidson diagonalization with overlap
     ethr =  6.55E-07,  avg # of iterations =  2.9

     total cpu time spent up to now is       11.9 secs

     total energy              =     -47.88360172 Ry
     estimated scf accuracy    <       0.00000983 Ry

     iteration #  6     ecut=    80.00 Ry     beta= 0.70
     Davidson diagonalization with overlap
     ethr =  5.17E-08,  avg # of iterations =  2.7

     total cpu time spent up to now is       13.5 secs

     total energy              =     -47.88360442 Ry
     estimated scf accuracy    <       0.00000014 Ry

     iteration #  7     ecut=    80.00 Ry     beta= 0.70
     Davidson diagonalization with overlap
     ethr =  7.27E-10,  avg # of iterations =  4.3

     total cpu time spent up to now is       15.4 secs

     total energy              =     -47.88360455 Ry
     estimated scf accuracy    <       0.00000005 Ry

     iteration #  8     ecut=    80.00 Ry     beta= 0.70
     Davidson diagonalization with overlap
     ethr =  2.84E-10,  avg # of iterations =  2.0

     total cpu time spent up to now is       16.9 secs

     End of self-consistent calculation

          k = 0.0000 0.0000 0.0000 (  5605 PWs)   bands (ev):

   -36.6914  -3.5783   4.0967   4.9452   5.4166   5.4907   5.5561   5.5561
     6.6747   6.6747   8.2223   9.0017  11.1744  11.1744

          k =-0.3333 0.0000 0.1698 (  5605 PWs)   bands (ev):

   -36.6905  -2.4849   0.8344   2.7596   3.4839   5.6721   6.9351   7.5553
     7.8146   8.8665   9.0650   9.7434  11.6556  13.0730

          k = 0.0000 0.1429 0.0728 (  5629 PWs)   bands (ev):

   -36.6911  -3.3763   3.4919   3.5317   4.4929   5.4939   5.9340   6.8361
     7.1064   7.1294   9.2499   9.8289   9.9506  10.9479

          k =-0.3333 0.1429 0.2426 (  5606 PWs)   bands (ev):

   -36.6903  -2.0936   0.6408   2.1079   3.2645   5.0616   6.2799   7.5599
     8.5099   9.7775  10.3869  10.7395  11.5835  12.2180

          k = 0.3333 0.1429-0.0971 (  5618 PWs)   bands (ev):

   -36.6903  -2.4752   1.3640   2.6328   3.9335   4.9047   5.7953   6.2155
     7.6362   9.2018  10.2826  10.7083  11.9031  12.7485

          k = 0.0000 0.2857 0.1456 (  5620 PWs)   bands (ev):

   -36.6907  -2.7730   1.4611   2.8955   3.6737   5.5796   6.8390   7.3266
     7.9976   8.5580   8.6464   9.6009  11.1964  12.6006

          k =-0.3333 0.2857 0.3154 (  5622 PWs)   bands (ev):

   -36.6899  -1.3086   0.7673   1.5716   1.7738   5.0758   6.1557   6.8517
     8.0090  10.5388  11.1715  11.8070  12.3896  12.6614

          k = 0.3333 0.2857-0.0243 (  5617 PWs)   bands (ev):

   -36.6899  -2.0651   1.9279   2.2650   3.6635   4.0101   4.2075   5.7709
     7.2555  11.4257  11.6584  12.0416  12.4779  12.6445

          k = 0.0000 0.4286 0.2184 (  5606 PWs)   bands (ev):

   -36.6903  -1.7939  -0.2843   2.5903   3.2433   5.9226   7.0799   7.1965
     7.6866   9.8684  10.0069  10.5310  11.8936  11.9445

          k =-0.3333 0.4286 0.3882 (  5619 PWs)   bands (ev):

   -36.6895  -0.2754   0.0666   1.4657   1.6376   4.2311   5.8099   6.5380
     7.8659  10.0721  11.4532  12.2907  13.3294  13.7123

          k = 0.3333 0.4286 0.0485 (  5619 PWs)   bands (ev):

   -36.6895  -1.2631   1.2917   1.8270   2.4203   3.8261   4.2987   6.3264
     8.0983   9.9773  11.4094  12.6626  13.3788  13.9462

          k = 0.1429-0.1429 0.0000 (  5623 PWs)   bands (ev):

   -36.6909  -3.2576   3.5231   3.6971   4.7156   4.7241   5.3399   5.4544
     8.1160   8.2014   8.7010  10.1704  10.3074  11.4991

          k =-0.1905-0.1429 0.1698 (  5613 PWs)   bands (ev):

   -36.6908  -2.9071   2.4598   2.5436   3.2423   5.5615   6.2682   7.2001
     8.0270   8.4824   9.1189  10.9502  11.4035  11.8659

          k = 0.4762-0.1429-0.1698 (  5611 PWs)   bands (ev):

   -36.6901  -1.4573  -0.2963   2.1687   3.5801   5.1821   5.2449   7.6911
     8.8241   9.4586   9.9354  10.7547  12.1071  13.1481

          k =-0.1905 0.0000 0.2426 (  5601 PWs)   bands (ev):

   -36.6910  -2.8316   1.4313   2.1418   4.7682   4.8039   6.9653   7.8132
     8.7589   8.7920   9.8843  10.0163  10.9253  11.8749

          k = 0.4762 0.0000-0.0971 (  5612 PWs)   bands (ev):

   -36.6903  -1.7498  -0.0443   1.4235   4.6010   6.0336   6.6853   7.3371
     7.9487   9.0146   9.1985   9.5186  12.7509  12.9637

          k = 0.1429 0.1429 0.1456 (  5604 PWs)   bands (ev):

   -36.6909  -3.0914   2.6897   3.0888   3.3917   5.6755   6.0805   7.1179
     7.7836   8.2355   8.9169  10.6749  10.7731  11.6881

          k =-0.1905 0.1429 0.3154 (  5610 PWs)   bands (ev):

   -36.6908  -2.3546   0.7483   1.9911   2.8102   6.4691   7.4969   7.8937
     8.2115   8.9215  10.8242  11.1456  11.9633  12.0985

          k = 0.4762 0.1429-0.0243 (  5608 PWs)   bands (ev):

   -36.6901  -1.6515   0.5732   0.9433   4.1010   5.9821   6.0948   6.5787
     7.1829   9.7362  10.3274  10.9057  12.0921  12.7535

          k = 0.1429 0.2857 0.2184 (  5601 PWs)   bands (ev):

   -36.6905  -2.4072   1.2360   2.1952   3.2261   5.1839   6.6045   7.1081
     8.3690   9.4042  10.0959  10.9590  11.4875  12.1508

          k =-0.1905 0.2857 0.3882 (  5611 PWs)   bands (ev):

   -36.6903  -1.4860   0.3995   0.8877   2.3666   6.7468   7.1016   8.3851
     8.5357   9.0559   9.9637  11.3898  11.9408  12.4229

          k = 0.4762 0.2857 0.0485 (  5616 PWs)   bands (ev):

   -36.6896  -1.1623   0.7999   1.4564   2.5369   4.3851   5.0012   6.4275
     8.1313  10.0307  11.3206  12.0143  12.7880  13.5391

          k = 0.1429-0.5714-0.2184 (  5609 PWs)   bands (ev):

   -36.6901  -1.3715  -0.3997   2.0565   3.3993   4.9950   5.6866   8.3890
     8.7674   9.2834   9.9600  11.4160  11.9775  12.6259

          k =-0.1905-0.5714-0.0485 (  5614 PWs)   bands (ev):

   -36.6900  -0.7996  -0.1310   0.5896   2.9735   6.0313   6.6195   6.9347
     8.0716   9.8586  10.5578  11.4529  11.8611  12.6180

          k = 0.4762-0.5714-0.3882 (  5621 PWs)   bands (ev):

   -36.6893  -0.3060   0.9448   1.2568   1.6936   3.8010   4.3397   6.3218
     7.6805  10.0819  11.4162  13.9207  14.5120  14.9900

          k = 0.1429-0.4286-0.1456 (  5606 PWs)   bands (ev):

   -36.6901  -1.8279   0.2087   2.2850   3.6844   5.0827   5.3686   7.1673
     8.5119   9.4048  10.1146  10.9563  11.6226  13.3936

          k =-0.1905-0.4286 0.0243 (  5617 PWs)   bands (ev):

   -36.6900  -1.8571   1.0589   1.4047   3.8829   5.1902   5.5092   6.0334
     7.2539  10.4653  10.8679  11.3472  11.9819  12.6621

          k = 0.4762-0.4286-0.3154 (  5636 PWs)   bands (ev):

   -36.6893   0.1340   0.3588   1.1025   1.7270   4.0569   5.1887   5.8696
     6.5108  11.5352  12.2850  13.3214  14.0063  14.4355

          k = 0.1429-0.2857-0.0728 (  5622 PWs)   bands (ev):

   -36.6905  -2.7368   1.9845   2.8601   4.0837   4.8858   5.8122   5.8877
     7.3869   9.0810   9.8870  10.8293  11.6409  12.4459

          k =-0.1905-0.2857 0.0971 (  5614 PWs)   bands (ev):

   -36.6903  -2.5805   1.9184   2.8252   3.7523   4.6128   5.4690   5.6945
     7.6572   9.6517  10.5321  11.4692  11.6887  12.5097

          k = 0.4762-0.2857-0.2426 (  5623 PWs)   bands (ev):

   -36.6896  -0.7905  -0.1624   2.3338   2.5631   4.0492   4.6846   6.8722
     7.5815  11.0479  11.3722  12.4572  12.6861  14.1433

          k = 0.2857-0.2857 0.0000 (  5624 PWs)   bands (ev):

   -36.6900  -2.2992   2.1675   2.4943   4.0158   4.0691   4.2658   5.6004
     7.0476  11.1411  11.7186  11.8886  12.4793  12.5348

          k =-0.0476-0.2857 0.1698 (  5610 PWs)   bands (ev):

   -36.6906  -2.6956   1.3488   2.6508   3.7617   5.3059   6.9731   7.4293
     7.9711   8.5324   9.2165   9.9861  11.1385  12.6456

          k = 0.6190-0.2857-0.1698 (  5623 PWs)   bands (ev):

   -36.6897  -0.9381   0.2835   1.6229   1.8351   4.7767   6.0048   7.2162
     7.5207  10.4187  11.6128  12.0656  12.4514  12.7203

          k =-0.0476-0.1429 0.2426 (  5613 PWs)   bands (ev):

   -36.6911  -2.9377   1.3430   2.7432   4.1328   5.4072   6.8315   7.5504
     8.5909   8.7616   9.9053  10.4214  11.0549  11.5707

          k = 0.6190-0.1429-0.0971 (  5615 PWs)   bands (ev):

   -36.6902  -1.0183  -0.2794   0.6340   3.3183   6.2653   6.7123   7.8172
     8.5299   9.7082  10.2876  10.8988  11.7670  12.5948

          k =-0.0476 0.0000 0.3154 (  5584 PWs)   bands (ev):

   -36.6913  -2.7785   0.3594   3.7727   4.2847   4.8139   5.3187   9.1448
     9.4573   9.9790  10.3876  10.6789  11.7269  11.8961

          k = 0.6190 0.0000-0.0243 (  5599 PWs)   bands (ev):

   -36.6904  -0.8109  -0.4910  -0.0000   5.1065   5.2403   7.2518   8.7160
     9.0740   9.5995   9.7716   9.9127  11.2460  12.4898

          k =-0.0476 0.1429 0.3882 (  5591 PWs)   bands (ev):

   -36.6910  -2.2198  -0.2498   2.3411   3.7851   5.2960   6.6976   8.9278
    10.0187  10.2598  11.1708  11.4914  11.9734  12.5062

          k = 0.6190 0.1429 0.0485 (  5608 PWs)   bands (ev):

   -36.6902  -0.7499  -0.3261   0.2555   3.2941   6.6733   7.0919   7.5659
     8.1332   9.6288  10.5462  11.1113  11.5120  12.2428

          k = 0.2857-0.7143-0.2184 (  5625 PWs)   bands (ev):

   -36.6900  -1.6457   1.1716   1.5968   1.8388   5.4164   6.2882   6.4005
     8.7056  10.4063  10.5879  11.2428  12.5901  12.7361

          k =-0.0476-0.7143-0.0485 (  5604 PWs)   bands (ev):

   -36.6906  -1.2772  -0.4948   0.5752   4.1234   5.5435   8.0520   8.9872
     9.3184  10.0910  10.1967  10.6578  11.4301  11.9128

          k = 0.6190-0.7143-0.3882 (  5626 PWs)   bands (ev):

   -36.6897  -0.6798   0.1821   1.1980   1.7458   5.0097   6.4913   6.9239
     8.0435   9.9116  11.3653  11.4737  12.5818  13.1376

          k = 0.2857-0.5714-0.1456 (  5622 PWs)   bands (ev):

   -36.6897  -0.5917  -0.1185   1.6549   2.0160   4.5227   5.8684   6.6784
     8.0295  10.0441  11.6092  12.2101  12.5874  13.3380

          k =-0.0476-0.5714 0.0243 (  5610 PWs)   bands (ev):

   -36.6903  -1.0702  -0.2404   0.2038   4.7493   5.9483   6.8576   7.9409
     8.6535   8.9944   9.7034  10.1339  11.9877  12.5928

          k = 0.6190-0.5714-0.3154 (  5632 PWs)   bands (ev):

   -36.6894  -0.3044   0.3376   1.2343   2.0592   3.8922   5.6895   6.1801
     6.6626  11.4694  12.2983  12.7734  13.1802  13.7839

          k = 0.2857-0.4286-0.0728 (  5617 PWs)   bands (ev):

   -36.6897  -1.4690   1.0131   1.8972   2.8940   4.0588   4.8616   5.8918
     8.1905  10.0942  11.7536  12.2822  12.6241  13.3176

          k =-0.0476-0.4286 0.0971 (  5617 PWs)   bands (ev):

   -36.6903  -2.0575   0.3630   1.8095   4.3561   5.9916   6.4951   7.1566
     7.9960   8.3452   9.3408   9.6347  12.6413  13.5590

          k = 0.6190-0.4286-0.2426 (  5633 PWs)   bands (ev):

   -36.6894  -0.5016   0.4823   1.3491   2.1564   4.0624   5.2789   5.8997
     6.8205  11.9156  12.1952  13.0554  13.2632  13.8225

          k = 0.4286-0.4286 0.0000 (  5618 PWs)   bands (ev):

   -36.6893  -0.7284   1.4833   1.5347   1.8360   3.4177   3.7902   7.1841
     8.2342   9.5738  10.2074  13.6321  14.8655  15.1905

          k = 0.0952-0.4286 0.1698 (  5614 PWs)   bands (ev):

   -36.6902  -1.8602   0.0043   2.4470   3.5024   5.4594   5.8730   7.7787
     8.5164   8.6354   9.9943  10.8332  11.4343  13.0347

          k = 0.7619-0.4286-0.1698 (  5618 PWs)   bands (ev):

   -36.6898  -0.8863  -0.2575   1.7617   2.5342   4.8565   5.4737   7.3786
     8.2225   9.8249  11.2908  11.6865  12.7685  12.9266

          k = 0.0952-0.2857 0.2426 (  5597 PWs)   bands (ev):

   -36.6906  -2.4087   1.0565   1.8490   3.7019   5.2633   7.0864   7.6456
     8.1190   9.5016   9.8608  10.9520  11.1143  12.1260

          k = 0.7619-0.2857-0.0971 (  5616 PWs)   bands (ev):

   -36.6902  -1.1800   0.3325   0.9229   1.8255   6.5039   7.4881   8.0093
     8.3385   9.3126   9.8992  11.1680  11.8122  13.0769

          k = 0.0952-0.1429 0.3154 (  5600 PWs)   bands (ev):

   -36.6910  -2.5662   0.5557   2.5292   3.3146   6.0122   6.8037   8.2019
     8.8952   9.2371  10.7928  11.1218  11.6553  12.2300

          k = 0.7619-0.1429-0.0243 (  5608 PWs)   bands (ev):

   -36.6906  -1.1604  -0.7152   1.1815   2.6946   6.8349   8.2527   8.7639
     8.8719   9.4099  10.1161  10.6955  11.4061  12.7874

          k = 0.0952 0.0000 0.3882 (  5586 PWs)   bands (ev):

   -36.6912  -2.3258  -0.3488   2.9616   4.1613   4.7568   5.9263   9.4277
    10.3179  10.5569  11.2866  11.7125  11.7507  12.4150

          k = 0.7619 0.0000 0.0485 (  5592 PWs)   bands (ev):

   -36.6908  -1.4848  -0.6738   1.0743   4.4393   4.9233   8.1930   8.6516
    10.0280  10.3416  10.6706  11.3621  11.3916  11.9490

          k = 0.0952-0.8571-0.0485 (  5596 PWs)   bands (ev):

   -36.6910  -1.6961  -0.8631   2.2738   3.0863   5.9719   6.6913   9.6291
    10.1732  10.3364  11.1434  11.3707  11.6518  12.7619

          k = 0.7619-0.8571-0.3882 (  5602 PWs)   bands (ev):

   -36.6906  -1.7986   0.1373   1.2877   2.7814   6.6601   7.9706   8.1179
     8.5740   9.3835  10.1449  11.4897  11.7849  12.2566

          k = 0.0952-0.7143 0.0243 (  5599 PWs)   bands (ev):

   -36.6905  -1.0568  -0.6355   0.6025   3.4758   6.2356   8.2477   8.6514
     9.1870   9.4513  10.0441  11.0700  11.3695  12.2320

          k = 0.7619-0.7143-0.3154 (  5616 PWs)   bands (ev):

   -36.6902  -1.7241   1.0742   1.3437   1.9978   6.0017   6.3937   7.1242
     8.8802   9.6562  10.3187  11.4489  12.3593  12.4173

          k = 0.4286-0.5714-0.0728 (  5617 PWs)   bands (ev):

   -36.6893   0.1766   0.4991   0.9186   1.5677   3.7925   4.6267   7.5100
     7.7479   9.9581  10.0501  13.6760  13.9068  15.1004

          k = 0.0952-0.5714 0.0971 (  5612 PWs)   bands (ev):

   -36.6902  -1.0491  -0.5429   0.8269   4.1100   5.8365   6.8021   7.4943
     8.5848   9.6479   9.8494  10.8905  11.5084  12.6054

          k = 0.7619-0.5714-0.2426 (  5626 PWs)   bands (ev):

   -36.6898  -1.2691   0.0151   2.5249   2.6991   4.3913   4.8168   7.0803
     8.4220  10.4005  10.6860  11.9537  12.5225  13.2937

     the Fermi energy is     9.4641 ev

!    total energy              =     -47.88360456 Ry
     estimated scf accuracy    <          2.5E-09 Ry
     smearing contrib. (-TS)   =      -0.00025858 Ry
     internal energy E=F+TS    =     -47.88334598 Ry

     The total energy is F=E-TS. E is the sum of the following terms:
     one-electron contribution =       8.28938790 Ry
     hartree contribution      =       4.51253977 Ry
     xc contribution           =     -15.91125388 Ry
     ewald contribution        =     -44.77401976 Ry

     convergence has been achieved in   8 iterations

     Forces acting on atoms (cartesian axes, Ry/au):

     atom    1 type  1   force =     0.00000000    0.00000000   -0.07925877
     atom    2 type  1   force =     0.00000000   -0.00000000    0.07925877
     atom    3 type  1   force =    -0.00000000    0.00000000    0.00000000
     atom    4 type  1   force =     0.00000000    0.00000000    0.00000000
     atom    5 type  2   force =    -0.00000000    0.00000000    0.00000000
     The non-local contrib.  to forces
     atom    1 type  1   force =     0.00000000    0.00000000   -0.07988625
     atom    2 type  1   force =     0.00000000    0.00000000    0.07988625
     atom    3 type  1   force =     0.00000000    0.00000000    0.00000000
     atom    4 type  1   force =    -0.00000000    0.00000000   -0.00000000
     atom    5 type  2   force =     0.00000000    0.00000000   -0.00000000
     The ionic contribution  to forces
     atom    1 type  1   force =    -0.00000000   -0.00000000   -0.77690190
     atom    2 type  1   force =     0.00000000    0.00000000    0.77690190
     atom    3 type  1   force =    -0.00000000    0.00000000   -0.00000000
     atom    4 type  1   force =     0.00000000   -0.00000000   -0.00000000
     atom    5 type  2   force =     0.00000000    0.00000000    0.00000000
     The local contribution  to forces
     atom    1 type  1   force =     0.00000000   -0.00000000    0.77198696
     atom    2 type  1   force =    -0.00000000    0.00000000   -0.77198696
     atom    3 type  1   force =    -0.00000000    0.00000000    0.00000000
     atom    4 type  1   force =     0.00000000   -0.00000000    0.00000000
     atom    5 type  2   force =     0.00000000    0.00000000    0.00000000
     The core correction contribution to forces
     atom    1 type  1   force =    -0.00000000   -0.00000000    0.00555354
     atom    2 type  1   force =     0.00000000    0.00000000   -0.00555354
     atom    3 type  1   force =    -0.00000000   -0.00000000    0.00000000
     atom    4 type  1   force =    -0.00000000    0.00000000    0.00000000
     atom    5 type  2   force =     0.00000000    0.00000000    0.00000000
     The Hubbard contrib.    to forces
     atom    1 type  1   force =     0.00000000    0.00000000    0.00000000
     atom    2 type  1   force =     0.00000000    0.00000000    0.00000000
     atom    3 type  1   force =     0.00000000    0.00000000    0.00000000
     atom    4 type  1   force =     0.00000000    0.00000000    0.00000000
     atom    5 type  2   force =     0.00000000    0.00000000    0.00000000
     The SCF correction term to forces
     atom    1 type  1   force =     0.00000000    0.00000000   -0.00001111
     atom    2 type  1   force =    -0.00000000   -0.00000000    0.00001111
     atom    3 type  1   force =     0.00000000   -0.00000000   -0.00000000
     atom    4 type  1   force =     0.00000000   -0.00000000    0.00000000
     atom    5 type  2   force =     0.00000000    0.00000000   -0.00000000

     Total force =     0.112089     Total SCF correction =     0.000016


     Computing stress (Cartesian axis) and pressure

          total   stress  (Ry/bohr**3)                   (kbar)     P=      133.44
   0.00095260   0.00000000   0.00000000          140.13        0.00        0.00
  -0.00000000   0.00095260  -0.00000000           -0.00      140.13       -0.00
   0.00000000  -0.00000000   0.00081611            0.00       -0.00      120.05


     BFGS Geometry Optimization
     Energy error            =      0.0E+00 Ry
     Gradient error          =      7.9E-02 Ry/Bohr
     Cell gradient error     =      3.8E+02 kbar

     number of scf cycles    =   1
     number of bfgs steps    =   0

     enthalpy           new  =     -46.3048503207 Ry

     new trust radius        =       0.2783238580 bohr
ibrav =      7
 celldm(1) =      7.31667743
 celldm(3) =      1.95549329
Input lattice vectors:
     0.46942089    -0.46942089     0.91794940
     0.46942089     0.46942089     0.91794940
    -0.46942089    -0.46942089     0.91794940
New lattice vectors in INITIAL alat:
     0.46942089    -0.46942089     0.91794940
     0.46942089     0.46942089     0.91794940
    -0.46942089    -0.46942089     0.91794940
New lattice vectors in NEW alat (for information only):
     0.50000000    -0.50000000     0.97774664
     0.50000000     0.50000000     0.97774664
    -0.50000000    -0.50000000     0.97774664
Discrepancy in bohr =     0.000000    0.000000    0.000000
     new conv_thr            =       0.0000000100 Ry

     new unit-cell volume =    382.97291 a.u.^3 (    56.75073 Ang^3 )
     density =      3.49025 g/cm^3

CELL_PARAMETERS (alat=  7.79330187)
   0.469420892  -0.469420892   0.917949404
   0.469420892   0.469420892   0.917949404
  -0.469420892  -0.469420892   0.917949404

ATOMIC_POSITIONS (crystal)
Si            0.0000000000        0.2382216107        0.2382216107
Si            0.0000000000        0.7617783893        0.7617783893
Si           -0.5000000000        0.5000000000       -0.0000000000
Si            0.5000000000        0.0000000000       -0.5000000000
Li            0.0000000000        0.5000000000        0.5000000000



     Writing config-only to output data dir ./output/SiLi.save/
     NEW-OLD atomic charge density approx. for the potential
     extrapolated charge   14.95750, renormalised to   19.00000

     total cpu time spent up to now is       20.1 secs

     Self-consistent Calculation

     iteration #  1     ecut=    80.00 Ry     beta= 0.70
     Davidson diagonalization with overlap
     c_bands:  1 eigenvalues not converged
     c_bands:  1 eigenvalues not converged
     c_bands:  1 eigenvalues not converged
     c_bands:  1 eigenvalues not converged
     c_bands:  1 eigenvalues not converged
     c_bands:  1 eigenvalues not converged
     c_bands:  1 eigenvalues not converged
     ethr =  1.00E-06,  avg # of iterations = 13.9

     total cpu time spent up to now is       25.2 secs

     total energy              =     -47.49891431 Ry
     estimated scf accuracy    <       0.15542763 Ry

     iteration #  2     ecut=    80.00 Ry     beta= 0.70
     Davidson diagonalization with overlap
     ethr =  8.18E-04,  avg # of iterations =  3.2

     total cpu time spent up to now is       27.1 secs

     total energy              =     -47.76305094 Ry
     estimated scf accuracy    <       0.47078591 Ry

     iteration #  3     ecut=    80.00 Ry     beta= 0.70
     Davidson diagonalization with overlap
     ethr =  8.18E-04,  avg # of iterations =  2.0

     total cpu time spent up to now is       28.4 secs

     total energy              =     -47.75640344 Ry
     estimated scf accuracy    <       0.10183354 Ry

     iteration #  4     ecut=    80.00 Ry     beta= 0.70
     Davidson diagonalization with overlap
     ethr =  5.36E-04,  avg # of iterations =  1.3

     total cpu time spent up to now is       29.6 secs

     total energy              =     -47.75270665 Ry
     estimated scf accuracy    <       0.02144833 Ry

     iteration #  5     ecut=    80.00 Ry     beta= 0.70
     Davidson diagonalization with overlap
     ethr =  1.13E-04,  avg # of iterations =  2.6

     total cpu time spent up to now is       31.1 secs

     total energy              =     -47.75760894 Ry
     estimated scf accuracy    <       0.00017853 Ry

     iteration #  6     ecut=    80.00 Ry     beta= 0.70
     Davidson diagonalization with overlap
     c_bands:  1 eigenvalues not converged
     ethr =  9.40E-07,  avg # of iterations =  7.2

     total cpu time spent up to now is       33.4 secs

     total energy              =     -47.75794105 Ry
     estimated scf accuracy    <       0.00002380 Ry

     iteration #  7     ecut=    80.00 Ry     beta= 0.70
     Davidson diagonalization with overlap
     ethr =  1.25E-07,  avg # of iterations =  2.3

     total cpu time spent up to now is       34.9 secs

     total energy              =     -47.75794354 Ry
     estimated scf accuracy    <       0.00003190 Ry

     iteration #  8     ecut=    80.00 Ry     beta= 0.70
     Davidson diagonalization with overlap
     ethr =  1.25E-07,  avg # of iterations =  2.0

     total cpu time spent up to now is       36.3 secs

     total energy              =     -47.75795040 Ry
     estimated scf accuracy    <       0.00000009 Ry

     iteration #  9     ecut=    80.00 Ry     beta= 0.70
     Davidson diagonalization with overlap
     ethr =  4.81E-10,  avg # of iterations =  4.2

     total cpu time spent up to now is       37.9 secs

     total energy              =     -47.75795044 Ry
     estimated scf accuracy    <       0.00000005 Ry

     iteration # 10     ecut=    80.00 Ry     beta= 0.70
     Davidson diagonalization with overlap
     ethr =  2.71E-10,  avg # of iterations =  1.6

     total cpu time spent up to now is       39.1 secs

     End of self-consistent calculation

          k = 0.0000 0.0000 0.0000 (  5605 PWs)   bands (ev):

   -34.7931  -2.5478   5.8748   7.3525   7.3525   7.6556   8.5189   8.6393
     8.6393   8.7687  10.1952  11.6394  14.0423  14.0423

          k =-0.3550-0.0000 0.1816 (  5605 PWs)   bands (ev):

   -34.7910  -1.3310   2.4770   4.6751   5.6685   7.4991   9.3894   9.9017
    10.6259  11.0872  11.9674  12.4136  14.5763  16.3114

          k = 0.0000 0.1522 0.0778 (  5629 PWs)   bands (ev):

   -34.7926  -2.3223   5.3834   5.5590   6.9105   7.2843   8.4769   9.1598
     9.4297  10.0622  11.6720  12.3430  12.3580  13.8499

          k =-0.3550 0.1522 0.2594 (  5606 PWs)   bands (ev):

   -34.7904  -0.8905   2.2417   3.9643   5.3996   6.9645   8.4040   9.9221
    11.1856  12.7820  13.1063  13.6471  14.5389  15.2208

          k = 0.3550 0.1522-0.1038 (  5618 PWs)   bands (ev):

   -34.7905  -1.3194   3.1076   4.6695   6.0499   6.7251   7.9346   8.3529
    10.1963  12.0134  13.1958  13.4116  14.9038  15.7587

          k = 0.0000 0.3043 0.1556 (  5620 PWs)   bands (ev):

   -34.7914  -1.6502   3.1844   4.8149   5.8952   7.3886   9.2594  10.1728
    10.3818  10.7829  11.5192  12.1378  14.0332  15.6800

          k =-0.3550 0.3043 0.3372 (  5622 PWs)   bands (ev):

   -34.7893  -0.0042   2.3549   3.2423   3.7734   7.0028   8.3355   9.1094
    10.4366  13.5631  14.2427  15.0866  15.5098  15.7377

          k = 0.3550 0.3043-0.0259 (  5617 PWs)   bands (ev):

   -34.7894  -0.8587   3.8904   4.3455   5.5702   5.7536   6.0308   7.6890
     9.9588  14.3175  14.7174  15.1121  15.7479  15.7955

          k = 0.0000 0.4565 0.2334 (  5606 PWs)   bands (ev):

   -34.7904  -0.5811   1.2373   4.4997   5.3830   7.8075   9.1436   9.5773
    10.6480  12.2618  13.0432  13.2881  14.6165  15.3317

          k =-0.3550 0.4565 0.4150 (  5619 PWs)   bands (ev):

   -34.7884   1.0958   1.6451   3.1603   3.6137   6.0220   7.8559   8.7834
    10.2589  13.1475  14.4526  15.4063  16.5531  17.2099

          k = 0.3550 0.4565 0.0519 (  5619 PWs)   bands (ev):

   -34.7884   0.0374   3.0898   3.8075   4.2834   5.4911   6.1311   8.3950
    10.8994  12.6161  14.4485  15.8449  16.7422  17.4832

          k = 0.1522-0.1522 0.0000 (  5623 PWs)   bands (ev):

   -34.7921  -2.1904   5.6935   5.9316   6.6107   6.6400   7.0505   8.2813
    10.3249  11.0917  11.5085  12.5072  12.9774  14.4065

          k =-0.2029-0.1522 0.1816 (  5613 PWs)   bands (ev):

   -34.7916  -1.7965   4.2349   4.4621   5.2994   7.6773   8.4220   9.7822
    10.5508  11.0206  11.9615  13.7079  14.2434  14.7767

          k = 0.5072-0.1522-0.1816 (  5611 PWs)   bands (ev):

   -34.7898  -0.2155   1.2408   4.0880   5.8359   6.9314   7.2096  10.0763
    11.7316  12.2262  12.4436  13.5633  15.2686  16.4680

          k =-0.2029-0.0000 0.2594 (  5601 PWs)   bands (ev):

   -34.7921  -1.7096   3.1012   3.9678   6.4976   7.6071   9.0273  10.7123
    11.1051  11.9945  12.2210  12.5254  13.7431  14.8798

          k = 0.5072-0.0000-0.1038 (  5612 PWs)   bands (ev):

   -34.7903  -0.5346   1.5125   3.2012   6.9320   7.9412   9.2880   9.4061
    10.5555  11.2835  11.7477  12.5732  15.9492  16.2477

          k = 0.1522 0.1522 0.1556 (  5604 PWs)   bands (ev):

   -34.7920  -2.0027   4.5274   5.0253   5.4694   7.9207   8.1013   9.9793
    10.4000  10.4784  11.6066  13.4273  13.4349  14.6065

          k =-0.2029 0.1522 0.3372 (  5610 PWs)   bands (ev):

   -34.7915  -1.1727   2.3452   3.7441   4.7304   9.0662   9.9918  10.3168
    10.5929  11.4608  13.7266  14.2430  14.9690  15.2013

          k = 0.5072 0.1522-0.0259 (  5608 PWs)   bands (ev):

   -34.7898  -0.4159   2.1988   2.6721   6.3073   8.0197   8.0414   8.7636
     9.9853  12.1701  13.2624  13.7695  15.0852  16.2323

          k = 0.1522 0.3043 0.2334 (  5601 PWs)   bands (ev):

   -34.7908  -1.2383   2.9057   4.0511   5.3217   7.1521   8.8098   9.4081
    11.0176  12.3067  13.0308  13.7341  14.3046  15.1761

          k =-0.2029 0.3043 0.4150 (  5611 PWs)   bands (ev):

   -34.7904  -0.1994   1.9013   2.5800   4.2622   9.0535   9.4337  10.8815
    11.1185  11.7319  12.7527  14.3224  14.9528  15.8071

          k = 0.5072 0.3043 0.0519 (  5616 PWs)   bands (ev):

   -34.7887   0.1417   2.4881   3.2795   4.4667   6.2112   6.9355   8.5212
    10.9628  12.6929  14.2434  15.0132  16.1866  16.9322

          k = 0.1522-0.6087-0.2334 (  5609 PWs)   bands (ev):

   -34.7899  -0.1203   1.1160   3.9324   5.6267   6.7836   7.6971  10.9761
    11.3346  11.9012  12.9037  14.3154  15.0024  15.9730

          k =-0.2029-0.6087-0.0519 (  5614 PWs)   bands (ev):

   -34.7895   0.4922   1.4161   2.2766   4.9535   8.1036   8.7397   9.2281
    10.9821  12.3578  13.2709  14.3484  15.2970  15.8022

          k = 0.5072-0.6087-0.4150 (  5621 PWs)   bands (ev):

   -34.7878   1.1139   2.5918   2.9731   3.7297   5.4588   6.1917   8.5094
    10.0393  13.0836  14.5053  17.2275  18.1965  18.6749

          k = 0.1522-0.4565-0.1556 (  5606 PWs)   bands (ev):

   -34.7899  -0.6077   1.7930   4.2359   5.9104   6.9296   7.2660   9.4626
    11.3904  12.1344  12.6865  13.7259  14.8247  16.6208

          k =-0.2029-0.4565 0.0259 (  5617 PWs)   bands (ev):

   -34.7896  -0.6350   2.7790   3.1962   6.0828   7.1022   7.4713   8.0247
    10.0132  13.2312  13.7010  14.2156  14.9937  16.0807

          k = 0.5072-0.4565-0.3372 (  5636 PWs)   bands (ev):

   -34.7878   1.5855   1.9285   2.8053   3.7402   5.7823   7.1292   7.9902
     8.8100  14.7562  15.4524  16.8194  17.2920  17.9199

          k = 0.1522-0.3043-0.0778 (  5622 PWs)   bands (ev):

   -34.7909  -1.6101   3.8301   4.9528   6.1321   6.6772   7.8669   8.3123
     9.7045  11.9304  12.8802  13.4561  14.5337  15.3807

          k =-0.2029-0.3043 0.1038 (  5614 PWs)   bands (ev):

   -34.7905  -1.4345   3.7570   4.9962   5.7232   6.3943   7.4965   7.8444
    10.1929  12.5834  13.6118  14.1944  14.6119  15.4372

          k = 0.5072-0.3043-0.2594 (  5623 PWs)   bands (ev):

   -34.7887   0.5241   1.4010   4.3871   4.6846   5.5427   6.6137   9.1138
     9.9678  14.2881  14.6182  15.3054  15.6927  17.6605

          k = 0.3043-0.3043 0.0000 (  5624 PWs)   bands (ev):

   -34.7897  -1.1202   4.1940   4.6674   5.5968   5.8592   6.3888   7.4764
     9.6774  14.4360  14.7407  14.7494  15.5826  15.6026

          k =-0.0507-0.3043 0.1816 (  5610 PWs)   bands (ev):

   -34.7913  -1.5631   3.0487   4.5458   6.0528   7.0909   9.3008  10.0830
    10.4187  11.0948  12.2121  12.3854  13.9605  15.7453

          k = 0.6594-0.3043-0.1816 (  5623 PWs)   bands (ev):

   -34.7890   0.4023   1.8329   3.3427   3.8059   6.6522   8.1414   9.4807
     9.9276  13.5515  14.4983  15.3519  15.6309  15.9184

          k =-0.0507-0.1522 0.2594 (  5613 PWs)   bands (ev):

   -34.7924  -1.8276   3.0206   4.5995   6.0489   8.0701   9.2072   9.9980
    10.8662  11.8994  12.4239  13.0679  13.8644  14.4810

          k = 0.6594-0.1522-0.1038 (  5615 PWs)   bands (ev):

   -34.7901   0.2774   1.1992   2.3316   5.3261   8.5618   8.8124  10.3778
    11.0738  12.3274  13.0534  13.8340  14.9367  15.8133

          k =-0.0507-0.0000 0.3372 (  5584 PWs)   bands (ev):

   -34.7928  -1.6463   1.9205   5.5673   5.9061   7.5072   8.0813  11.5539
    11.8793  12.9710  13.4640  13.5856  14.5291  14.8164

          k = 0.6594-0.0000-0.0259 (  5599 PWs)   bands (ev):

   -34.7906   0.4507   0.9239   1.7125   6.8459   8.2691   9.3616  10.8969
    11.5182  12.1637  12.5744  12.8989  14.6777  15.7285

          k =-0.0507 0.1522 0.4150 (  5591 PWs)   bands (ev):

   -34.7923  -1.0195   1.2292   4.1142   5.5792   7.9494   9.3147  11.3601
    12.6225  13.0755  14.0628  14.5130  15.1708  15.5437

          k = 0.6594 0.1522 0.0519 (  5608 PWs)   bands (ev):

   -34.7901   0.5464   1.1319   1.9488   5.2809   9.0375   9.2326  10.1124
    10.6838  12.0927  13.4462  14.0191  14.6772  15.3901

          k = 0.3043-0.7608-0.2334 (  5625 PWs)   bands (ev):

   -34.7897  -0.3813   2.8011   3.2607   3.8518   7.3997   8.5300   8.5766
    11.2146  13.3766  13.5023  14.5113  15.6798  15.9239

          k =-0.0507-0.7608-0.0519 (  5604 PWs)   bands (ev):

   -34.7911   0.0292   0.9057   2.2457   5.9996   8.2638  10.2764  11.5284
    11.9449  12.8418  12.9970  13.7367  14.2532  15.0207

          k = 0.6594-0.7608-0.4150 (  5626 PWs)   bands (ev):

   -34.7890   0.6861   1.7151   2.8910   3.6521   6.9452   8.6437   9.2300
    10.4727  13.0211  14.0468  14.7762  15.5425  16.6029

          k = 0.3043-0.6087-0.1556 (  5622 PWs)   bands (ev):

   -34.7888   0.7411   1.4437   3.4560   3.9455   6.3522   7.9480   8.9262
    10.4555  13.1650  14.3740  15.3669  15.9966  16.6642

          k =-0.0507-0.6087 0.0259 (  5610 PWs)   bands (ev):

   -34.7903   0.1838   1.2438   1.8913   6.8457   8.6220   9.0097  10.1505
    11.1021  11.3117  12.6452  12.9697  15.4488  15.7980

          k = 0.6594-0.6087-0.3372 (  5632 PWs)   bands (ev):

   -34.7881   1.1097   1.8904   2.9927   4.1243   5.5308   7.7303   8.3018
     8.9988  14.7324  15.4309  16.2090  16.4514  16.9777

          k = 0.3043-0.4565-0.0778 (  5617 PWs)   bands (ev):

   -34.7888  -0.1958   2.7365   3.8639   4.8653   5.7843   6.7456   7.9559
    10.9726  12.7958  14.7433  15.1971  16.0657  16.7228

          k =-0.0507-0.4565 0.1038 (  5617 PWs)   bands (ev):

   -34.7904  -0.8652   1.9670   3.6447   6.5908   7.9930   8.6019   9.8575
    10.3848  10.6998  11.8611  12.6035  15.8290  16.7858

          k = 0.6594-0.4565-0.2594 (  5633 PWs)   bands (ev):

   -34.7881   0.8936   2.0600   3.1283   4.2196   5.7178   7.2865   8.0058
     9.1433  15.2145  15.5492  16.1641  16.7139  17.0184

          k = 0.4565-0.4565 0.0000 (  5618 PWs)   bands (ev):

   -34.7879   0.6397   3.2121   3.4253   3.9071   4.8565   5.5875   9.2748
    11.1255  11.9681  13.3806  16.9312  18.6136  18.7504

          k = 0.1014-0.4565 0.1816 (  5614 PWs)   bands (ev):

   -34.7902  -0.6476   1.5609   4.3939   5.6499   7.3862   7.8514  10.2770
    11.1606  11.3574  12.6072  13.6033  14.5711  16.2449

          k = 0.8115-0.4565-0.1816 (  5618 PWs)   bands (ev):

   -34.7892   0.4148   1.2845   3.6091   4.5094   6.7122   7.5272   9.6982
    10.6776  12.8878  14.0755  14.7358  16.1277  16.2315

          k = 0.1014-0.3043 0.2594 (  5597 PWs)   bands (ev):

   -34.7911  -1.2399   2.6836   3.6711   5.8557   7.2768   9.3170  10.0942
    10.6974  12.5037  12.6834  13.7208  13.8164  15.1464

          k = 0.8115-0.3043-0.1038 (  5616 PWs)   bands (ev):

   -34.7900   0.1464   1.8450   2.5523   3.7100   8.6729   9.9028  10.4566
    10.8453  12.1409  12.7529  14.0333  14.7441  16.4495

          k = 0.1014-0.1522 0.3372 (  5600 PWs)   bands (ev):

   -34.7921  -1.4092   2.1357   4.3272   5.2144   8.6754   9.3960  10.5026
    11.2591  11.9729  13.8406  14.0268  14.6292  15.2055

          k = 0.8115-0.1522-0.0259 (  5608 PWs)   bands (ev):

   -34.7911   0.1611   0.6960   2.8536   4.5693   9.5170  10.8696  11.1469
    11.5402  12.0002  12.8743  13.4090  14.3424  15.9788

          k = 0.1014-0.0000 0.4150 (  5586 PWs)   bands (ev):

   -34.7926  -1.1382   1.1220   4.7591   5.7658   7.5129   8.5529  11.9435
    12.9419  13.5259  14.3742  14.4483  15.0012  15.5151

          k = 0.8115-0.0000 0.0519 (  5592 PWs)   bands (ev):

   -34.7916  -0.2007   0.7354   2.7587   6.0821   7.7980  10.6993  11.2155
    12.4631  13.2193  13.8483  14.0067  14.4024  14.9073

          k = 0.1014-0.9130-0.0519 (  5596 PWs)   bands (ev):

   -34.7921  -0.4377   0.5448   4.0181   4.9290   8.5733   9.3191  12.1907
    12.8587  13.0626  14.0071  14.2724  14.6844  15.9256

          k = 0.8115-0.9130-0.4150 (  5602 PWs)   bands (ev):

   -34.7911  -0.5482   1.6431   2.9853   4.6790   9.3129  10.1988  10.6062
    11.4133  11.8467  12.8218  14.4749  14.8423  15.5842

          k = 0.1014-0.7608 0.0259 (  5599 PWs)   bands (ev):

   -34.7910   0.2749   0.7558   2.2657   5.3939   8.9211  10.5120  11.1209
    11.8526  12.0491  13.0279  13.8910  14.2597  15.4074

          k = 0.8115-0.7608-0.3372 (  5616 PWs)   bands (ev):

   -34.7900  -0.4682   2.6675   3.0525   3.9362   8.0900   8.6462   9.4360
    11.4298  12.4798  13.2040  14.7370  15.4504  15.5241

          k = 0.4565-0.6087-0.0778 (  5617 PWs)   bands (ev):

   -34.7879   1.6523   1.9799   2.7201   3.5133   5.4947   6.5341   9.8219
    10.0692  12.8414  13.1537  17.0402  17.0805  18.7070

          k = 0.1014-0.6087 0.1038 (  5612 PWs)   bands (ev):

   -34.7901   0.1882   0.9862   2.5350   6.2669   7.9896   8.9181  10.0929
    11.0374  12.1123  12.7375  13.7388  14.6445  15.9242

          k = 0.8115-0.6087-0.2594 (  5626 PWs)   bands (ev):

   -34.7892   0.0160   1.5700   4.6499   4.7045   6.0194   6.7592   9.3678
    10.8946  13.4227  13.8457  14.7749  15.6081  16.7133

     the Fermi energy is    12.1226 ev

!    total energy              =     -47.75795045 Ry
     estimated scf accuracy    <          2.0E-09 Ry
     smearing contrib. (-TS)   =      -0.00085135 Ry
     internal energy E=F+TS    =     -47.75709909 Ry

     The total energy is F=E-TS. E is the sum of the following terms:
     one-electron contribution =      12.32680988 Ry
     hartree contribution      =       4.26804061 Ry
     xc contribution           =     -16.48105543 Ry
     ewald contribution        =     -47.87089415 Ry

     convergence has been achieved in  10 iterations

     Forces acting on atoms (cartesian axes, Ry/au):

     atom    1 type  1   force =    -0.00000000    0.00000000   -0.09184281
     atom    2 type  1   force =    -0.00000000    0.00000000    0.09184281
     atom    3 type  1   force =     0.00000000   -0.00000000   -0.00000000
     atom    4 type  1   force =    -0.00000000   -0.00000000    0.00000000
     atom    5 type  2   force =     0.00000000    0.00000000   -0.00000000
     The non-local contrib.  to forces
     atom    1 type  1   force =    -0.00000000   -0.00000000   -0.07798798
     atom    2 type  1   force =    -0.00000000    0.00000000    0.07798798
     atom    3 type  1   force =     0.00000000   -0.00000000   -0.00000000
     atom    4 type  1   force =     0.00000000   -0.00000000    0.00000000
     atom    5 type  2   force =    -0.00000000    0.00000000    0.00000000
     The ionic contribution  to forces
     atom    1 type  1   force =     0.00000000   -0.00000000   -0.74132995
     atom    2 type  1   force =    -0.00000000    0.00000000    0.74132995
     atom    3 type  1   force =    -0.00000000   -0.00000000   -0.00000000
     atom    4 type  1   force =    -0.00000000   -0.00000000    0.00000000
     atom    5 type  2   force =     0.00000000    0.00000000    0.00000000
     The local contribution  to forces
     atom    1 type  1   force =    -0.00000000    0.00000000    0.72222573
     atom    2 type  1   force =     0.00000000   -0.00000000   -0.72222573
     atom    3 type  1   force =    -0.00000000   -0.00000000   -0.00000000
     atom    4 type  1   force =     0.00000000    0.00000000   -0.00000000
     atom    5 type  2   force =     0.00000000    0.00000000    0.00000000
     The core correction contribution to forces
     atom    1 type  1   force =     0.00000000    0.00000000    0.00526293
     atom    2 type  1   force =     0.00000000   -0.00000000   -0.00526293
     atom    3 type  1   force =     0.00000000    0.00000000    0.00000000
     atom    4 type  1   force =    -0.00000000    0.00000000   -0.00000000
     atom    5 type  2   force =     0.00000000    0.00000000    0.00000000
     The Hubbard contrib.    to forces
     atom    1 type  1   force =     0.00000000    0.00000000    0.00000000
     atom    2 type  1   force =     0.00000000    0.00000000    0.00000000
     atom    3 type  1   force =     0.00000000    0.00000000    0.00000000
     atom    4 type  1   force =     0.00000000    0.00000000    0.00000000
     atom    5 type  2   force =     0.00000000    0.00000000    0.00000000
     The SCF correction term to forces
     atom    1 type  1   force =    -0.00000000    0.00000000   -0.00001354
     atom    2 type  1   force =    -0.00000000   -0.00000000    0.00001354
     atom    3 type  1   force =    -0.00000000   -0.00000000    0.00000000
     atom    4 type  1   force =     0.00000000    0.00000000    0.00000000
     atom    5 type  2   force =     0.00000000    0.00000000   -0.00000000

     Total force =     0.129885     Total SCF correction =     0.000019


     Computing stress (Cartesian axis) and pressure

          total   stress  (Ry/bohr**3)                   (kbar)     P=      403.64
   0.00281669   0.00000000   0.00000000          414.35        0.00        0.00
   0.00000000   0.00281669  -0.00000000            0.00      414.35       -0.00
   0.00000000  -0.00000000   0.00259832            0.00       -0.00      382.23

     Energy error            =      1.5E-01 Ry
     Gradient error          =      9.2E-02 Ry/Bohr
     Cell gradient error     =      1.2E+02 kbar

     number of scf cycles    =   2
     number of bfgs steps    =   1

     enthalpy           old  =     -46.3048503207 Ry
     enthalpy           new  =     -46.4562519658 Ry

     CASE: enthalpy          _new < enthalpy          _old

     new trust radius        =       0.1223524792 bohr
ibrav =      7
 celldm(1) =      7.14325118
 celldm(3) =      1.94035518
Input lattice vectors:
     0.45829427    -0.45829427     0.88925366
     0.45829427     0.45829427     0.88925366
    -0.45829427    -0.45829427     0.88925366
New lattice vectors in INITIAL alat:
     0.45829427    -0.45829427     0.88925366
     0.45829427     0.45829427     0.88925366
    -0.45829427    -0.45829427     0.88925366
New lattice vectors in NEW alat (for information only):
     0.50000000    -0.50000000     0.97017759
     0.50000000     0.50000000     0.97017759
    -0.50000000    -0.50000000     0.97017759
Discrepancy in bohr =     0.000000    0.000000    0.000000
     new conv_thr            =       0.0000000092 Ry

     new unit-cell volume =    353.62178 a.u.^3 (    52.40134 Ang^3 )
     density =      3.77994 g/cm^3

CELL_PARAMETERS (alat=  7.79330187)
   0.458294270  -0.458294270   0.889253659
   0.458294270   0.458294270   0.889253659
  -0.458294270  -0.458294270   0.889253659

ATOMIC_POSITIONS (crystal)
Si            0.0000000000        0.2300502324        0.2300502324
Si            0.0000000000        0.7699497676        0.7699497676
Si           -0.5000000000        0.5000000000       -0.0000000000
Si            0.5000000000        0.0000000000       -0.5000000000
Li            0.0000000000        0.5000000000        0.5000000000



     Writing config-only to output data dir ./output/SiLi.save/
     NEW-OLD atomic charge density approx. for the potential
     extrapolated charge   17.42355, renormalised to   19.00000

     total cpu time spent up to now is       42.1 secs

     Self-consistent Calculation

     iteration #  1     ecut=    80.00 Ry     beta= 0.70
     Davidson diagonalization with overlap
     c_bands:  1 eigenvalues not converged
     ethr =  1.00E-06,  avg # of iterations = 11.4

     total cpu time spent up to now is       46.0 secs

     total energy              =     -47.65520406 Ry
     estimated scf accuracy    <       0.01231916 Ry

     iteration #  2     ecut=    80.00 Ry     beta= 0.70
     Davidson diagonalization with overlap
     ethr =  6.48E-05,  avg # of iterations =  3.7

     total cpu time spent up to now is       47.8 secs

     total energy              =     -47.68427675 Ry
     estimated scf accuracy    <       0.05242326 Ry

     iteration #  3     ecut=    80.00 Ry     beta= 0.70
     Davidson diagonalization with overlap
     ethr =  6.48E-05,  avg # of iterations =  2.0

     total cpu time spent up to now is       49.1 secs

     total energy              =     -47.68266899 Ry
     estimated scf accuracy    <       0.01354446 Ry

     iteration #  4     ecut=    80.00 Ry     beta= 0.70
     Davidson diagonalization with overlap
     ethr =  6.48E-05,  avg # of iterations =  1.2

     total cpu time spent up to now is       50.1 secs

     total energy              =     -47.68194123 Ry
     estimated scf accuracy    <       0.00338167 Ry

     iteration #  5     ecut=    80.00 Ry     beta= 0.70
     Davidson diagonalization with overlap
     ethr =  1.78E-05,  avg # of iterations =  2.2

     total cpu time spent up to now is       51.4 secs

     total energy              =     -47.68236957 Ry
     estimated scf accuracy    <       0.00019208 Ry

     iteration #  6     ecut=    80.00 Ry     beta= 0.70
     Davidson diagonalization with overlap
     ethr =  1.01E-06,  avg # of iterations =  4.4

     total cpu time spent up to now is       53.0 secs

     total energy              =     -47.68246461 Ry
     estimated scf accuracy    <       0.00000328 Ry

     iteration #  7     ecut=    80.00 Ry     beta= 0.70
     Davidson diagonalization with overlap
     ethr =  1.72E-08,  avg # of iterations =  3.0

     total cpu time spent up to now is       54.4 secs

     total energy              =     -47.68246612 Ry
     estimated scf accuracy    <       0.00000017 Ry

     iteration #  8     ecut=    80.00 Ry     beta= 0.70
     Davidson diagonalization with overlap
     ethr =  9.00E-10,  avg # of iterations =  2.9

     total cpu time spent up to now is       55.7 secs

     total energy              =     -47.68246614 Ry
     estimated scf accuracy    <       0.00000007 Ry

     iteration #  9     ecut=    80.00 Ry     beta= 0.70
     Davidson diagonalization with overlap
     ethr =  3.68E-10,  avg # of iterations =  1.7

     total cpu time spent up to now is       56.8 secs

     End of self-consistent calculation

          k = 0.0000 0.0000 0.0000 (  5605 PWs)   bands (ev):

   -33.9575  -2.0903   6.8128   8.1599   8.1599   8.7706   9.5769   9.5769
     9.9434  10.2290  11.0848  12.9549  15.2290  15.2290

          k =-0.3637-0.0000 0.1874 (  5605 PWs)   bands (ev):

   -33.9545  -0.8307   3.2081   5.5965   6.6332   8.3405  10.4640  10.8008
    12.0833  12.0928  13.0685  13.9015  15.8970  17.7880

          k = 0.0000 0.1559 0.0803 (  5629 PWs)   bands (ev):

   -33.9567  -1.8559   6.2422   6.4963   7.9218   8.0959   9.6135  10.1228
    10.6521  11.4553  12.8260  13.3457  13.5331  15.1177

          k =-0.3637 0.1559 0.2677 (  5606 PWs)   bands (ev):

   -33.9538  -0.3692   2.9467   4.8353   6.3279   7.8615   9.3526  10.9960
    12.3624  14.2145  14.3698  14.9094  15.8500  16.6916

          k = 0.3637 0.1559-0.1071 (  5618 PWs)   bands (ev):

   -33.9538  -0.8205   3.8835   5.6002   6.9809   7.5779   8.8787   9.3298
    11.4808  13.2557  14.4127  14.7064  16.2625  17.0886

          k = 0.0000 0.3117 0.1606 (  5620 PWs)   bands (ev):

   -33.9551  -1.1596   3.9411   5.7453   6.8665   8.2171  10.3398  11.1965
    11.6600  11.8676  12.6527  13.5025  15.3289  17.0783

          k =-0.3637 0.3117 0.3481 (  5622 PWs)   bands (ev):

   -33.9522   0.5556   3.0488   3.9359   4.7435   7.8625   9.3838  10.1868
    11.5550  14.8563  15.5581  16.7337  17.0276  17.1399

          k = 0.3637 0.3117-0.0268 (  5617 PWs)   bands (ev):

   -33.9523  -0.3423   4.7451   5.3117   6.2264   6.5014   7.0784   8.6572
    11.3127  15.5648  16.0438  16.4982  17.0496  17.3556

          k = 0.0000 0.4676 0.2410 (  5606 PWs)   bands (ev):

   -33.9537  -0.0733   1.9393   5.4090   6.3405   8.7001   9.9398  10.6304
    12.0211  13.3433  14.4929  14.6183  15.8821  16.9207

          k =-0.3637 0.4676 0.4284 (  5619 PWs)   bands (ev):

   -33.9509   1.6419   2.3660   3.8637   4.5505   6.8684   8.8339   9.8535
    11.3969  14.6200  15.8250  16.7746  17.9759  18.7341

          k = 0.3637 0.4676 0.0535 (  5619 PWs)   bands (ev):

   -33.9510   0.5853   3.8682   4.7112   5.0160   6.3352   7.0241   9.4185
    12.2934  13.8285  15.8460  17.1631  18.2532  19.0791

          k = 0.1559-0.1559 0.0000 (  5623 PWs)   bands (ev):

   -33.9560  -1.7207   6.6169   7.0142   7.3751   7.5688   7.8696   9.5884
    11.2595  12.4696  12.8367  13.5579  14.2032  15.5998

          k =-0.2078-0.1559 0.1874 (  5613 PWs)   bands (ev):

   -33.9554  -1.3066   5.0040   5.3385   6.2212   8.6494   9.4288  10.8078
    11.7214  12.2503  13.3500  14.9812  15.5379  15.9968

          k = 0.5195-0.1559-0.1874 (  5611 PWs)   bands (ev):

   -33.9529   0.2944   1.9577   4.9742   6.8551   7.6400   8.1883  11.1683
    12.9976  13.4243  13.7029  14.8522  16.7447  18.0719

          k =-0.2078-0.0000 0.2677 (  5601 PWs)   bands (ev):

   -33.9561  -1.2097   3.8500   4.8047   7.2667   8.8695   9.9550  11.9811
    12.2157  13.1633  13.5774  13.6552  15.0920  16.2674

          k = 0.5195 0.0000-0.1071 (  5612 PWs)   bands (ev):

   -33.9535  -0.0306   2.2405   4.0222   7.9795   8.8489  10.0726  10.6316
    11.7391  12.3214  12.9547  14.0211  17.3295  17.8690

          k = 0.1559 0.1559 0.1606 (  5604 PWs)   bands (ev):

   -33.9560  -1.5215   5.3681   5.8537   6.4043   8.9539   9.0373  11.2643
    11.3544  11.6960  12.9310  14.6718  14.7218  15.7977

          k =-0.2078 0.1559 0.3481 (  5610 PWs)   bands (ev):

   -33.9553  -0.6443   3.0603   4.5160   5.5862  10.2835  10.9576  11.5354
    11.6071  12.6345  15.0916  15.7280  16.2693  16.7350

          k = 0.5195 0.1559-0.0268 (  5608 PWs)   bands (ev):

   -33.9529   0.0987   2.9611   3.4534   7.2244   8.8788   9.0746   9.7535
    11.3883  13.1734  14.6064  15.0208  16.5002  17.8792

          k = 0.1559 0.3117 0.2410 (  5601 PWs)   bands (ev):

   -33.9543  -0.7273   3.6286   4.9252   6.2384   8.0780   9.7881  10.4410
    12.1830  13.7548  14.3631  14.9728  15.5099  16.6070

          k =-0.2078 0.3117 0.4284 (  5611 PWs)   bands (ev):

   -33.9537   0.3681   2.5460   3.3562   5.1158  10.0492  10.5408  11.9978
    12.3206  12.9289  13.9801  15.7655  16.2892  17.4335

          k = 0.5195 0.3117 0.0535 (  5616 PWs)   bands (ev):

   -33.9513   0.6852   3.2443   4.0942   5.2831   7.0859   7.8568   9.5495
    12.3675  13.9128  15.5734  16.2443  17.7791  18.4654

          k = 0.1559-0.6234-0.2410 (  5609 PWs)   bands (ev):

   -33.9530   0.3956   1.8185   4.8058   6.6061   7.5962   8.6311  12.1229
    12.5485  13.0098  14.2041  15.8224  16.4470  17.4892

          k =-0.2078-0.6234-0.0535 (  5614 PWs)   bands (ev):

   -33.9525   1.0034   2.1539   3.0487   5.8114   9.0163   9.8051  10.2584
    12.4044  13.4792  14.4745  15.5980  16.9141  17.2502

          k = 0.5195-0.6234-0.4284 (  5621 PWs)   bands (ev):

   -33.9501   1.7082   3.2491   3.7007   4.6997   6.2790   7.0949   9.5701
    11.1695  14.5314  15.9749  18.5933  19.8526  20.3140

          k = 0.1559-0.4676-0.1606 (  5606 PWs)   bands (ev):

   -33.9530  -0.0935   2.5167   5.1329   6.9113   7.6863   8.2140  10.5119
    12.7940  13.2246  13.9783  14.9147  16.3415  18.0348

          k =-0.2078-0.4676 0.0268 (  5617 PWs)   bands (ev):

   -33.9526  -0.1185   3.5632   4.0057   6.9745   7.9704   8.4514   8.9828
    11.3892  14.3445  15.0150  15.4367  16.4471  17.6691

          k = 0.5195-0.4676-0.3481 (  5636 PWs)   bands (ev):

   -33.9501   2.1699   2.6146   3.5009   4.6927   6.6410   8.0715   9.0024
     9.9121  16.2933  16.9488  18.4521  18.7437  19.5029

          k = 0.1559-0.3117-0.0803 (  5622 PWs)   bands (ev):

   -33.9544  -1.1203   4.6412   5.9097   7.0284   7.5378   8.8068   9.3392
    10.9047  13.2037  14.2482  14.6113  15.8091  16.6886

          k =-0.2078-0.3117 0.1071 (  5614 PWs)   bands (ev):

   -33.9539  -0.9373   4.5610   5.9976   6.5535   7.2686   8.3831   8.8457
    11.4749  13.8923  15.0190  15.3714  15.8627  16.7475

          k = 0.5195-0.3117-0.2677 (  5623 PWs)   bands (ev):

   -33.9513   1.0550   2.1231   5.2490   5.6437   6.2586   7.5828  10.1731
    11.0793  15.7913  16.0497  16.5855  17.1411  19.1877

          k = 0.3117-0.3117 0.0000 (  5624 PWs)   bands (ev):

   -33.9528  -0.6130   5.0808   5.7020   6.3417   6.4705   7.4401   8.4277
    11.0041  15.9503  15.9796  15.9920  16.8158  17.1879

          k =-0.0520-0.3117 0.1874 (  5610 PWs)   bands (ev):

   -33.9550  -1.0678   3.7921   5.4617   7.0561   7.9074  10.3527  11.1506
    11.4561  12.4711  13.3810  13.6886  15.2631  17.1473

          k = 0.6754-0.3117-0.1874 (  5623 PWs)   bands (ev):

   -33.9517   0.9656   2.5226   4.0587   4.7514   7.5024   9.1835  10.5498
    11.0426  14.9376  15.8244  16.8301  16.9485  17.6628

          k =-0.0520-0.1559 0.2677 (  5613 PWs)   bands (ev):

   -33.9565  -1.3310   3.7916   5.4179   6.8548   9.3207  10.1705  11.2043
    11.9119  13.2531  13.6449  14.3482  15.1513  15.7746

          k = 0.6754-0.1559-0.1071 (  5615 PWs)   bands (ev):

   -33.9532   0.8112   1.8782   3.1270   6.1901   9.6233   9.7727  11.5547
    12.1857  13.6263  14.2746  15.1082  16.3367  17.2754

          k =-0.0520-0.0000 0.3481 (  5584 PWs)   bands (ev):

   -33.9570  -1.1321   2.6385   6.3350   6.6409   8.6156   9.3713  12.6910
    13.0272  14.2871  14.8287  15.2343  15.6618  16.0357

          k = 0.6754-0.0000-0.0268 (  5599 PWs)   bands (ev):

   -33.9539   0.9368   1.6172   2.5165   7.6358   9.5737  10.4188  11.8101
    12.6740  13.2617  13.9030  14.2166  16.1506  17.2861

          k =-0.0520 0.1559 0.4284 (  5591 PWs)   bands (ev):

   -33.9563  -0.4698   1.8934   4.8920   6.3481   9.1212  10.4807  12.5218
    13.8702  14.2329  15.4310  15.8389  16.6072  16.9434

          k = 0.6754 0.1559 0.0535 (  5608 PWs)   bands (ev):

   -33.9532   1.0590   1.8247   2.7398   6.1369  10.0435  10.2867  11.2647
    11.8675  13.2899  14.6951  15.2654  16.1290  16.8517

          k = 0.3117-0.7793-0.2410 (  5625 PWs)   bands (ev):

   -33.9527   0.1663   3.5151   3.9446   4.8354   8.2691   9.5387   9.6768
    12.3746  14.6688  14.7365  16.1684  17.0224  17.4661

          k =-0.0520-0.7793-0.0535 (  5604 PWs)   bands (ev):

   -33.9547   0.6206   1.5051   3.0280   6.7933   9.4857  11.3703  12.5675
    13.1462  14.0241  14.3248  15.1322  15.4831  16.4471

          k = 0.6754-0.7793-0.4284 (  5626 PWs)   bands (ev):

   -33.9517   1.2527   2.4036   3.6165   4.5515   7.8241   9.6918  10.2953
    11.6170  14.4770  15.2566  16.2870  16.8485  18.1593

          k = 0.3117-0.6234-0.1606 (  5622 PWs)   bands (ev):

   -33.9514   1.2759   2.1663   4.2144   4.8492   7.1961   8.9727   9.9697
    11.5990  14.6518  15.5938  16.6842  17.6049  18.2809

          k =-0.0520-0.6234 0.0268 (  5610 PWs)   bands (ev):

   -33.9536   0.6786   1.9663   2.6726   7.7028   9.7948  10.1492  11.0989
    12.1998  12.3821  13.9737  14.2710  16.9583  17.2602

          k = 0.6754-0.6234-0.3481 (  5632 PWs)   bands (ev):

   -33.9505   1.6853   2.5819   3.7281   5.0785   6.3379   8.7230   9.3116
    10.1032  16.2782  16.8620  17.8410  17.9231  18.4262

          k = 0.3117-0.4676-0.0803 (  5617 PWs)   bands (ev):

   -33.9515   0.3410   3.5019   4.7554   5.6287   6.6565   7.6570   8.9699
    12.3635  14.0300  16.0832  16.3706  17.6733  18.2669

          k =-0.0520-0.4676 0.1071 (  5617 PWs)   bands (ev):

   -33.9537  -0.3613   2.7048   4.4877   7.6080   8.9697   9.3926  11.2085
    11.4262  11.7045  13.0514  14.0317  17.2810  18.2132

          k = 0.6754-0.4676-0.2677 (  5633 PWs)   bands (ev):

   -33.9505   1.4699   2.7583   3.8633   5.1638   6.5460   8.2587   9.0205
    10.2356  16.8086  17.1055  17.5433  18.1743  18.5597

          k = 0.4676-0.4676 0.0000 (  5618 PWs)   bands (ev):

   -33.9502   1.2150   3.8407   4.2831   4.8968   5.5661   6.4757  10.3216
    12.5401  13.1060  14.8563  18.3113  20.1975  20.2687

          k = 0.1039-0.4676 0.1874 (  5614 PWs)   bands (ev):

   -33.9534  -0.1373   2.2750   5.2979   6.6213   8.2535   8.7269  11.3942
    12.2141  12.6974  13.9541  14.7870  16.0643  17.7173

          k = 0.8312-0.4676-0.1874 (  5618 PWs)   bands (ev):

   -33.9520   0.9419   1.9998   4.4327   5.3879   7.5391   8.5544  10.7745
    11.8225  14.2586  15.3702  16.0425  17.6498  17.9093

          k = 0.1039-0.3117 0.2677 (  5597 PWs)   bands (ev):

   -33.9546  -0.7273   3.3848   4.5449   6.7641   8.2421  10.3199  11.1289
    11.8531  13.9265  13.9972  14.9638  15.0780  16.5487

          k = 0.8312-0.3117-0.1071 (  5616 PWs)   bands (ev):

   -33.9532   0.7292   2.4953   3.2770   4.5847   9.6314  11.0468  11.5758
    11.9894  13.3902  14.0073  15.4597  16.1335  17.8715

          k = 0.1039-0.1559 0.3481 (  5600 PWs)   bands (ev):

   -33.9561  -0.8878   2.8538   5.1107   6.0396   9.8829  10.5078  11.6247
    12.3385  13.1233  15.3261  15.4758  15.9607  16.4906

          k = 0.8312-0.1559-0.0268 (  5608 PWs)   bands (ev):

   -33.9546   0.7870   1.2846   3.6040   5.3968  10.6951  11.9740  12.3183
    12.7118  13.1287  14.1858  14.7589  15.7076  17.3606

          k = 0.1039-0.0000 0.4284 (  5586 PWs)   bands (ev):

   -33.9567  -0.5917   1.7855   5.5359   6.4921   8.6645   9.7589  13.1423
    14.1913  14.9782  15.4336  15.8256  16.3945  17.1362

          k = 0.8312-0.0000 0.0535 (  5592 PWs)   bands (ev):

   -33.9553   0.3952   1.3405   3.5287   6.8252   9.0320  11.8351  12.4146
    13.5017  14.6301  15.1679  15.2210  15.7002  16.2789

          k = 0.1039-0.9351-0.0535 (  5596 PWs)   bands (ev):

   -33.9560   0.1571   1.1546   4.7768   5.7306   9.7038  10.4980  13.4489
    14.0040  14.3422  15.2592  15.6620  16.0969  17.2758

          k = 0.8312-0.9351-0.4284 (  5602 PWs)   bands (ev):

   -33.9547   0.0128   2.3037   3.7518   5.5170  10.5400  11.1732  11.6806
    12.6928  13.0386  13.9813  15.9501  16.1627  17.1897

          k = 0.1039-0.7793 0.0268 (  5599 PWs)   bands (ev):

   -33.9545   0.8898   1.3389   3.0396   6.2164  10.1149  11.6404  12.1610
    13.0515  13.1956  14.4374  15.1406  15.5573  16.8729

          k = 0.8312-0.7793-0.3481 (  5616 PWs)   bands (ev):

   -33.9532   0.0799   3.3496   3.8025   4.8548   8.9939   9.7228  10.5240
    12.6077  13.7053  14.4420  16.3985  16.8249  17.0211

          k = 0.4676-0.6234-0.0803 (  5617 PWs)   bands (ev):

   -33.9502   2.3039   2.5213   3.5362   4.4201   6.3322   7.4436  10.9557
    11.1657  14.2072  14.6653  18.3329  18.5809  20.1004

          k = 0.1039-0.6234 0.1071 (  5612 PWs)   bands (ev):

   -33.9533   0.6792   1.7157   3.3323   7.1653   9.0308   9.8520  11.2901
    12.1096  13.3009  14.0794  14.9506  16.1062  17.3709

          k = 0.8312-0.6234-0.2677 (  5626 PWs)   bands (ev):

   -33.9520   0.5515   2.2767   5.5263   5.6710   6.7351   7.7384  10.4400
    12.0430  14.7056  15.3258  16.0919  17.0834  18.2026

     the Fermi energy is    13.3040 ev

!    total energy              =     -47.68246614 Ry
     estimated scf accuracy    <          4.0E-09 Ry
     smearing contrib. (-TS)   =      -0.00058704 Ry
     internal energy E=F+TS    =     -47.68187910 Ry

     The total energy is F=E-TS. E is the sum of the following terms:
     one-electron contribution =      14.28577813 Ry
     hartree contribution      =       4.08883683 Ry
     xc contribution           =     -16.73833613 Ry
     ewald contribution        =     -49.31815793 Ry

     convergence has been achieved in   9 iterations

     Forces acting on atoms (cartesian axes, Ry/au):

     atom    1 type  1   force =     0.00000000    0.00000000   -0.07453008
     atom    2 type  1   force =    -0.00000000   -0.00000000    0.07453008
     atom    3 type  1   force =     0.00000000    0.00000000   -0.00000000
     atom    4 type  1   force =     0.00000000   -0.00000000    0.00000000
     atom    5 type  2   force =    -0.00000000    0.00000000   -0.00000000
     The non-local contrib.  to forces
     atom    1 type  1   force =     0.00000000    0.00000000   -0.06087338
     atom    2 type  1   force =     0.00000000   -0.00000000    0.06087338
     atom    3 type  1   force =    -0.00000000    0.00000000   -0.00000000
     atom    4 type  1   force =     0.00000000    0.00000000    0.00000000
     atom    5 type  2   force =    -0.00000000   -0.00000000    0.00000000
     The ionic contribution  to forces
     atom    1 type  1   force =    -0.00000000    0.00000000   -0.55394172
     atom    2 type  1   force =    -0.00000000   -0.00000000    0.55394172
     atom    3 type  1   force =    -0.00000000   -0.00000000    0.00000000
     atom    4 type  1   force =    -0.00000000    0.00000000   -0.00000000
     atom    5 type  2   force =    -0.00000000    0.00000000   -0.00000000
     The local contribution  to forces
     atom    1 type  1   force =    -0.00000000    0.00000000    0.53670883
     atom    2 type  1   force =     0.00000000   -0.00000000   -0.53670883
     atom    3 type  1   force =     0.00000000    0.00000000    0.00000000
     atom    4 type  1   force =    -0.00000000    0.00000000   -0.00000000
     atom    5 type  2   force =    -0.00000000   -0.00000000    0.00000000
     The core correction contribution to forces
     atom    1 type  1   force =    -0.00000000   -0.00000000    0.00356216
     atom    2 type  1   force =     0.00000000    0.00000000   -0.00356216
     atom    3 type  1   force =     0.00000000    0.00000000    0.00000000
     atom    4 type  1   force =    -0.00000000    0.00000000   -0.00000000
     atom    5 type  2   force =     0.00000000    0.00000000    0.00000000
     The Hubbard contrib.    to forces
     atom    1 type  1   force =     0.00000000    0.00000000    0.00000000
     atom    2 type  1   force =     0.00000000    0.00000000    0.00000000
     atom    3 type  1   force =     0.00000000    0.00000000    0.00000000
     atom    4 type  1   force =     0.00000000    0.00000000    0.00000000
     atom    5 type  2   force =     0.00000000    0.00000000    0.00000000
     The SCF correction term to forces
     atom    1 type  1   force =    -0.00000000    0.00000000    0.00001403
     atom    2 type  1   force =    -0.00000000   -0.00000000   -0.00001403
     atom    3 type  1   force =    -0.00000000    0.00000000   -0.00000000
     atom    4 type  1   force =     0.00000000   -0.00000000    0.00000000
     atom    5 type  2   force =    -0.00000000    0.00000000   -0.00000000

     Total force =     0.105401     Total SCF correction =     0.000020


     Computing stress (Cartesian axis) and pressure

          total   stress  (Ry/bohr**3)                   (kbar)     P=      565.22
   0.00405254  -0.00000000  -0.00000000          596.15       -0.00       -0.00
  -0.00000000   0.00405254   0.00000000           -0.00      596.15        0.00
   0.00000000  -0.00000000   0.00342171            0.00       -0.00      503.35

     Energy error            =      2.4E-02 Ry
     Gradient error          =      7.5E-02 Ry/Bohr
     Cell gradient error     =      9.6E+01 kbar

     number of scf cycles    =   3
     number of bfgs steps    =   2

     enthalpy           old  =     -46.4562519658 Ry
     enthalpy           new  =     -46.4805301473 Ry

     CASE: enthalpy          _new < enthalpy          _old

     new trust radius        =       0.1121833231 bohr
ibrav =      7
 celldm(1) =      7.17321027
 celldm(3) =      1.90302262
Input lattice vectors:
     0.46021637    -0.46021637     0.87580217
     0.46021637     0.46021637     0.87580217
    -0.46021637    -0.46021637     0.87580217
New lattice vectors in INITIAL alat:
     0.46021637    -0.46021637     0.87580217
     0.46021637     0.46021637     0.87580217
    -0.46021637    -0.46021637     0.87580217
New lattice vectors in NEW alat (for information only):
     0.50000000    -0.50000000     0.95151131
     0.50000000     0.50000000     0.95151131
    -0.50000000    -0.50000000     0.95151131
Discrepancy in bohr =     0.000000    0.000000    0.000000
     new conv_thr            =       0.0000000075 Ry

     new unit-cell volume =    351.20011 a.u.^3 (    52.04249 Ang^3 )
     density =      3.80601 g/cm^3

CELL_PARAMETERS (alat=  7.79330187)
   0.460216375  -0.460216375   0.875802173
   0.460216375   0.460216375   0.875802173
  -0.460216375  -0.460216375   0.875802173

ATOMIC_POSITIONS (crystal)
Si            0.0000000000        0.2219564571        0.2219564571
Si            0.0000000000        0.7780435429        0.7780435429
Si           -0.5000000000        0.5000000000        0.0000000000
Si            0.5000000000       -0.0000000000       -0.5000000000
Li            0.0000000000        0.5000000000        0.5000000000



     Writing config-only to output data dir ./output/SiLi.save/
     NEW-OLD atomic charge density approx. for the potential
     extrapolated charge   18.86904, renormalised to   19.00000

     total cpu time spent up to now is       59.8 secs

     Self-consistent Calculation

     iteration #  1     ecut=    80.00 Ry     beta= 0.70
     Davidson diagonalization with overlap
     ethr =  1.00E-06,  avg # of iterations = 10.8

     total cpu time spent up to now is       63.0 secs

     total energy              =     -47.69015229 Ry
     estimated scf accuracy    <       0.00099809 Ry

     iteration #  2     ecut=    80.00 Ry     beta= 0.70
     Davidson diagonalization with overlap
     ethr =  5.25E-06,  avg # of iterations =  2.0

     total cpu time spent up to now is       64.3 secs

     total energy              =     -47.69030833 Ry
     estimated scf accuracy    <       0.00021835 Ry

     iteration #  3     ecut=    80.00 Ry     beta= 0.70
     Davidson diagonalization with overlap
     ethr =  1.15E-06,  avg # of iterations =  2.0

     total cpu time spent up to now is       65.6 secs

     total energy              =     -47.69035852 Ry
     estimated scf accuracy    <       0.00001358 Ry

     iteration #  4     ecut=    80.00 Ry     beta= 0.70
     Davidson diagonalization with overlap
     ethr =  7.15E-08,  avg # of iterations =  2.0

     total cpu time spent up to now is       66.8 secs

     total energy              =     -47.69036128 Ry
     estimated scf accuracy    <       0.00000036 Ry

     iteration #  5     ecut=    80.00 Ry     beta= 0.70
     Davidson diagonalization with overlap
     ethr =  1.89E-09,  avg # of iterations =  2.9

     total cpu time spent up to now is       68.2 secs

     total energy              =     -47.69036139 Ry
     estimated scf accuracy    <       0.00000003 Ry

     iteration #  6     ecut=    80.00 Ry     beta= 0.70
     Davidson diagonalization with overlap
     ethr =  1.74E-10,  avg # of iterations =  2.6

     total cpu time spent up to now is       69.5 secs

     total energy              =     -47.69036140 Ry
     estimated scf accuracy    <          9.1E-09 Ry

     iteration #  7     ecut=    80.00 Ry     beta= 0.70
     Davidson diagonalization with overlap
     ethr =  4.81E-11,  avg # of iterations =  1.8

     total cpu time spent up to now is       70.7 secs

     End of self-consistent calculation

          k = 0.0000 0.0000 0.0000 (  5605 PWs)   bands (ev):

   -33.8157  -2.0958   7.1690   8.1780   8.1780   8.9458   9.6883   9.6883
    10.0045  10.2396  11.1031  13.0787  15.0384  15.0384

          k =-0.3621 0.0000 0.1903 (  5605 PWs)   bands (ev):

   -33.8129  -0.8457   3.2400   5.8467   6.7504   8.3589  10.4042  10.7278
    12.1697  12.2204  13.1522  14.1337  15.9225  17.8881

          k =-0.0000 0.1552 0.0816 (  5629 PWs)   bands (ev):

   -33.8150  -1.8623   6.3315   6.7381   8.0112   8.1147   9.7846  10.2384
    10.7492  11.4862  12.8585  13.2124  13.5730  15.0642

          k =-0.3621 0.1552 0.2719 (  5606 PWs)   bands (ev):

   -33.8122  -0.3801   2.9638   5.0202   6.3723   7.9593   9.3588  11.1032
    12.3389  14.3237  14.5462  14.9957  15.8535  16.9808

          k = 0.3621 0.1552-0.1087 (  5618 PWs)   bands (ev):

   -33.8123  -0.8417   3.9278   5.7420   7.1174   7.6573   8.8747   9.4333
    11.7818  13.2302  14.3394  14.7749  16.2928  17.1629

          k =-0.0000 0.3104 0.1631 (  5620 PWs)   bands (ev):

   -33.8134  -1.1707   3.9677   6.0094   6.9751   8.2338  10.3200  11.2317
    11.6341  12.1507  12.5985  13.6165  15.3794  17.1583

          k =-0.3621 0.3104 0.3534 (  5622 PWs)   bands (ev):

   -33.8107   0.5424   3.0543   3.9328   4.9126   7.8502   9.5934  10.3851
    11.6758  14.7823  15.5067  16.9653  17.3242  17.5598

          k = 0.3621 0.3104-0.0272 (  5617 PWs)   bands (ev):

   -33.8108  -0.3715   4.7835   5.4508   6.0715   6.5822   7.2431   8.9491
    11.6580  15.6780  16.0860  16.4462  16.8968  17.5272

          k =-0.0000 0.4656 0.2447 (  5606 PWs)   bands (ev):

   -33.8121  -0.1085   1.9929   5.6404   6.4710   8.7432   9.8268  10.5093
    12.0794  13.4462  14.5219  15.1272  16.0714  17.0599

          k =-0.3621 0.4656 0.4350 (  5619 PWs)   bands (ev):

   -33.8095   1.5654   2.4182   3.8499   4.6849   6.9199   8.9728  10.0731
    11.6265  14.9498  15.9929  16.7795  17.9052  18.6833

          k = 0.3621 0.4656 0.0544 (  5619 PWs)   bands (ev):

   -33.8095   0.5437   3.8890   4.8212   4.9437   6.4531   7.1398   9.6976
    12.6789  14.0195  16.0608  17.0004  18.2639  19.1466

          k = 0.1552-0.1552 0.0000 (  5623 PWs)   bands (ev):

   -33.8143  -1.7314   6.6482   7.3425   7.3646   7.6955   7.9676   9.8330
[...]
     estimated scf accuracy    <       0.00000091 Ry

     iteration #  6     ecut=    80.00 Ry     beta= 0.70
     Davidson diagonalization with overlap
     ethr =  4.81E-09,  avg # of iterations =  3.4

     total cpu time spent up to now is      146.2 secs

     total energy              =     -47.77548727 Ry
     estimated scf accuracy    <       0.00000006 Ry

     iteration #  7     ecut=    80.00 Ry     beta= 0.70
     Davidson diagonalization with overlap
     ethr =  2.92E-10,  avg # of iterations =  2.8

     total cpu time spent up to now is      147.1 secs

     total energy              =     -47.77548728 Ry
     estimated scf accuracy    <          1.9E-09 Ry

     iteration #  8     ecut=    80.00 Ry     beta= 0.70
     Davidson diagonalization with overlap
     ethr =  1.01E-11,  avg # of iterations =  3.8

     total cpu time spent up to now is      148.2 secs

     End of self-consistent calculation

          k = 0.0000 0.0000 0.0000 (  4411 PWs)   bands (ev):

   -33.8737  -2.6011   7.4147   7.4147   8.3845   8.7237   8.8702   8.9080
     9.3353   9.3353  10.2259  12.4451  12.9025  12.9025

          k =-0.3433-0.0000 0.2029 (  4428 PWs)   bands (ev):

   -33.8722  -1.4465   2.6619   6.2781   6.6089   7.4083   8.8451   9.4241
    11.0148  11.8459  12.4688  13.6187  15.5894  16.8286

          k =-0.0000 0.1471 0.0870 (  4425 PWs)   bands (ev):

   -33.8733  -2.3822   5.6390   7.3204   7.4545   7.5187   9.0874   9.8819
    10.2067  10.4723  11.5474  11.7371  12.5430  13.8782

          k =-0.3433 0.1471 0.2899 (  4419 PWs)   bands (ev):

   -33.8718  -0.9870   2.3396   4.9754   5.8079   7.5297   8.6114  10.2597
    11.3201  12.8395  13.5288  13.9086  16.0924  17.0836

          k = 0.3433 0.1471-0.1160 (  4420 PWs)   bands (ev):

   -33.8719  -1.4758   3.3547   5.5435   6.2278   7.5853   8.4187   9.0823
    11.1832  12.1949  13.1788  13.7850  15.1821  16.3065

          k =-0.0000 0.2943 0.1740 (  4420 PWs)   bands (ev):

   -33.8725  -1.7412   3.3418   6.4954   6.7671   7.3337   8.9227   9.8712
    11.0546  11.2813  11.9669  12.7732  14.9782  16.1286

          k =-0.3433 0.2943 0.3769 (  4431 PWs)   bands (ev):

   -33.8711  -0.1393   2.3585   3.1913   4.9046   6.9873   9.7513  10.4339
    11.2945  12.9256  13.6728  15.2426  17.4836  18.6880

          k = 0.3433 0.2943-0.0290 (  4422 PWs)   bands (ev):

   -33.8712  -1.0726   4.1062   4.6562   5.2442   6.3278   6.9326   9.9034
    12.1573  14.0199  14.9122  14.9926  15.4371  16.6488

          k =-0.0000 0.4414 0.2609 (  4430 PWs)   bands (ev):

   -33.8718  -0.8144   1.5432   6.0079   6.4117   7.6584   8.6954   8.7244
    10.9429  13.0951  13.4612  15.3979  15.8964  16.3646

          k =-0.3433 0.4414 0.4639 (  4430 PWs)   bands (ev):

   -33.8705   0.5848   1.8702   3.1118   4.5118   6.3765   8.6654  10.4538
    11.8717  14.0137  15.3003  15.9595  16.2846  17.7180

          k = 0.3433 0.4414 0.0580 (  4422 PWs)   bands (ev):

   -33.8706  -0.2663   3.0509   3.9478   4.6501   6.1781   6.8379  10.4723
    13.3606  14.1175  14.5786  15.7930  16.8779  17.8956

          k = 0.1471-0.1471 0.0000 (  4421 PWs)   bands (ev):

   -33.8730  -2.2777   5.9130   6.4594   6.9858   7.6432   8.7454   9.6769
    10.0308  10.9926  11.8453  12.6026  13.2470  13.3449

          k =-0.1962-0.1471 0.2029 (  4425 PWs)   bands (ev):

   -33.8727  -1.8436   4.3830   5.0793   6.3223   8.2634   9.1456   9.5346
    10.5061  11.3886  13.4325  13.5557  14.7564  15.0891

          k = 0.4905-0.1471-0.2029 (  4425 PWs)   bands (ev):

   -33.8714  -0.5419   1.6243   5.1108   6.0013   7.0015   8.2885  10.7591
    10.8988  12.3944  13.8106  15.6020  16.2199  16.9231

          k =-0.1962-0.0000 0.2899 (  4428 PWs)   bands (ev):

   -33.8729  -1.6822   3.6481   4.7377   6.3547   7.9266   9.3479  10.5845
    11.4068  12.2684  12.3729  13.2448  15.4448  16.4796

          k = 0.4905-0.0000-0.1160 (  4436 PWs)   bands (ev):

   -33.8717  -0.8343   1.9813   4.0641   7.6462   8.6138   8.8593   9.0352
    11.0755  11.8640  12.2968  14.5072  16.8280  17.3895

          k = 0.1471 0.1471 0.1740 (  4414 PWs)   bands (ev):

   -33.8729  -2.0491   5.0936   5.2308   6.6054   8.3893   8.9229   9.8706
    10.1898  11.0534  12.9082  13.3905  13.9096  14.4338

          k =-0.1962 0.1471 0.3769 (  4433 PWs)   bands (ev):

   -33.8724  -1.0970   3.0892   3.7922   4.9118   9.3345   9.9794  10.0212
    11.3315  12.1270  14.1338  14.3226  16.5624  17.0518

          k = 0.4905 0.1471-0.0290 (  4431 PWs)   bands (ev):

   -33.8714  -0.7230   2.6726   3.3967   5.9277   8.2127   9.1840  10.3067
    10.7532  11.9793  13.7283  14.2772  16.7481  16.9956

          k = 0.1471 0.2943 0.2609 (  4421 PWs)   bands (ev):

   -33.8721  -1.3051   2.9643   4.9844   5.9150   7.7657   8.8319   9.9852
    10.9591  12.6524  13.1551  14.2298  15.8117  16.3564

          k =-0.1962 0.2943 0.4639 (  4436 PWs)   bands (ev):

   -33.8717  -0.1878   2.2077   2.9887   4.4019   8.9542  10.3050  11.1681
    11.8114  12.1610  13.0059  14.6913  16.6212  17.7469

          k = 0.4905 0.2943 0.0580 (  4422 PWs)   bands (ev):

   -33.8707  -0.1976   2.6754   3.8993   4.3741   6.6973   7.5883  10.5732
    13.1474  13.6863  14.2240  15.4184  17.1618  17.3267

          k = 0.1471-0.5886-0.2609 (  4425 PWs)   bands (ev):

   -33.8715  -0.4062   1.4305   5.0031   5.8063   7.1484   8.3481  10.5893
    12.0509  12.3079  13.0904  15.2583  17.0363  17.3406

          k =-0.1962-0.5886-0.0580 (  4427 PWs)   bands (ev):

   -33.8712   0.0122   2.0106   2.9655   4.8069   8.2175   9.5429  10.7847
    11.2539  13.4073  14.4418  14.5803  15.3793  16.4695

          k = 0.4905-0.5886-0.4639 (  4434 PWs)   bands (ev):

   -33.8701   0.7088   2.1245   3.1046   4.5170   6.3399   7.0490  10.2573
    11.7135  15.6274  16.0671  16.6642  17.4572  18.0627

          k = 0.1471-0.4414-0.1740 (  4421 PWs)   bands (ev):

   -33.8715  -0.8493   2.1051   5.2136   6.0986   7.0814   8.3194  10.1452
    11.0231  12.3118  14.0510  14.9765  15.7824  16.5804

          k =-0.1962-0.4414 0.0290 (  4425 PWs)   bands (ev):

   -33.8713  -0.8939   3.1012   3.9646   5.5670   7.5314   8.1741  10.1171
    11.8323  12.1261  14.1650  14.4708  16.5800  16.8738

          k = 0.4905-0.4414-0.3769 (  4424 PWs)   bands (ev):

   -33.8701   0.9828   1.9536   2.6611   4.4131   6.8530   8.1976   9.4361
    10.2515  16.1612  16.6939  17.1534  17.4684  18.3339

          k = 0.1471-0.2943-0.0870 (  4417 PWs)   bands (ev):

   -33.8722  -1.7426   4.0570   5.7750   6.2999   7.9412   8.2782   8.8933
    11.0552  12.1059  12.8184  13.1978  14.6895  15.5138

          k =-0.1962-0.2943 0.1160 (  4422 PWs)   bands (ev):

   -33.8720  -1.5727   3.9487   5.3753   6.2567   7.4478   7.8887   8.7378
    11.7828  12.7401  13.4625  13.7608  14.8757  15.7812

          k = 0.4905-0.2943-0.2899 (  4430 PWs)   bands (ev):

   -33.8707   0.1098   1.7058   4.0324   5.2032   6.6502   7.9013  10.1787
    11.1307  13.6318  14.5803  16.8547  17.5373  18.2518

          k = 0.2943-0.2943 0.0000 (  4427 PWs)   bands (ev):

   -33.8715  -1.3095   4.5219   4.8469   5.5576   6.2617   7.1289   9.7621
    11.7465  13.8943  14.5861  14.7462  14.9497  16.0162

          k =-0.0490-0.2943 0.2029 (  4428 PWs)   bands (ev):

   -33.8724  -1.6435   3.1738   6.1613   6.7493   7.2014   8.9945   9.7474
    11.0665  11.6762  12.4996  12.9438  15.3201  16.2880

          k = 0.6376-0.2943-0.2029 (  4435 PWs)   bands (ev):

   -33.8709   0.1627   1.9420   3.3158   4.7759   6.7624   9.6269  10.4231
    11.2355  13.0646  14.5088  15.2548  17.1334  18.5140

          k =-0.0490-0.1471 0.2899 (  4421 PWs)   bands (ev):

   -33.8731  -1.7839   4.0051   4.8403   6.0010   8.1520   9.2826  10.4382
    11.4457  12.1208  12.9674  13.4795  14.7626  16.1485

          k = 0.6376-0.1471-0.1160 (  4435 PWs)   bands (ev):

   -33.8715  -0.0317   1.6211   3.1354   5.1854   8.7381   9.8369  10.6528
    11.2169  13.4150  13.6681  14.2005  15.5641  16.4672

          k =-0.0490-0.0000 0.3769 (  4429 PWs)   bands (ev):

   -33.8732  -1.4985   2.9378   5.4078   5.7150   7.1251   8.1202  12.6979
    13.1634  13.6748  13.7252  13.8643  14.4638  16.4800

          k = 0.6376-0.0000-0.0290 (  4431 PWs)   bands (ev):

   -33.8718  -0.0593   1.8441   2.2750   6.5151   8.0343  10.6816  11.3082
    12.0406  12.5553  12.7051  13.2849  15.0519  17.3517

          k =-0.0490 0.1471 0.4639 (  4435 PWs)   bands (ev):

   -33.8728  -0.8093   2.0160   4.0422   5.3881   7.6461   9.0416  12.3330
    12.9207  13.9982  14.2101  14.8933  16.3118  16.8697

          k = 0.6376 0.1471 0.0580 (  4435 PWs)   bands (ev):

   -33.8715   0.0866   1.8181   2.6038   5.1102   9.0796   9.9533  10.6604
    11.3519  13.2676  13.6908  14.5227  15.1642  16.2836

          k = 0.2943-0.7357-0.2609 (  4428 PWs)   bands (ev):

   -33.8713  -0.4721   2.7877   3.2198   5.0787   7.2562   9.8486   9.8626
    12.0467  12.6638  13.0470  15.0231  17.3948  18.4973

          k =-0.0490-0.7357-0.0580 (  4440 PWs)   bands (ev):

   -33.8721   0.0279   1.5608   2.5359   5.7413   7.9832  11.2654  11.4555
    12.2117  13.0010  13.2514  14.3319  15.5495  16.4880

          k = 0.6376-0.7357-0.4639 (  4430 PWs)   bands (ev):

   -33.8709   0.3760   1.8859   3.1204   4.3025   7.0803   9.6150  10.6393
    11.9529  12.9839  14.3225  15.4501  16.3032  17.7894

          k = 0.2943-0.5886-0.1740 (  4424 PWs)   bands (ev):

   -33.8708   0.3016   1.7632   3.5010   4.6905   6.5903   9.3135   9.9865
    11.8940  13.2208  15.0753  15.3921  16.5350  18.2922

          k =-0.0490-0.5886 0.0290 (  4442 PWs)   bands (ev):

   -33.8717  -0.2775   2.0416   2.5225   6.5267   8.5782   9.9735  10.9378
    11.4296  11.8356  12.9451  13.9146  15.2611  17.2752

          k = 0.6376-0.5886-0.3769 (  4432 PWs)   bands (ev):

   -33.8703   0.6697   1.9756   2.8383   4.7944   6.3917   8.9197   9.6110
    10.3738  15.1517  15.8780  16.3734  17.5245  18.5867

          k = 0.2943-0.4414-0.0870 (  4426 PWs)   bands (ev):

   -33.8708  -0.4798   2.9312   4.2930   4.7103   6.4252   7.5148   9.8925
    13.3710  13.7382  14.2330  15.2412  16.7131  17.3378

          k =-0.0490-0.4414 0.1160 (  4425 PWs)   bands (ev):

   -33.8718  -1.0998   2.3584   4.5041   7.5458   8.2325   8.7987   9.4071
    10.6940  11.3979  12.4458  14.2724  16.4912  17.1497

          k = 0.6376-0.4414-0.2899 (  4437 PWs)   bands (ev):

   -33.8704   0.5164   2.1493   2.8703   4.7436   6.8554   8.5989   9.2242
    10.3401  15.3163  15.9351  16.3359  17.9301  18.8752

          k = 0.4414-0.4414 0.0000 (  4444 PWs)   bands (ev):

   -33.8702   0.2878   2.4740   3.8073   4.8347   5.5658   6.2369  11.4393
    13.5747  13.6948  15.5058  15.7220  17.6199  18.0598

          k = 0.0981-0.4414 0.2029 (  4433 PWs)   bands (ev):

   -33.8717  -0.8818   1.8728   5.4979   6.6929   7.0401   8.2760  10.0656
    10.9715  11.9164  13.8421  15.2732  15.6960  16.5122

          k = 0.7848-0.4414-0.2029 (  4425 PWs)   bands (ev):

   -33.8710   0.0388   1.6171   4.0133   4.9415   6.8277   9.0811  10.5001
    11.8011  12.5693  14.3089  15.2920  16.8487  18.1301

          k = 0.0981-0.2943 0.2899 (  4428 PWs)   bands (ev):

   -33.8722  -1.2807   2.7342   4.9314   5.9887   8.1191   9.0404   9.8258
    11.5332  12.2911  12.8387  14.1209  15.9319  16.6864

          k = 0.7848-0.2943-0.1160 (  4427 PWs)   bands (ev):

   -33.8715   0.1168   2.2633   2.6633   4.0268   8.6344  10.9226  11.0813
    11.6894  12.2847  12.9325  15.3300  16.2614  17.2856

          k = 0.0981-0.1471 0.3769 (  4428 PWs)   bands (ev):

   -33.8728  -1.2968   3.0464   4.2826   5.2220   8.4859   9.2234  11.0895
    11.8557  12.5414  13.9381  14.6830  15.8865  16.8075

          k = 0.7848-0.1471-0.0290 (  4430 PWs)   bands (ev):

   -33.8721   0.2091   1.4298   2.8616   4.5132   9.1997  10.5494  11.0410
    12.0991  13.2226  14.5413  14.6952  15.6145  16.8572

          k = 0.0981-0.0000 0.4639 (  4433 PWs)   bands (ev):

   -33.8730  -0.9034   1.9369   4.6114   5.5254   7.1708   8.3743  13.2092
    13.5226  14.1038  14.6044  14.8034  15.9976  17.2184

          k = 0.7848-0.0000 0.0580 (  4439 PWs)   bands (ev):

   -33.8724  -0.0581   1.4063   2.8769   5.7929   7.5272  10.5776  12.1960
    12.5289  13.4348  14.1681  14.2449  15.8379  16.6543

          k = 0.0981-0.8828-0.0580 (  4435 PWs)   bands (ev):

   -33.8726  -0.1730   1.2254   3.8608   4.8168   8.1415   9.0169  12.4211
    14.0104  14.0666  14.6659  14.7837  16.3474  16.8870

          k = 0.7848-0.8828-0.4639 (  4435 PWs)   bands (ev):

   -33.8721  -0.4447   2.2382   3.1375   4.6867   9.2865  10.1200  10.7132
    11.9888  12.9608  13.3096  14.4059  16.8263  17.4355

          k = 0.0981-0.7357 0.0290 (  4442 PWs)   bands (ev):

   -33.8720   0.1819   1.5276   2.4829   5.2062   8.6084  10.8598  11.5595
    12.2007  12.5862  13.6574  14.7157  15.3847  16.3791

          k = 0.7848-0.7357-0.3769 (  4426 PWs)   bands (ev):

   -33.8715  -0.5120   2.6625   3.3484   4.7362   7.8897  10.0016  10.6789
    11.7934  12.2134  12.8000  14.8111  17.3966  18.1878

          k = 0.4414-0.5886-0.0870 (  4442 PWs)   bands (ev):

   -33.8702   1.1014   1.5932   3.2019   4.3491   6.0588   7.2227  11.8037
    11.8327  14.9158  15.6932  15.9580  16.0904  17.7411

          k = 0.0981-0.5886 0.1160 (  4437 PWs)   bands (ev):

   -33.8716  -0.2509   1.5692   3.3846   6.0331   8.8149   9.2956  10.1498
    11.3140  12.5128  13.9690  14.5233  15.4152  16.2400

          k = 0.7848-0.5886-0.2899 (  4420 PWs)   bands (ev):

   -33.8710  -0.2611   1.7953   4.4809   5.6983   6.4670   7.9419  10.4064
    11.9438  12.6300  13.9633  15.7193  17.3660  18.3206

     the Fermi energy is    12.5613 ev

!    total energy              =     -47.77548728 Ry
     estimated scf accuracy    <          7.8E-11 Ry
     smearing contrib. (-TS)   =       0.00040455 Ry
     internal energy E=F+TS    =     -47.77589183 Ry

     The total energy is F=E-TS. E is the sum of the following terms:
     one-electron contribution =      14.18197973 Ry
     hartree contribution      =       3.76929098 Ry
     xc contribution           =     -16.64171639 Ry
     ewald contribution        =     -49.08544615 Ry

     convergence has been achieved in   8 iterations

     Forces acting on atoms (cartesian axes, Ry/au):

     atom    1 type  1   force =     0.00000000   -0.00000000   -0.00004293
     atom    2 type  1   force =     0.00000000   -0.00000000    0.00004293
     atom    3 type  1   force =     0.00000000   -0.00000000   -0.00000000
     atom    4 type  1   force =     0.00000000    0.00000000    0.00000000
     atom    5 type  2   force =     0.00000000    0.00000000    0.00000000
     The non-local contrib.  to forces
     atom    1 type  1   force =     0.00000000   -0.00000000   -0.02062871
     atom    2 type  1   force =    -0.00000000    0.00000000    0.02062871
     atom    3 type  1   force =    -0.00000000    0.00000000    0.00000000
     atom    4 type  1   force =     0.00000000    0.00000000   -0.00000000
     atom    5 type  2   force =     0.00000000    0.00000000   -0.00000000
     The ionic contribution  to forces
     atom    1 type  1   force =    -0.00000000   -0.00000000    0.09042770
     atom    2 type  1   force =    -0.00000000   -0.00000000   -0.09042770
     atom    3 type  1   force =     0.00000000    0.00000000    0.00000000
     atom    4 type  1   force =    -0.00000000    0.00000000   -0.00000000
     atom    5 type  2   force =     0.00000000    0.00000000   -0.00000000
     The local contribution  to forces
     atom    1 type  1   force =    -0.00000000    0.00000000   -0.06873042
     atom    2 type  1   force =     0.00000000   -0.00000000    0.06873042
     atom    3 type  1   force =     0.00000000   -0.00000000   -0.00000000
     atom    4 type  1   force =     0.00000000   -0.00000000    0.00000000
     atom    5 type  2   force =    -0.00000000   -0.00000000   -0.00000000
     The core correction contribution to forces
     atom    1 type  1   force =     0.00000000   -0.00000000   -0.00110703
     atom    2 type  1   force =    -0.00000000   -0.00000000    0.00110703
     atom    3 type  1   force =    -0.00000000   -0.00000000    0.00000000
     atom    4 type  1   force =    -0.00000000   -0.00000000    0.00000000
     atom    5 type  2   force =     0.00000000    0.00000000    0.00000000
     The Hubbard contrib.    to forces
     atom    1 type  1   force =     0.00000000    0.00000000    0.00000000
     atom    2 type  1   force =     0.00000000    0.00000000    0.00000000
     atom    3 type  1   force =     0.00000000    0.00000000    0.00000000
     atom    4 type  1   force =     0.00000000    0.00000000    0.00000000
     atom    5 type  2   force =     0.00000000    0.00000000    0.00000000
     The SCF correction term to forces
     atom    1 type  1   force =     0.00000000    0.00000000   -0.00000447
     atom    2 type  1   force =    -0.00000000   -0.00000000    0.00000447
     atom    3 type  1   force =    -0.00000000   -0.00000000    0.00000000
     atom    4 type  1   force =     0.00000000   -0.00000000    0.00000000
     atom    5 type  2   force =     0.00000000    0.00000000   -0.00000000

     Total force =     0.000061     Total SCF correction =     0.000006
     SCF correction compared to forces is large: reduce conv_thr to get better values


     Computing stress (Cartesian axis) and pressure

          total   stress  (Ry/bohr**3)                   (kbar)     P=      499.15
   0.00339304   0.00000000   0.00000000          499.13        0.00        0.00
   0.00000000   0.00339304  -0.00000000            0.00      499.13       -0.00
   0.00000000  -0.00000000   0.00339340            0.00       -0.00      499.19


     Writing all to output data dir ./output/SiLi.save/

     init_run     :      1.96s CPU      2.29s WALL (       2 calls)
     electrons    :    114.52s CPU    120.35s WALL (      10 calls)
     update_pot   :      4.18s CPU      4.26s WALL (       8 calls)
     forces       :      3.46s CPU      3.57s WALL (      10 calls)
     stress       :     18.32s CPU     18.97s WALL (      10 calls)

     Called by init_run:
     wfcinit      :      0.94s CPU      0.98s WALL (       2 calls)
     potinit      :      0.36s CPU      0.48s WALL (       2 calls)
     hinit0       :      0.61s CPU      0.72s WALL (       2 calls)

     Called by electrons:
     c_bands      :    100.66s CPU    105.40s WALL (      76 calls)
     sum_band     :     12.82s CPU     13.32s WALL (      76 calls)
     v_of_rho     :      1.01s CPU      1.61s WALL (      84 calls)
     mix_rho      :      0.11s CPU      0.13s WALL (      76 calls)

     Called by c_bands:
     init_us_2    :      2.31s CPU      2.48s WALL (   11310 calls)
     init_us_2:cp :      2.29s CPU      2.47s WALL (   11310 calls)
     cegterg      :     93.55s CPU     96.06s WALL (    4940 calls)

     Called by *egterg:
     cdiaghg      :      4.71s CPU      4.84s WALL (   22237 calls)
     h_psi        :     81.33s CPU     83.54s WALL (   23017 calls)
     g_psi        :      0.35s CPU      0.36s WALL (   17947 calls)

     Called by h_psi:
     h_psi:calbec :      5.44s CPU      5.59s WALL (   23017 calls)
     vloc_psi     :     71.03s CPU     72.95s WALL (   23017 calls)
     add_vuspsi   :      4.60s CPU      4.72s WALL (   23017 calls)

     General routines
     calbec       :      6.61s CPU      6.80s WALL (   26267 calls)
     fft          :      1.38s CPU      2.22s WALL (    1090 calls)
     ffts         :      0.05s CPU      0.10s WALL (      76 calls)
     fftw         :     71.85s CPU     73.70s WALL (  511460 calls)

     Parallel routines

     PWSCF        :   2m22.80s CPU   2m30.23s WALL


   This run was terminated on:  20:44:20  29Dec2024            

=------------------------------------------------------------------------------=
   JOB DONE.
=------------------------------------------------------------------------------=
